Title
82299
    1SAPS     N    1   6.565   3.836  10.922  0.5254  0.0582  0.4326
    1SAPS   HN1    2   6.500   3.917  10.916  0.1382 -0.3307 -2.3041
    1SAPS   HN2    3   6.639   3.856  10.851 -0.7527  1.1295 -0.6709
    1SAPS   HN3    4   6.511   3.756  10.882  0.7796  0.8134 -1.5339
    1SAPS   C12    5   6.619   3.816  11.062  0.2663  0.1349  0.0553
    1SAPS  H12A    6   6.671   3.909  11.078  3.6224 -1.2667 -1.7053
    1SAPS   C13    7   6.505   3.807  11.167 -0.2547 -0.2494 -0.2849
    1SAPS  O13A    8   6.388   3.841  11.131 -0.0985  0.0004 -0.2998
    1SAPS  O13B    9   6.531   3.805  11.290 -0.2758  0.5801  0.7458
    1SAPS   C11   10   6.722   3.699  11.054  0.8485 -0.0249  0.1664
    1SAPS  H11A   11   6.669   3.602  11.046  0.7527  0.0270  0.1739
    1SAPS  H11B   12   6.770   3.703  11.155 -0.1081  0.5937  0.6130
    1SAPS     P   13   6.938   3.612  10.945  0.3135  0.0907  0.0177
    1SAPS   O13   14   7.060   3.686  10.912  0.1724  0.0106 -0.1032
    1SAPS   O14   15   6.929   3.523  11.068 -0.3522 -0.3737  0.5885
    1SAPS   O12   16   6.816   3.715  10.952  0.4893  0.6374  0.2902
    1SAPS   O11   17   6.896   3.526  10.819 -0.1525  0.2523 -0.1930
    1SAPS    C1   18   6.893   3.595  10.692  0.2861  0.4014 -0.2109
    1SAPS    HA   19   6.832   3.687  10.700  2.0622  1.5291  1.2154
    1SAPS    HB   20   6.995   3.621  10.655  0.4923 -0.7494 -0.5008
    1SAPS    C2   21   6.835   3.505  10.582  0.5608 -0.1807  0.5713
    1SAPS    HS   22   6.911   3.432  10.547  0.9729  1.0777 -1.2841
    1SAPS   O21   23   6.790   3.591  10.471 -0.8647  0.3015 -0.4335
    1SAPS   C21   24   6.893   3.642  10.405  0.9576 -0.3747 -0.1321
    1SAPS   O22   25   7.005   3.607  10.417 -0.2091 -0.3998  0.2123
    1SAPS   C22   26   6.846   3.755  10.320  0.3762  0.0692 -0.5918
    1SAPS   H2R   27   6.768   3.704  10.259  0.2263 -0.1348 -0.2402
    1SAPS   H2S   28   6.808   3.839  10.382 -0.3771 -0.4645 -0.3150
    1SAPS    C3   29   6.706   3.421  10.624  0.2771 -0.2383 -0.2882
    1SAPS    HX   30   6.618   3.488  10.629  0.8841  0.5491  0.0726
    1SAPS    HY   31   6.735   3.366  10.717 -1.6106 -0.1992  0.3626
    1SAPS   O31   32   6.691   3.324  10.522  0.3178  0.7096 -0.6025
    1SAPS   C31   33   6.580   3.252  10.546  1.0485  0.0490 -0.0811
    1SAPS   O32   34   6.500   3.273  10.635  0.8031 -0.3041 -0.0928
    1SAPS   C32   35   6.573   3.131  10.454 -0.6619  0.2048  0.5620
    1SAPS   H2X   36   6.655   3.063  10.486  0.5113  0.9380 -0.7508
    1SAPS   H2Y   37   6.623   3.163  10.360  3.3905 -1.9753  1.7053
    1SAPS   C23   38   6.964   3.791  10.220 -0.2314  0.0523 -0.4213
    1SAPS   H3R   39   7.001   3.699  10.170 -0.0466  0.2612 -0.6687
    1SAPS   H3S   40   7.045   3.822  10.290 -0.3449  0.5269 -0.5034
    1SAPS   C24   41   6.920   3.905  10.136  0.0010 -0.0811  0.3293
    1SAPS   H4R   42   6.840   3.969  10.180 -0.5727 -0.6628  0.1488
    1SAPS   H4S   43   6.867   3.861  10.049 -0.1525  2.5893 -1.0410
    1SAPS   C25   44   7.026   3.999  10.078  0.1103  0.7722  0.1870
    1SAPS   H5R   45   7.077   4.059  10.155  0.7277  1.1986 -0.5389
    1SAPS   C26   46   7.056   4.007   9.949 -0.2525  0.9862  0.1886
    1SAPS   H6R   47   7.121   4.094   9.926 -1.6340  1.6572 -1.3927
    1SAPS   C27   48   7.009   3.928   9.826  0.4001 -0.4138  0.8197
    1SAPS   H7R   49   6.962   3.994   9.751 -1.2300  0.3304  2.4271
    1SAPS   H7S   50   6.930   3.855   9.855 -0.4165  0.3167  0.4478
    1SAPS   C28   51   7.109   3.839   9.764 -0.6691 -0.8557  0.9159
    1SAPS   H8R   52   7.153   3.758   9.823  2.4724 -0.7671 -1.0749
    1SAPS   C29   53   7.166   3.852   9.640  0.6494  0.3979 -0.4000
    1SAPS   H9R   54   7.250   3.788   9.611  1.3120  0.5771  1.0369
    1SAPS  C210   55   7.143   3.961   9.541 -0.0898 -0.0204  0.3770
    1SAPS  H10R   56   7.090   4.047   9.588 -2.2762 -0.4413 -1.1557
    1SAPS  H10S   57   7.060   3.933   9.472 -0.7932  1.6168  0.5073
    1SAPS  C211   58   7.256   4.033   9.465  0.7073  0.8793 -0.1719
    1SAPS  H11R   59   7.345   4.059   9.524 -0.0874 -1.1261  2.0266
    1SAPS  C212   60   7.255   4.060   9.332  0.8648  0.2640  0.5492
    1SAPS  H12R   61   7.341   4.102   9.278 -0.5255  1.6856 -0.6475
    1SAPS  C213   62   7.152   4.024   9.232  0.5416  0.2432 -0.5578
    1SAPS  H13R   63   7.048   4.046   9.267  1.0068  0.4915  0.7230
    1SAPS  H13S   64   7.146   3.913   9.231 -1.7037  0.2973 -0.1641
    1SAPS  C214   65   7.176   4.076   9.089  0.0807  0.6262 -0.8602
    1SAPS  H14R   66   7.149   4.181   9.070 -1.7049  0.5520  0.9110
    1SAPS  C215   67   7.241   4.003   8.998  0.2400 -0.0653  0.1687
    1SAPS  H15R   68   7.267   4.048   8.902 -0.0473 -0.9910 -0.3545
    1SAPS  C216   69   7.302   3.869   9.016 -0.6084  0.1982 -0.0071
    1SAPS  H16R   70   7.219   3.795   9.024 -0.2981 -0.0157  1.5749
    1SAPS  H16S   71   7.370   3.871   9.104 -0.1861 -0.9883 -0.2987
    1SAPS  C217   72   7.387   3.829   8.895  0.2642  0.1148  0.6168
    1SAPS  H17R   73   7.328   3.834   8.801  0.7282 -1.4804  0.2105
    1SAPS  H17S   74   7.409   3.720   8.903 -0.1804  0.0795  1.4838
    1SAPS  C218   75   7.513   3.911   8.877 -0.7640  0.3766 -0.6358
    1SAPS  H18R   76   7.574   3.883   8.966 -0.6387  0.4471 -0.7003
    1SAPS  H18S   77   7.502   4.020   8.894  3.0300  0.9167 -0.9005
    1SAPS  C219   78   7.587   3.883   8.746 -0.0102 -0.4533  0.3541
    1SAPS  H19R   79   7.686   3.935   8.743  1.2346 -2.7231 -1.5515
    1SAPS  H19S   80   7.521   3.909   8.661 -1.6420  1.5998  2.1399
    1SAPS  C220   81   7.619   3.739   8.731 -0.7207 -0.6804  0.0097
    1SAPS  H20R   82   7.684   3.731   8.641  1.7913  0.1196  1.6566
    1SAPS  H20S   83   7.523   3.685   8.717 -1.9183  1.0197  1.1105
    1SAPS  H20T   84   7.681   3.695   8.812  1.0777 -0.9982 -1.4691
    1SAPS   C33   85   6.435   3.071  10.443 -0.2618  0.3084  0.1233
    1SAPS   H3X   86   6.356   3.146  10.424 -0.5878  0.6385  2.4883
    1SAPS   H3Y   87   6.421   3.007  10.533  0.1175  0.7677  0.5116
    1SAPS   C34   88   6.420   2.976  10.329  0.0448 -0.0273  0.7724
    1SAPS   H4X   89   6.326   2.918  10.346 -0.0567 -0.0053  0.2951
    1SAPS   H4Y   90   6.496   2.895  10.339  0.0971 -0.5050 -2.3821
    1SAPS   C35   91   6.426   3.026  10.190  0.0025 -0.8719  0.0038
    1SAPS   H5X   92   6.519   3.086  10.182 -1.0945  1.4269  2.8174
    1SAPS   H5Y   93   6.336   3.088  10.171 -0.0940 -1.0243 -0.0375
    1SAPS   C36   94   6.428   2.919  10.082  0.0195  0.1140 -0.3010
    1SAPS   H6X   95   6.331   2.865  10.084 -0.1256  0.3621 -0.5338
    1SAPS   H6Y   96   6.515   2.853  10.104 -0.3761  0.2131  1.7864
    1SAPS   C37   97   6.437   2.987   9.943 -0.1087  0.2216  0.1646
    1SAPS   H7X   98   6.521   3.057   9.920 -0.5709  0.8759  0.4483
    1SAPS   H7Y   99   6.346   3.050   9.937  0.3315  1.0395  1.5474
    1SAPS   C38  100   6.444   2.884   9.821 -0.3078 -0.3173 -0.6512
    1SAPS   H8X  101   6.365   2.807   9.829 -2.5200  1.9633  1.3421
    1SAPS   H8Y  102   6.537   2.824   9.833 -0.5901 -0.5969  0.2619
    1SAPS   C39  103   6.440   2.959   9.684 -0.0347  0.1159 -0.4001
    1SAPS   H9X  104   6.514   3.041   9.672  0.9973 -1.0649 -2.7419
    1SAPS   H9Y  105   6.340   3.005   9.671  0.8764  1.7901 -1.8620
    1SAPS  C310  106   6.454   2.863   9.569  0.5725 -0.7913  0.2595
    1SAPS  H10X  107   6.381   2.905   9.497  0.5851  1.8162  1.6803
    1SAPS  H10Y  108   6.438   2.758   9.601  3.4164 -1.2317  0.5199
    1SAPS  C311  109   6.597   2.872   9.511 -0.5755 -0.1959 -0.1409
    1SAPS  H11X  110   6.677   2.842   9.582 -1.7000 -1.2714  0.7236
    1SAPS  H11Y  111   6.620   2.974   9.474 -0.8851 -0.1311 -0.1629
    1SAPS  C312  112   6.605   2.782   9.385 -0.0112 -0.1734 -0.6326
    1SAPS  H12X  113   6.571   2.679   9.406 -0.5338 -0.5269 -2.9618
    1SAPS  H12Y  114   6.711   2.758   9.367  0.9672  2.1190  1.4492
    1SAPS  C313  115   6.524   2.832   9.262 -0.1761  0.2012  0.5054
    1SAPS  H13X  116   6.545   2.934   9.223 -1.4528 -0.1843 -1.3066
    1SAPS  H13Y  117   6.416   2.823   9.286 -0.2607 -1.9003 -0.3869
    1SAPS  C314  118   6.530   2.739   9.142 -0.2746  0.8147 -0.3043
    1SAPS  H14X  119   6.477   2.781   9.054  2.4436  3.1664 -0.9559
    1SAPS  H14Y  120   6.504   2.634   9.168  0.0360  1.1790  1.6303
    1SAPS  C315  121   6.675   2.730   9.086 -0.6135 -0.3963  1.4622
    1SAPS  H15X  122   6.748   2.679   9.152  0.2157 -0.8592  0.2200
    1SAPS  H15Y  123   6.708   2.836   9.082  0.2762 -0.6986  0.1011
    1SAPS  C316  124   6.690   2.674   8.945 -0.2331 -0.0857 -0.4576
    1SAPS  H16X  125   6.593   2.659   8.892  1.7422 -1.4862 -4.0468
    1SAPS  H16Y  126   6.749   2.580   8.951  2.2273  1.4007  0.0395
    1SAPS  C317  127   6.772   2.761   8.859 -0.3422  0.2840  0.9002
    1SAPS  H17X  128   6.869   2.772   8.911  0.1777 -3.3345  0.9698
    1SAPS  H17Y  129   6.724   2.858   8.835 -1.6223 -1.1211 -2.9978
    1SAPS  C318  130   6.807   2.688   8.724 -0.3456 -0.3761  0.8600
    1SAPS  H18X  131   6.872   2.754   8.664 -1.0410 -1.3643 -1.0488
    1SAPS  H18Y  132   6.715   2.661   8.668 -0.0467  0.9139 -0.2916
    1SAPS  H18Z  133   6.856   2.588   8.732  5.5056  2.0644  0.0791
    2SAPS     N  134   0.428   5.090  11.470  0.1987  0.1128 -0.6302
    2SAPS   HN1  135   0.464   4.998  11.439 -2.2073 -0.8496 -0.7585
    2SAPS   HN2  136   0.499   5.164  11.487  0.1410  0.3242 -1.3080
    2SAPS   HN3  137   0.371   5.078  11.556  1.6341 -2.1715  0.0723
    2SAPS   C12  138   0.334   5.148  11.368  0.4829  0.3344  0.2060
    2SAPS  H12A  139   0.253   5.082  11.340  0.9929 -0.4211  0.4915
    2SAPS   C13  140   0.274   5.286  11.404  0.0085  0.2570 -0.1712
    2SAPS  O13A  141   0.286   5.323  11.522 -0.5372 -1.2847 -0.5426
    2SAPS  O13B  142   0.202   5.347  11.321 -0.1726 -0.2793  1.3292
    2SAPS   C11  143   0.405   5.176  11.226 -0.5054 -0.8016  0.0396
    2SAPS  H11A  144   0.495   5.239  11.241 -1.2969  0.8231 -1.7029
    2SAPS  H11B  145   0.332   5.219  11.154 -0.0452  1.1354  0.6844
    2SAPS     P  146   0.558   5.024  11.081  0.0325 -0.1673  0.0184
    2SAPS   O13  147   0.677   5.098  11.138  0.3311  0.0930 -0.3860
    2SAPS   O14  148   0.574   4.878  11.049 -0.1176  0.2738 -0.0182
    2SAPS   O12  149   0.447   5.044  11.186 -0.1200 -0.0185 -0.0472
    2SAPS   O11  150   0.504   5.101  10.964  0.3392 -0.0694 -0.4909
    2SAPS    C1  151   0.396   5.071  10.883  0.4853  0.5989 -0.0702
    2SAPS    HA  152   0.324   5.018  10.949 -1.2903  2.1928 -0.6271
    2SAPS    HB  153   0.345   5.166  10.856  0.5010  0.8803  0.8366
    2SAPS    C2  154   0.435   4.987  10.761 -0.0220 -0.3688  0.2970
    2SAPS    HS  155   0.497   4.906  10.805 -0.1320  0.2646  1.6726
    2SAPS   O21  156   0.509   5.072  10.671 -0.0276  0.7262 -0.6746
    2SAPS   C21  157   0.649   5.061  10.678  0.3019  0.0380 -0.2440
    2SAPS   O22  158   0.702   4.985  10.757 -0.1819  0.2545 -0.2151
    2SAPS   C22  159   0.714   5.173  10.606  0.0421  0.4888  0.0291
    2SAPS   H2R  160   0.679   5.192  10.503 -0.8831  1.2318  0.4617
    2SAPS   H2S  161   0.697   5.270  10.659  1.2294 -0.0515  1.5006
    2SAPS    C3  162   0.313   4.936  10.675 -0.3583  0.5812  0.3065
    2SAPS    HX  163   0.252   5.026  10.649  2.6839  2.2654 -1.4849
    2SAPS    HY  164   0.242   4.873  10.733  0.4104  0.2734  0.9352
    2SAPS   O31  165   0.363   4.857  10.564  0.1970  0.1374 -0.1296
    2SAPS   C31  166   0.368   4.919  10.438 -0.5615  0.0609  0.0237
    2SAPS   O32  167   0.337   5.032  10.418 -0.2189 -0.1430 -0.1429
    2SAPS   C32  168   0.438   4.821  10.339 -0.1879  0.3316 -0.2310
    2SAPS   H2X  169   0.499   4.741  10.385  0.6848 -0.4059 -2.5490
    2SAPS   H2Y  170   0.509   4.875  10.272  0.7604  0.9543  1.2280
    2SAPS   C23  171   0.873   5.141  10.598  0.2047 -0.6733  0.6649
    2SAPS   H3R  172   0.901   5.127  10.704  0.0180  1.5370  1.0523
    2SAPS   H3S  173   0.916   5.236  10.560  0.3563 -0.7808  0.5660
    2SAPS   C24  174   0.892   5.014  10.511 -0.4139  0.3404 -0.1258
    2SAPS   H4R  175   0.830   4.928  10.546 -0.7777  0.1608 -1.1549
    2SAPS   H4S  176   1.001   4.999  10.527 -0.5529  0.6613  1.2192
    2SAPS   C25  177   0.868   5.036  10.364  0.0565 -0.1436 -0.0782
    2SAPS   H5R  178   0.827   5.134  10.336  0.7060 -0.6591 -3.2641
    2SAPS   C26  179   0.897   4.952  10.268  0.0469  0.3465  0.3718
    2SAPS   H6R  180   0.878   4.977  10.163  0.7829  0.7928  0.3375
    2SAPS   C27  181   0.966   4.818  10.297  0.0605 -0.6849 -0.4171
    2SAPS   H7R  182   1.055   4.825  10.362  1.4320  0.0087 -2.2626
    2SAPS   H7S  183   1.012   4.783  10.202  1.6047  0.6922 -0.2272
    2SAPS   C28  184   0.889   4.705  10.361  0.5829 -0.0145  1.1659
    2SAPS   H8R  185   0.891   4.693  10.470 -0.8251  0.5795  1.2809
    2SAPS   C29  186   0.822   4.619  10.280  0.2869 -0.6049  0.0934
    2SAPS   H9R  187   0.778   4.531  10.329 -1.2512  0.6356  1.0311
    2SAPS  C210  188   0.810   4.622  10.126  0.5304  0.1879 -0.4229
    2SAPS  H10R  189   0.840   4.723  10.092  1.7777  0.3711  1.0757
    2SAPS  H10S  190   0.705   4.620  10.091  0.9083  1.1619 -1.6668
    2SAPS  C211  191   0.876   4.512  10.043 -0.3386 -0.0220  0.3466
    2SAPS  H11R  192   0.917   4.437  10.112  0.7151  0.1333 -0.0906
    2SAPS  C212  193   0.897   4.508   9.909 -0.3577 -0.1290 -0.5451
    2SAPS  H12R  194   0.952   4.427   9.861 -0.0797 -0.5305  0.4216
    2SAPS  C213  195   0.855   4.618   9.811  0.3501  0.3091 -0.5988
    2SAPS  H13R  196   0.814   4.700   9.875  0.8729 -0.8125  1.2682
    2SAPS  H13S  197   0.769   4.580   9.752 -0.0782  0.9877 -0.4307
    2SAPS  C214  198   0.958   4.684   9.727  0.2721 -0.5955  0.0568
    2SAPS  H14R  199   1.005   4.780   9.755  0.8979 -0.4762 -1.3154
    2SAPS  C215  200   1.002   4.636   9.612  0.6086  0.5386 -0.1867
    2SAPS  H15R  201   1.080   4.678   9.547  0.1293 -0.4720 -1.4610
    2SAPS  C216  202   0.950   4.506   9.548  0.4480 -0.7719 -0.1176
    2SAPS  H16R  203   0.847   4.486   9.585  0.1658  2.5757  1.2873
    2SAPS  H16S  204   1.015   4.421   9.577  0.8410 -1.3196 -2.4487
    2SAPS  C217  205   0.933   4.527   9.402 -0.3308  0.1227  0.3630
    2SAPS  H17R  206   0.857   4.605   9.378 -1.5632 -1.1642 -0.0609
    2SAPS  H17S  207   0.899   4.433   9.355 -0.3485  0.9787 -1.4092
    2SAPS  C218  208   1.057   4.560   9.315  0.0097 -0.1713 -0.2088
    2SAPS  H18R  209   1.136   4.495   9.356  0.5566  0.8586  0.4205
    2SAPS  H18S  210   1.089   4.667   9.324 -1.7762  0.5350 -1.5181
    2SAPS  C219  211   1.030   4.545   9.176  0.2756  0.0169  0.2360
    2SAPS  H19R  212   0.962   4.626   9.142 -0.3415 -0.9794 -0.9842
    2SAPS  H19S  213   0.983   4.445   9.164  2.5961 -1.1116  0.0389
    2SAPS  C220  214   1.155   4.557   9.092  0.4915  0.4636 -0.1693
    2SAPS  H20R  215   1.140   4.493   9.002 -3.2626 -1.1633  1.4291
    2SAPS  H20S  216   1.233   4.504   9.150 -4.3243 -3.6264  3.4161
    2SAPS  H20T  217   1.186   4.656   9.051  0.2742  1.6735  2.3800
    2SAPS   C33  218   0.332   4.745  10.255 -0.2541 -0.2405 -0.3232
    2SAPS   H3X  219   0.266   4.803  10.187  0.6514  1.0171 -0.1680
    2SAPS   H3Y  220   0.259   4.683  10.312 -0.1896 -0.0573 -0.0390
    2SAPS   C34  221   0.389   4.647  10.163 -0.3168 -0.0456  0.1245
    2SAPS   H4X  222   0.465   4.588  10.219 -1.8036  0.7246  3.2181
    2SAPS   H4Y  223   0.445   4.707  10.088 -0.6627  0.3679  0.1948
    2SAPS   C35  224   0.293   4.552  10.095  0.0749 -0.6221  0.1122
    2SAPS   H5X  225   0.219   4.616  10.042  1.5141 -0.8631 -2.3637
    2SAPS   H5Y  226   0.260   4.484  10.176 -0.3352 -0.6697 -0.0955
    2SAPS   C36  227   0.363   4.475   9.981  0.3781  0.5421  0.1259
    2SAPS   H6X  228   0.298   4.388   9.955  1.6666  0.1809 -2.1015
    2SAPS   H6Y  229   0.464   4.444  10.015  0.1882  1.1201  1.2593
    2SAPS   C37  230   0.379   4.567   9.857  0.7098  0.9536 -0.3703
    2SAPS   H7X  231   0.457   4.643   9.878  0.8588  1.1145 -1.4574
    2SAPS   H7Y  232   0.289   4.617   9.816 -0.6376 -1.5631 -0.7247
    2SAPS   C38  233   0.439   4.487   9.738 -0.0774  0.0049 -0.5162
    2SAPS   H8X  234   0.367   4.407   9.709  0.5844 -0.4679 -0.8810
    2SAPS   H8Y  235   0.538   4.448   9.770  1.4772  2.5723 -1.8121
    2SAPS   C39  236   0.464   4.555   9.598 -0.3611 -0.1401 -0.5016
    2SAPS   H9X  237   0.532   4.641   9.618  0.4240 -0.7141 -0.6234
    2SAPS   H9Y  238   0.372   4.596   9.551 -0.6125  1.0424  0.9783
    2SAPS  C310  239   0.521   4.456   9.495  0.1707 -0.2103 -0.2615
    2SAPS  H10X  240   0.444   4.377   9.486 -0.5331  0.4238  0.0854
    2SAPS  H10Y  241   0.610   4.414   9.545 -1.0477  0.4931  2.7045
    2SAPS  C311  242   0.550   4.512   9.353 -0.0557 -0.2842  0.5734
    2SAPS  H11X  243   0.630   4.588   9.363 -1.2208  0.8791  1.3204
    2SAPS  H11Y  244   0.458   4.562   9.315  0.4694  0.4580  0.2545
    2SAPS  C312  245   0.611   4.410   9.256  0.2819  0.2757 -0.8141
    2SAPS  H12X  246   0.544   4.321   9.267  2.9491 -1.5650  2.1863
    2SAPS  H12Y  247   0.710   4.381   9.296 -0.5218 -0.2118  0.9765
    2SAPS  C313  248   0.618   4.461   9.116  0.3610  0.4484  0.0955
    2SAPS  H13X  249   0.678   4.554   9.112 -0.5732  1.0306 -0.9274
    2SAPS  H13Y  250   0.520   4.498   9.081  1.7068  1.4309 -2.9556
    2SAPS  C314  251   0.679   4.362   9.022 -0.4806  0.4758  0.0239
    2SAPS  H14X  252   0.627   4.264   9.026  1.9941 -0.8874  1.6496
    2SAPS  H14Y  253   0.780   4.331   9.056 -1.6771 -2.5534  1.2241
    2SAPS  C315  254   0.677   4.411   8.877 -0.0007  0.3687 -0.3066
    2SAPS  H15X  255   0.658   4.521   8.876  0.6763  0.4880 -1.3444
    2SAPS  H15Y  256   0.598   4.363   8.816 -0.3218 -1.5440  1.5225
    2SAPS  C316  257   0.811   4.384   8.811 -0.4939  0.7658  0.2768
    2SAPS  H16X  258   0.901   4.392   8.876  0.1177  0.5020 -0.5147
    2SAPS  H16Y  259   0.830   4.462   8.733  4.4829 -0.5944 -0.2607
    2SAPS  C317  260   0.821   4.258   8.725  0.4804 -0.3538 -0.1728
    2SAPS  H17X  261   0.759   4.276   8.635  1.9203 -0.7268 -1.2674
    2SAPS  H17Y  262   0.782   4.163   8.767 -1.1151 -0.6166 -2.1428
    2SAPS  C318  263   0.959   4.242   8.674  0.6148  0.3866 -0.1001
    2SAPS  H18X  264   0.956   4.150   8.612 -1.8441 -0.1135  0.6789
    2SAPS  H18Y  265   1.033   4.233   8.757 -0.1417  0.8975  0.6459
    2SAPS  H18Z  266   0.983   4.324   8.604 -2.9594  1.3674 -0.3710
    3SAPS     N  267   1.307   4.048  10.950  0.3648  0.7911  0.6783
    3SAPS   HN1  268   1.235   4.121  10.965  1.7350  1.9536  1.8772
    3SAPS   HN2  269   1.348   4.053  10.854  2.7402 -0.3574  1.5330
    3SAPS   HN3  270   1.267   3.954  10.971  0.3919  0.4558 -0.6836
    3SAPS   C12  271   1.421   4.090  11.037  0.1258 -0.0245  0.1636
    3SAPS  H12A  272   1.448   4.191  11.010  0.1980 -0.4650 -1.5142
    3SAPS   C13  273   1.385   4.094  11.192 -0.9001  0.1593 -0.1234
    3SAPS  O13A  274   1.270   4.099  11.235  0.4286  0.3436  0.1483
    3SAPS  O13B  275   1.487   4.135  11.259  0.1693  0.8425  0.0599
    3SAPS   C11  276   1.544   3.992  11.017 -0.1406  0.1014 -0.3974
    3SAPS  H11A  277   1.499   3.895  11.047  0.8641 -0.2602 -0.0293
    3SAPS  H11B  278   1.621   4.033  11.086 -0.5000 -0.0266  0.0804
    3SAPS     P  279   1.736   3.944  10.854  0.1258 -0.0775  0.7582
    3SAPS   O13  280   1.819   4.067  10.858  0.1798 -0.3751  0.3498
    3SAPS   O14  281   1.773   3.829  10.931 -0.3446 -0.3776  0.2008
    3SAPS   O12  282   1.584   3.985  10.881 -0.5122  0.0176 -0.1119
    3SAPS   O11  283   1.733   3.904  10.696  0.8166  0.0338 -0.7082
    3SAPS    C1  284   1.643   3.963  10.601 -0.4474 -1.0116  0.2409
    3SAPS    HA  285   1.543   3.917  10.614 -1.3823  0.9107  0.2513
    3SAPS    HB  286   1.643   4.074  10.612  0.4805 -0.8764 -0.9089
    3SAPS    C2  287   1.688   3.912  10.458 -0.4511  0.3163  0.1835
    3SAPS    HS  288   1.712   3.804  10.463  1.4748  0.6993 -0.0397
    3SAPS   O21  289   1.806   3.975  10.412 -0.7736  0.1930 -0.3188
    3SAPS   C21  290   1.927   3.928  10.444 -0.0892 -0.1333 -0.1505
    3SAPS   O22  291   1.955   3.833  10.518  0.1929  0.2609  0.2214
    3SAPS   C22  292   2.036   4.020  10.383 -0.5061  0.4932 -0.2569
    3SAPS   H2R  293   1.983   4.111  10.346  0.1817  0.6671 -0.8222
    3SAPS   H2S  294   2.094   4.064  10.468 -0.4502 -0.5071  0.2404
    3SAPS    C3  295   1.565   3.943  10.361 -0.6962  0.3087 -0.6478
    3SAPS    HX  296   1.561   4.054  10.372  4.0771  0.8641 -1.8431
    3SAPS    HY  297   1.471   3.896  10.395 -0.8825 -0.4026 -2.0802
    3SAPS   O31  298   1.582   3.898  10.218  0.5385  0.4129 -0.1374
    3SAPS   C31  299   1.477   3.927  10.147 -0.1646  0.3640  0.3996
    3SAPS   O32  300   1.372   3.976  10.192  0.0504  0.6861 -0.3719
    3SAPS   C32  301   1.482   3.868  10.005 -0.4400  0.1262 -0.2711
    3SAPS   H2X  302   1.415   3.780   9.999  1.2018 -1.0420 -2.3542
    3SAPS   H2Y  303   1.581   3.820   9.990 -1.0142 -1.2461  0.1681
    3SAPS   C23  304   2.115   3.942  10.269  0.2438 -0.0857 -0.5816
    3SAPS   H3R  305   2.182   3.863  10.310 -0.5029  0.8760  2.7652
    3SAPS   H3S  306   2.181   4.016  10.220  2.2544 -1.9442 -0.8313
    3SAPS   C24  307   2.027   3.876  10.164 -0.0699  0.3582  0.9007
    3SAPS   H4R  308   1.975   3.793  10.216  2.2964 -0.8037  1.5525
    3SAPS   H4S  309   2.091   3.833  10.084  1.2043  2.4090  0.7412
    3SAPS   C25  310   1.924   3.961  10.092  0.0721 -0.0268 -0.2794
    3SAPS   H5R  311   1.848   4.008  10.156  0.2291 -0.4016  0.1910
    3SAPS   C26  312   1.905   3.977   9.956  0.6356  0.4081 -0.4382
    3SAPS   H6R  313   1.827   4.049   9.926  1.1696  0.7027 -1.1521
    3SAPS   C27  314   1.984   3.903   9.846  0.7993  0.0196  0.0864
    3SAPS   H7R  315   1.984   3.793   9.859 -1.4985 -0.3990 -2.6070
    3SAPS   H7S  316   2.090   3.923   9.873  0.2480  0.6720  1.9586
    3SAPS   C28  317   1.937   3.918   9.701  0.2040 -0.9641  0.0187
    3SAPS   H8R  318   1.851   3.983   9.679  0.8111  0.3291  1.3116
    3SAPS   C29  319   1.990   3.846   9.599 -0.6620  0.1811 -0.0895
    3SAPS   H9R  320   1.954   3.853   9.496  1.3466  1.1586 -0.7671
    3SAPS  C210  321   2.093   3.738   9.615  0.0705 -0.0130 -0.4514
    3SAPS  H10R  322   2.154   3.750   9.708  0.0520 -0.7163 -0.3465
    3SAPS  H10S  323   2.172   3.753   9.538 -1.8335  1.1025 -2.2824
    3SAPS  C211  324   2.050   3.594   9.615  0.2837 -0.0381 -0.2372
    3SAPS  H11R  325   2.021   3.554   9.713  0.9394  1.8643  0.8018
    3SAPS  C212  326   2.048   3.518   9.502  0.0992 -0.1128 -0.3485
    3SAPS  H12R  327   2.015   3.413   9.506  0.9925 -0.3727  2.3658
    3SAPS  C213  328   2.104   3.561   9.366 -0.1138 -0.1827  0.5715
    3SAPS  H13R  329   2.112   3.467   9.308 -0.5877  0.1164  0.0128
    3SAPS  H13S  330   2.206   3.606   9.368  0.2453 -0.6435 -2.5349
    3SAPS  C214  331   2.019   3.661   9.287  1.0518 -0.0394  0.0681
    3SAPS  H14R  332   1.910   3.655   9.302  1.1602  1.5764  1.8364
    3SAPS  C215  333   2.059   3.765   9.215  0.0623  0.0230 -0.0337
    3SAPS  H15R  334   1.978   3.827   9.175 -0.0649 -0.4373 -0.4995
    3SAPS  C216  335   2.203   3.815   9.204  0.3356 -0.0892  0.4851
    3SAPS  H16R  336   2.276   3.781   9.281  1.6924  0.2073 -0.6424
    3SAPS  H16S  337   2.195   3.925   9.220 -4.2053 -0.2016  0.3704
    3SAPS  C217  338   2.253   3.806   9.057 -0.0318 -0.1263  0.2875
    3SAPS  H17R  339   2.229   3.711   9.004 -1.6009  0.8434 -0.8181
    3SAPS  H17S  340   2.362   3.822   9.061  0.4371 -2.6157 -0.4690
    3SAPS  C218  341   2.208   3.931   8.974 -0.0879 -0.0972  0.1385
    3SAPS  H18R  342   2.255   4.019   9.024 -0.2678 -0.4167  0.8877
    3SAPS  H18S  343   2.098   3.947   8.972  0.1526  2.2023  1.2530
    3SAPS  C219  344   2.252   3.933   8.827  0.4116 -0.4274  0.3482
    3SAPS  H19R  345   2.200   4.024   8.788  2.4361  0.4132 -0.5529
    3SAPS  H19S  346   2.218   3.840   8.777 -2.6384  0.6815  0.1232
    3SAPS  C220  347   2.404   3.956   8.809  0.6751  0.0464 -1.0124
    3SAPS  H20R  348   2.426   3.952   8.700  2.0137 -0.4374 -0.7340
    3SAPS  H20S  349   2.456   3.873   8.860 -0.1569 -1.2032 -2.1384
    3SAPS  H20T  350   2.424   4.060   8.845 -0.6547  0.2292 -0.7479
    3SAPS   C33  351   1.456   3.983   9.902 -0.4712  0.2602 -0.0958
    3SAPS   H3X  352   1.505   4.072   9.946  1.7548 -0.6791 -0.5297
    3SAPS   H3Y  353   1.350   4.018   9.900  0.1311  2.1237 -1.1700
    3SAPS   C34  354   1.503   3.934   9.766 -0.3385 -0.1252 -0.2843
    3SAPS   H4X  355   1.461   3.837   9.732 -0.1798 -0.8676  1.5671
    3SAPS   H4Y  356   1.613   3.917   9.771 -0.5944 -1.7517  0.6958
    3SAPS   C35  357   1.494   4.041   9.662 -0.1829  0.0903 -0.0341
    3SAPS   H5X  358   1.528   4.134   9.713  0.7756 -0.0808 -0.3298
    3SAPS   H5Y  359   1.387   4.055   9.636  0.0600  0.1885 -1.0242
    3SAPS   C36  360   1.571   4.022   9.529 -0.0606  0.0637  0.7204
    3SAPS   H6X  361   1.674   3.992   9.556  1.3405  2.7578 -1.1873
    3SAPS   H6Y  362   1.570   4.116   9.470 -0.5222 -0.4618 -0.1413
    3SAPS   C37  363   1.513   3.908   9.452 -0.8048  0.4299 -1.0155
    3SAPS   H7X  364   1.404   3.919   9.433 -1.0156  0.0299 -0.1143
    3SAPS   H7Y  365   1.530   3.817   9.513  1.6808  1.0602 -0.6547
    3SAPS   C38  366   1.584   3.898   9.321  0.3588  0.4667  0.1315
    3SAPS   H8X  367   1.688   3.869   9.347  0.9292  1.4248 -0.9767
    3SAPS   H8Y  368   1.576   3.995   9.268 -0.0358  1.0589  1.2465
    3SAPS   C39  369   1.528   3.801   9.217  1.0443 -0.3501 -0.6547
    3SAPS   H9X  370   1.436   3.850   9.178  1.7746  1.1695 -0.5459
    3SAPS   H9Y  371   1.506   3.703   9.263  0.8941  0.4757  1.1234
    3SAPS  C310  372   1.619   3.779   9.099 -0.7896  0.4248 -0.5367
    3SAPS  H10X  373   1.594   3.686   9.045  1.2590 -0.5410  0.0829
    3SAPS  H10Y  374   1.722   3.764   9.139 -0.8910 -1.8312 -0.9995
    3SAPS  C311  375   1.639   3.891   8.998  0.1864 -0.3157 -0.5973
    3SAPS  H11X  376   1.650   3.984   9.058 -0.6744  0.7481 -2.0161
    3SAPS  H11Y  377   1.539   3.900   8.951 -1.4998 -0.1980  2.7445
    3SAPS  C312  378   1.734   3.871   8.883 -0.4169 -0.0801  0.1704
    3SAPS  H12X  379   1.838   3.877   8.922 -0.1461 -2.6646  0.0745
    3SAPS  H12Y  380   1.723   3.957   8.815 -1.8581 -1.3276 -1.2570
    3SAPS  C313  381   1.733   3.749   8.795 -0.2609  0.1945 -0.8357
    3SAPS  H13X  382   1.636   3.744   8.740 -0.8628  0.7228  0.1424
    3SAPS  H13Y  383   1.741   3.660   8.860 -2.2490 -0.8797 -1.9473
    3SAPS  C314  384   1.846   3.760   8.694  0.1559 -0.0097  0.1965
    3SAPS  H14X  385   1.924   3.829   8.732  1.1531 -0.9989 -0.0120
    3SAPS  H14Y  386   1.808   3.806   8.600 -2.1484  0.8110  1.4504
    3SAPS  C315  387   1.915   3.627   8.668  0.3607  0.0920  0.4487
    3SAPS  H15X  388   1.855   3.555   8.608  2.2555 -0.2168 -1.1855
    3SAPS  H15Y  389   1.941   3.603   8.774  3.2792  0.4568 -0.0886
    3SAPS  C316  390   2.048   3.624   8.589 -0.2560 -0.0131 -0.5641
    3SAPS  H16X  391   2.106   3.716   8.611  2.1063 -1.2398 -1.3108
    3SAPS  H16Y  392   2.027   3.648   8.483  0.8332 -1.0194 -1.0254
    3SAPS  C317  393   2.122   3.489   8.596  0.2193  0.3836  0.0508
    3SAPS  H17X  394   2.055   3.405   8.567 -0.8522  1.2877 -0.1988
    3SAPS  H17Y  395   2.143   3.466   8.703  1.7609  2.8031  0.3312
    3SAPS  C318  396   2.255   3.486   8.517 -0.0170 -0.4317 -0.0999
    3SAPS  H18X  397   2.324   3.413   8.565 -0.6803 -0.4354  0.8804
    3SAPS  H18Y  398   2.312   3.580   8.527 -1.3895  0.4531 -0.2978
    3SAPS  H18Z  399   2.243   3.443   8.415  0.6016  1.0168 -0.8059
    4SAPS     N  400   2.342   6.272  10.986  0.1423  0.6466 -0.1771
    4SAPS   HN1  401   2.378   6.296  11.080 -1.8717  4.3841 -0.1809
    4SAPS   HN2  402   2.381   6.182  10.952  1.5780  1.6289 -1.2278
    4SAPS   HN3  403   2.374   6.337  10.912  0.9157 -0.6696 -1.0254
    4SAPS   C12  404   2.192   6.274  10.978 -0.3495  0.0253 -0.8401
    4SAPS  H12A  405   2.153   6.191  11.036  0.6369  1.7756  2.5941
    4SAPS   C13  406   2.126   6.398  11.040 -0.1143 -0.0918 -0.2020
    4SAPS  O13A  407   2.197   6.478  11.100  0.4851  0.3694  0.0067
    4SAPS  O13B  408   2.007   6.385  11.062  0.5816  0.1332  0.3818
    4SAPS   C11  409   2.146   6.253  10.833  0.2065 -0.1636 -0.1760
    4SAPS  H11A  410   2.173   6.335  10.763  0.2540  0.7536  0.8886
    4SAPS  H11B  411   2.036   6.261  10.848  0.0230  1.8541 -2.0712
    4SAPS     P  412   2.119   6.049  10.671  0.3580  0.1135  0.2454
    4SAPS   O13  413   2.171   5.910  10.672 -0.1839  0.0293  0.4342
    4SAPS   O14  414   1.970   6.060  10.693 -0.2634 -0.0500  0.6343
    4SAPS   O12  415   2.187   6.126  10.783  0.0481  0.0306 -0.8039
    4SAPS   O11  416   2.170   6.125  10.544 -0.3798 -0.1106  0.3358
    4SAPS    C1  417   2.317   6.119  10.527  0.6806  0.5956  0.1228
    4SAPS    HA  418   2.358   6.221  10.543  2.8536 -0.3154  0.7237
    4SAPS    HB  419   2.376   6.052  10.593  1.0914 -2.0835 -2.7612
    4SAPS    C2  420   2.342   6.067  10.379 -0.0310  0.8550  0.8851
    4SAPS    HS  421   2.452   6.071  10.365  0.0650  3.0033  1.9268
    4SAPS   O21  422   2.278   6.159  10.284 -0.2554 -0.1640 -0.1334
    4SAPS   C21  423   2.351   6.265  10.254  0.1190  0.1248  0.4035
    4SAPS   O22  424   2.449   6.302  10.315 -0.8917 -0.7195 -0.0839
    4SAPS   C22  425   2.293   6.338  10.136 -0.7896  0.3613  0.1092
    4SAPS   H2R  426   2.290   6.261  10.056  3.5809 -0.3317  0.3639
    4SAPS   H2S  427   2.188   6.370  10.153 -1.6669 -0.9321 -2.4010
    4SAPS    C3  428   2.276   5.926  10.361  0.4376  0.1276  0.3191
    4SAPS    HX  429   2.171   5.940  10.394  0.6707  0.8449  0.7949
    4SAPS    HY  430   2.317   5.849  10.430 -1.0684 -0.1365  0.9544
    4SAPS   O31  431   2.255   5.877  10.222 -0.4507  0.4213  0.0443
    4SAPS   C31  432   2.368   5.843  10.162 -0.2410 -0.0687  0.6725
    4SAPS   O32  433   2.478   5.869  10.204 -0.1627  0.2894  0.0286
    4SAPS   C32  434   2.348   5.760  10.037  0.8376  0.0580 -1.0006
    4SAPS   H2X  435   2.271   5.803   9.970  1.5374  2.6826 -0.2438
    4SAPS   H2Y  436   2.309   5.661  10.067  0.1779  0.8266  0.8413
    4SAPS   C23  437   2.365   6.471  10.096 -0.3654 -0.8191  0.5860
    4SAPS   H3R  438   2.467   6.452  10.056  0.2524  1.2705  1.0192
    4SAPS   H3S  439   2.372   6.540  10.184 -2.3007 -0.5348  0.5518
    4SAPS   C24  440   2.288   6.554   9.986  0.5721  0.4472  0.2828
    4SAPS   H4R  441   2.327   6.655   9.962 -0.1033  0.8663  0.9013
    4SAPS   H4S  442   2.186   6.563  10.028  0.6847 -2.8699  1.5161
    4SAPS   C25  443   2.287   6.467   9.866  0.2874 -0.2304  0.3356
    4SAPS   H5R  444   2.194   6.411   9.853 -1.5525  2.4014  1.2639
    4SAPS   C26  445   2.377   6.462   9.764  0.9182  0.9972  0.3042
    4SAPS   H6R  446   2.363   6.385   9.687  2.0176  0.0661  1.0003
    4SAPS   C27  447   2.507   6.538   9.774 -0.7450 -0.6056  0.5689
    4SAPS   H7R  448   2.568   6.519   9.865  2.6762  0.1178 -1.3844
    4SAPS   H7S  449   2.483   6.647   9.775  2.0704  0.1629 -1.8376
    4SAPS   C28  450   2.601   6.515   9.657 -0.0010 -0.6922  0.5048
    4SAPS   H8R  451   2.559   6.529   9.557  1.1425 -2.1915 -0.2372
    4SAPS   C29  452   2.735   6.525   9.655 -0.5061  0.3652  0.0505
    4SAPS   H9R  453   2.782   6.521   9.556 -2.0688  0.4703 -0.7280
    4SAPS  C210  454   2.817   6.552   9.779  0.0780  0.1275  0.9652
    4SAPS  H10R  455   2.862   6.451   9.787  0.4885  0.1919 -0.2630
    4SAPS  H10S  456   2.767   6.569   9.877  0.7935  0.0917  1.3410
    4SAPS  C211  457   2.912   6.663   9.753 -0.5188 -0.0067  0.7341
    4SAPS  H11R  458   2.890   6.751   9.816 -3.9190 -0.1382 -0.0886
    4SAPS  C212  459   3.022   6.664   9.679 -0.0463  0.3682  0.2998
    4SAPS  H12R  460   3.082   6.756   9.678  1.1697 -0.3184  2.7706
    4SAPS  C213  461   3.073   6.552   9.596 -0.3251 -0.4370  0.1093
    4SAPS  H13R  462   3.087   6.585   9.491 -1.1635 -0.8579 -0.1440
    4SAPS  H13S  463   3.010   6.460   9.591  0.1547 -0.7724  0.2172
    4SAPS  C214  464   3.209   6.518   9.642  0.1148  0.4357  0.6507
    4SAPS  H14R  465   3.215   6.443   9.722 -0.8067 -0.5048 -0.1311
    4SAPS  C215  466   3.323   6.563   9.609  0.3272  0.3533 -0.5524
    4SAPS  H15R  467   3.405   6.505   9.654  1.7889  2.9222  0.3077
    4SAPS  C216  468   3.361   6.663   9.506 -0.3286 -0.1060 -0.6224
    4SAPS  H16R  469   3.411   6.749   9.554 -1.5331 -0.6560  1.7553
    4SAPS  H16S  470   3.267   6.704   9.463 -1.8343 -0.1715  2.3691
    4SAPS  C217  471   3.450   6.606   9.397 -0.5378 -0.2380  0.0188
    4SAPS  H17R  472   3.412   6.512   9.350  4.1754 -2.7453  0.6119
    4SAPS  H17S  473   3.547   6.574   9.439 -0.6406 -1.1505 -0.4146
    4SAPS  C218  474   3.500   6.713   9.298  0.3196 -0.9476  0.0880
    4SAPS  H18R  475   3.585   6.676   9.237 -0.1731  0.6549 -1.6653
    4SAPS  H18S  476   3.539   6.799   9.356  1.9927  0.6598 -3.1792
    4SAPS  C219  477   3.395   6.762   9.208 -0.2083  0.6474  0.1241
    4SAPS  H19R  478   3.312   6.813   9.261 -1.5418  1.3381 -2.4585
    4SAPS  H19S  479   3.354   6.683   9.142  2.0083  0.6777 -1.4179
    4SAPS  C220  480   3.445   6.876   9.117  0.2844 -0.2421 -0.6940
    4SAPS  H20R  481   3.359   6.905   9.053 -0.0391  1.7269  0.5387
    4SAPS  H20S  482   3.531   6.842   9.056  1.3497  1.1198 -0.0150
    4SAPS  H20T  483   3.488   6.963   9.170  2.7822 -2.0293  0.3865
    4SAPS   C33  484   2.474   5.738   9.950  0.5590 -0.1961  0.4141
    4SAPS   H3X  485   2.555   5.709  10.020 -0.1496 -1.4681  0.7450
    4SAPS   H3Y  486   2.511   5.828   9.896 -0.6349  0.4002  0.5471
    4SAPS   C34  487   2.450   5.623   9.849 -0.7887  0.1741 -0.2635
    4SAPS   H4X  488   2.354   5.639   9.795 -1.0956  1.8049  0.7154
    4SAPS   H4Y  489   2.442   5.533   9.913 -0.0178  2.1078  2.7267
    4SAPS   C35  490   2.562   5.600   9.743 -0.4163 -0.1805 -0.3987
    4SAPS   H5X  491   2.661   5.609   9.792 -0.0421 -1.1933 -0.9541
    4SAPS   H5Y  492   2.558   5.664   9.652 -1.3592  0.2776 -0.0458
    4SAPS   C36  493   2.553   5.461   9.669 -0.1877  1.1278 -0.2533
    4SAPS   H6X  494   2.453   5.440   9.625 -0.6231 -3.4151  2.2771
    4SAPS   H6Y  495   2.556   5.384   9.749 -0.2995 -0.2628 -1.5471
    4SAPS   C37  496   2.668   5.448   9.566 -0.3367 -0.8701 -0.1993
    4SAPS   H7X  497   2.766   5.465   9.617 -0.5927  0.9354 -0.2809
    4SAPS   H7Y  498   2.650   5.533   9.497 -1.8647 -2.0428 -1.3178
    4SAPS   C38  499   2.659   5.313   9.493  0.7844  0.3505 -0.1336
    4SAPS   H8X  500   2.577   5.290   9.422  0.9387 -0.0090 -0.1984
    4SAPS   H8Y  501   2.656   5.245   9.581 -1.1829  2.6177  1.6664
    4SAPS   C39  502   2.791   5.295   9.408 -0.0683  0.3588 -0.7139
    4SAPS   H9X  503   2.803   5.190   9.374 -1.5464 -0.4817  1.1510
    4SAPS   H9Y  504   2.886   5.312   9.464  0.0829 -2.2934  0.0022
    4SAPS  C310  505   2.789   5.403   9.296 -0.8463  0.8086  0.2060
    4SAPS  H10X  506   2.825   5.503   9.330  3.0437  0.3343 -1.9096
    4SAPS  H10Y  507   2.685   5.412   9.259  0.0261  1.7130 -2.3157
    4SAPS  C311  508   2.880   5.353   9.184  0.0435  0.0189  0.0111
    4SAPS  H11X  509   2.871   5.243   9.175 -0.3522  0.0881 -0.4882
    4SAPS  H11Y  510   2.987   5.363   9.214 -0.9528  2.5605  3.2655
    4SAPS  C312  511   2.873   5.431   9.054  0.3662  0.9284 -0.4456
    4SAPS  H12X  512   2.769   5.412   9.020  0.7674  0.5331 -1.4630
    4SAPS  H12Y  513   2.944   5.388   8.980 -0.1846  2.3607 -1.8599
    4SAPS  C313  514   2.903   5.575   9.070  0.0793 -0.0570 -0.0710
    4SAPS  H13X  515   3.007   5.584   9.107  0.3178 -0.2304 -0.6959
    4SAPS  H13Y  516   2.844   5.631   9.146 -0.1160  0.5222 -0.6359
    4SAPS  C314  517   2.904   5.661   8.938  0.2893 -0.5664 -0.5126
    4SAPS  H14X  518   2.932   5.767   8.957  1.3043 -0.2313 -3.3884
    4SAPS  H14Y  519   2.802   5.660   8.894 -0.4142 -0.9670  1.0355
    4SAPS  C315  520   2.999   5.611   8.832  0.4931  0.7909 -0.2841
    4SAPS  H15X  521   2.992   5.501   8.820 -0.5324  0.7036  0.9003
    4SAPS  H15Y  522   3.104   5.611   8.870  0.8853 -0.7346 -1.2915
    4SAPS  C316  523   2.986   5.679   8.696 -0.0543  0.0989 -0.5434
    4SAPS  H16X  524   2.986   5.789   8.712  1.6047 -0.0154  0.4434
    4SAPS  H16Y  525   2.895   5.640   8.645 -0.1561  0.6192 -0.7645
    4SAPS  C317  526   3.104   5.652   8.604 -0.0339  0.8915 -0.2731
    4SAPS  H17X  527   3.137   5.548   8.626 -0.7009  0.8595  0.5984
    4SAPS  H17Y  528   3.182   5.717   8.649 -0.6103  1.5922 -0.2830
    4SAPS  C318  529   3.072   5.677   8.453  0.0893  0.5168  0.2246
    4SAPS  H18X  530   3.158   5.655   8.387 -1.3618  0.6569 -1.7991
    4SAPS  H18Y  531   3.047   5.780   8.423 -0.8802  0.6653  1.4260
    4SAPS  H18Z  532   2.988   5.611   8.421 -0.2211  2.3138 -3.0694
    5SAPS     N  533   1.626   4.595  11.155 -0.5333  0.3096  0.3540
    5SAPS   HN1  534   1.563   4.624  11.078 -0.4934  2.2280  0.9994
    5SAPS   HN2  535   1.719   4.571  11.115  0.0191  1.0776  1.1224
    5SAPS   HN3  536   1.584   4.517  11.209 -0.0419  0.5267  1.0615
    5SAPS   C12  537   1.651   4.710  11.243  0.8576 -0.3635 -0.6105
    5SAPS  H12A  538   1.564   4.732  11.304 -0.0988  0.5172 -2.2440
    5SAPS   C13  539   1.767   4.704  11.341  0.1866 -0.8369  0.2292
    5SAPS  O13A  540   1.848   4.611  11.319  0.0093 -0.3113  0.2816
    5SAPS  O13B  541   1.804   4.808  11.410  0.2620  0.1245 -0.1915
    5SAPS   C11  542   1.654   4.841  11.147  0.0922  0.2467 -0.7439
    5SAPS  H11A  543   1.745   4.840  11.084  0.2246 -0.6766 -0.5467
    5SAPS  H11B  544   1.655   4.936  11.205 -1.9657 -0.3153  0.3336
    5SAPS     P  545   1.464   4.958  11.007  0.5264  0.3624 -0.5919
    5SAPS   O13  546   1.349   4.971  11.096  0.6299  0.5007  0.6370
    5SAPS   O14  547   1.558   5.073  10.990  0.5506  0.0368 -0.0766
    5SAPS   O12  548   1.548   4.836  11.048 -0.2278  0.0678 -0.9541
    5SAPS   O11  549   1.422   4.912  10.852  0.5084  0.2193  0.1690
    5SAPS    C1  550   1.529   4.890  10.764 -0.4042  0.3878  0.3143
    5SAPS    HA  551   1.624   4.877  10.821 -0.0655 -1.9418 -0.6911
    5SAPS    HB  552   1.514   4.798  10.704 -1.6549  1.2236 -0.7045
    5SAPS    C2  553   1.530   5.016  10.663  0.2893  0.0757  0.1970
    5SAPS    HS  554   1.540   5.113  10.716  1.2456 -0.4075  0.9342
    5SAPS   O21  555   1.407   5.012  10.582 -0.1797  0.2484 -0.2031
    5SAPS   C21  556   1.367   5.126  10.534 -0.3357 -0.0059  0.3321
    5SAPS   O22  557   1.406   5.240  10.565 -0.1570 -0.0866  0.4300
    5SAPS   C22  558   1.277   5.095  10.418 -0.9277  0.3926  0.4525
    5SAPS   H2R  559   1.237   4.992  10.430 -2.3729  0.8688 -0.0575
    5SAPS   H2S  560   1.192   5.163  10.441  0.4685  1.7761  1.7838
    5SAPS    C3  561   1.661   5.011  10.568 -0.1612 -0.4016  0.2507
    5SAPS    HX  562   1.665   4.924  10.499 -1.1492  0.2303 -0.6362
    5SAPS    HY  563   1.742   5.008  10.643 -2.5199 -3.4182  2.9768
    5SAPS   O31  564   1.683   5.127  10.486  0.0099 -0.8234  0.1120
    5SAPS   C31  565   1.749   5.236  10.531  0.0895  0.0759  0.5159
    5SAPS   O32  566   1.804   5.239  10.638  0.0263 -0.2347  0.2201
    5SAPS   C32  567   1.730   5.351  10.428  0.2440  0.3009  0.3254
    5SAPS   H2X  568   1.776   5.445  10.465  1.4999 -1.0180  2.2854
    5SAPS   H2Y  569   1.623   5.376  10.411  0.0295 -0.5859  0.3172
    5SAPS   C23  570   1.339   5.128  10.288  1.0605  0.7464  0.5288
    5SAPS   H3R  571   1.386   5.228  10.289 -0.2576  1.4315 -1.3131
    5SAPS   H3S  572   1.250   5.142  10.223  0.9749 -0.6751  0.2942
    5SAPS   C24  573   1.436   5.019  10.239  0.0037  0.3485 -0.1403
    5SAPS   H4R  574   1.520   5.016  10.311  1.0381  0.1576 -1.3260
    5SAPS   H4S  575   1.477   5.045  10.139 -0.1798 -3.1726 -1.2848
    5SAPS   C25  576   1.382   4.876  10.227  0.1209 -0.3972  0.0586
    5SAPS   H5R  577   1.384   4.805  10.312  0.2158 -2.0409 -1.2546
    5SAPS   C26  578   1.322   4.819  10.118 -0.8823  0.4596 -0.2097
    5SAPS   H6R  579   1.321   4.709  10.117  0.1601  0.4189 -2.3056
    5SAPS   C27  580   1.308   4.883   9.980 -0.1051  0.3481 -0.8830
    5SAPS   H7R  581   1.262   4.983   9.992  1.5070  1.1268 -0.8211
    5SAPS   H7S  582   1.232   4.820   9.930  0.2413  1.0899 -2.4078
    5SAPS   C28  583   1.434   4.879   9.901 -0.1220  0.6442  0.1618
    5SAPS   H8R  584   1.525   4.886   9.962 -0.0621 -1.7756  0.4393
    5SAPS   C29  585   1.438   4.867   9.771  0.2790 -0.1391  0.3392
    5SAPS   H9R  586   1.534   4.861   9.719 -0.1802  1.9447 -0.8487
    5SAPS  C210  587   1.328   4.860   9.665 -0.2231 -0.5409 -1.2912
    5SAPS  H10R  588   1.299   4.967   9.651 -0.6835 -0.3837  0.5114
    5SAPS  H10S  589   1.233   4.813   9.700 -0.9494  0.9294 -1.1806
    5SAPS  C211  590   1.367   4.798   9.532 -0.4991 -0.1322 -0.9248
    5SAPS  H11R  591   1.411   4.698   9.544  1.2283  0.5296 -1.4337
    5SAPS  C212  592   1.359   4.860   9.411  0.3321 -0.4089 -0.8249
    5SAPS  H12R  593   1.398   4.802   9.326 -1.2680 -1.9596 -0.5734
    5SAPS  C213  594   1.300   4.989   9.376 -0.7158 -0.7178 -0.3711
    5SAPS  H13R  595   1.214   5.000   9.445 -0.1963  1.6918 -0.0318
    5SAPS  H13S  596   1.246   4.970   9.280 -0.3022 -2.5437 -0.2805
    5SAPS  C214  597   1.396   5.109   9.375  1.2486  0.2056  0.4374
    5SAPS  H14R  598   1.384   5.159   9.473 -1.5140  0.8781 -0.1479
    5SAPS  C215  599   1.494   5.143   9.285  0.5071 -0.3872  0.5136
    5SAPS  H15R  600   1.550   5.236   9.300  0.4594 -0.6093  2.2951
    5SAPS  C216  601   1.520   5.062   9.163 -0.3006  1.1280  0.5053
    5SAPS  H16R  602   1.455   4.974   9.151  3.1998 -1.2824 -4.2373
    5SAPS  H16S  603   1.619   5.012   9.171 -1.3272 -1.1301 -0.3596
    5SAPS  C217  604   1.495   5.141   9.034  0.7649 -0.0175  0.1983
    5SAPS  H17R  605   1.557   5.233   9.037  0.6000  0.1867 -1.7750
    5SAPS  H17S  606   1.391   5.177   9.015  1.0926  0.9229  0.1090
    5SAPS  C218  607   1.535   5.056   8.908  0.2271 -0.6220 -0.3657
    5SAPS  H18R  608   1.645   5.060   8.915  0.1301  0.8851  1.0889
    5SAPS  H18S  609   1.495   4.952   8.909  2.0839 -1.3915 -1.3243
    5SAPS  C219  610   1.509   5.119   8.761  0.0176 -0.3204  0.0267
    5SAPS  H19R  611   1.558   5.059   8.682 -1.4191 -0.0573 -1.0987
    5SAPS  H19S  612   1.562   5.217   8.757 -0.3934  0.0378  2.1580
    5SAPS  C220  613   1.362   5.147   8.728  0.0616 -0.8928  0.2682
    5SAPS  H20R  614   1.360   5.213   8.639 -0.7081 -1.7150 -0.3464
    5SAPS  H20S  615   1.305   5.189   8.814  0.0576 -0.7027  0.1719
    5SAPS  H20T  616   1.312   5.053   8.696  1.7015 -1.5892 -0.3238
    5SAPS   C33  617   1.791   5.308  10.298 -0.6500  0.1030 -0.6691
    5SAPS   H3X  618   1.769   5.389  10.225 -2.7480 -1.0758 -1.4636
    5SAPS   H3Y  619   1.745   5.212  10.264  0.3927 -0.2577 -1.0817
    5SAPS   C34  620   1.943   5.283  10.312  0.6336 -0.2488 -0.4413
    5SAPS   H4X  621   1.970   5.179  10.340  0.6818 -0.6213 -1.8074
    5SAPS   H4Y  622   1.976   5.353  10.392 -2.5582  3.4278 -1.9899
    5SAPS   C35  623   2.027   5.326  10.192 -0.4760  0.6478  0.4352
    5SAPS   H5X  624   2.134   5.322  10.224 -0.4391  0.7913  0.3300
    5SAPS   H5Y  625   2.000   5.425  10.150 -0.4314 -0.3327 -2.1359
    5SAPS   C36  626   1.994   5.227  10.080  0.8867 -0.3767 -0.5234
    5SAPS   H6X  627   1.896   5.252  10.033  0.6312  1.5095  0.8966
    5SAPS   H6Y  628   1.997   5.123  10.117 -1.8829 -0.2303  0.3566
    5SAPS   C37  629   2.091   5.250   9.963 -0.1592  0.1576  0.3801
    5SAPS   H7X  630   2.086   5.166   9.890  0.1000  0.7247 -0.3097
    5SAPS   H7Y  631   2.197   5.259   9.995 -0.0440  0.8189 -0.1741
    5SAPS   C38  632   2.048   5.367   9.874 -0.7796  0.1336 -0.7823
    5SAPS   H8X  633   2.077   5.468   9.910  2.9334 -1.8837  2.6551
    5SAPS   H8Y  634   1.938   5.381   9.870 -0.6901  0.7024 -2.9354
    5SAPS   C39  635   2.109   5.362   9.731  0.4500 -0.3491 -0.2868
    5SAPS   H9X  636   2.090   5.261   9.688 -0.0171 -1.2912  1.9934
    5SAPS   H9Y  637   2.220   5.370   9.734  0.5650 -1.8912  0.3315
    5SAPS  C310  638   2.045   5.484   9.652 -0.1549 -0.5442 -0.0953
    5SAPS  H10X  639   2.090   5.582   9.680  0.0551 -0.7258  0.2106
    5SAPS  H10Y  640   1.938   5.493   9.681 -0.0752  0.5749 -0.0972
    5SAPS  C311  641   2.065   5.471   9.501 -0.2908 -0.4596  0.6049
    5SAPS  H11X  642   2.005   5.556   9.461  0.1023 -0.4725 -0.0242
    5SAPS  H11Y  643   2.007   5.382   9.467 -0.8654  0.2213 -0.2401
    5SAPS  C312  644   2.205   5.471   9.451  0.0898  0.3693  0.8960
    5SAPS  H12X  645   2.252   5.377   9.485 -0.2881  0.0938  0.6588
    5SAPS  H12Y  646   2.262   5.560   9.486 -0.9948  2.0397 -1.3212
    5SAPS  C313  647   2.214   5.477   9.300 -0.6604 -0.1530  0.3864
    5SAPS  H13X  648   2.165   5.574   9.275 -0.5605 -0.5805 -1.6362
    5SAPS  H13Y  649   2.149   5.397   9.258 -0.7524 -1.2730  2.5342
    5SAPS  C314  650   2.360   5.473   9.243 -0.7500 -0.0576  0.4208
    5SAPS  H14X  651   2.393   5.367   9.240 -1.8497 -0.4587  1.5309
    5SAPS  H14Y  652   2.425   5.537   9.306  0.6983  0.1106 -1.1620
    5SAPS  C315  653   2.372   5.531   9.100 -0.2474  0.2998 -0.2537
    5SAPS  H15X  654   2.380   5.642   9.106  0.0824  0.2255  0.8739
    5SAPS  H15Y  655   2.274   5.519   9.049  1.1036  0.4944 -3.1176
    5SAPS  C316  656   2.472   5.453   9.021 -0.1638  0.0564  0.0444
    5SAPS  H16X  657   2.458   5.344   9.039 -2.0705  0.4025  0.7992
    5SAPS  H16Y  658   2.573   5.471   9.065 -0.7243 -0.7525  1.7523
    5SAPS  C317  659   2.463   5.482   8.868 -0.8475  0.5922 -0.2034
    5SAPS  H17X  660   2.469   5.592   8.851 -0.3762  0.8437  1.3999
    5SAPS  H17Y  661   2.358   5.463   8.838 -0.6519 -0.8156 -0.0493
    5SAPS  C318  662   2.561   5.406   8.773 -0.0723 -0.0220 -0.1415
    5SAPS  H18X  663   2.526   5.416   8.668 -0.5992 -1.8835 -0.1798
    5SAPS  H18Y  664   2.564   5.299   8.803  3.6921  0.5992  2.2618
    5SAPS  H18Z  665   2.664   5.446   8.777 -0.2719  0.3833  1.4896
    6SAPS     N  666   5.098   4.047  10.976  0.0295  0.7865 -0.4641
    6SAPS   HN1  667   5.198   4.018  10.972  0.4576  1.9947  0.7114
    6SAPS   HN2  668   5.090   4.139  10.929  0.5657 -0.8013 -3.9777
    6SAPS   HN3  669   5.053   4.051  11.070  0.8451  1.4829 -0.0918
    6SAPS   C12  670   5.008   3.964  10.900 -0.5954  0.5057 -0.3486
    6SAPS  H12A  671   5.058   3.873  10.872 -3.9372 -1.6412  0.0658
    6SAPS   C13  672   4.878   3.925  10.973 -0.1396 -0.1052 -0.2766
    6SAPS  O13A  673   4.867   3.952  11.096  0.0939  0.3909 -0.2103
    6SAPS  O13B  674   4.799   3.851  10.912 -0.9332  0.8502  0.3905
    6SAPS   C11  675   4.977   4.032  10.765 -0.5435 -0.2035 -0.7775
    6SAPS  H11A  676   4.893   4.103  10.782 -2.5020 -2.5322 -0.1289
    6SAPS  H11B  677   4.943   3.954  10.693 -0.0016  0.0830 -1.3538
    6SAPS     P  678   5.066   4.151  10.558 -0.1250 -0.1652 -0.4705
    6SAPS   O13  679   4.924   4.196  10.542 -0.1354  0.4085 -0.7100
    6SAPS   O14  680   5.176   4.249  10.523  0.3238 -0.3313  0.4107
    6SAPS   O12  681   5.086   4.105  10.708 -0.1400  0.0758 -0.1680
    6SAPS   O11  682   5.092   4.015  10.492  0.2839 -0.1413 -0.0642
    6SAPS    C1  683   5.214   3.946  10.485 -0.0917  0.2727  0.7960
    6SAPS    HA  684   5.279   3.962  10.574  1.7745  0.8885 -0.6115
    6SAPS    HB  685   5.190   3.838  10.477 -3.1219  0.9590 -0.8971
    6SAPS    C2  686   5.298   3.991  10.366 -0.7417  0.1546  0.3230
    6SAPS    HS  687   5.323   4.098  10.380  1.2375  0.2885 -3.0741
    6SAPS   O21  688   5.222   3.969  10.243  0.3227  0.3853 -0.0960
    6SAPS   C21  689   5.275   4.029  10.135 -0.0134 -0.3034 -0.5363
    6SAPS   O22  690   5.374   4.099  10.134 -0.2555 -0.2664  0.7477
    6SAPS   C22  691   5.172   4.015  10.027 -0.1743 -0.2150  0.3381
    6SAPS   H2R  692   5.199   3.924   9.969  0.1327 -0.1818  0.4287
    6SAPS   H2S  693   5.070   4.006  10.070  0.5176 -3.0651  1.5760
    6SAPS    C3  694   5.435   3.918  10.359  0.2234  0.0654 -0.2788
    6SAPS    HX  695   5.487   3.942  10.455 -0.2937  0.4838 -0.0979
    6SAPS    HY  696   5.498   3.969  10.283 -0.3342 -0.1019 -0.8579
    6SAPS   O31  697   5.422   3.778  10.339 -0.1954  0.4553  0.0714
    6SAPS   C31  698   5.442   3.733  10.214  0.4251 -0.1972  0.0696
    6SAPS   O32  699   5.466   3.809  10.120 -0.4798  0.0764  0.1773
    6SAPS   C32  700   5.419   3.588  10.218  0.3892  0.6794 -0.4667
    6SAPS   H2X  701   5.313   3.573  10.247  0.4363  0.0555 -0.6010
    6SAPS   H2Y  702   5.483   3.539  10.294  0.7169  1.1267 -0.4473
    6SAPS   C23  703   5.180   4.129   9.921  0.1988 -0.1662 -0.0644
    6SAPS   H3R  704   5.121   4.088   9.837 -0.5619  2.1918 -0.7621
    6SAPS   H3S  705   5.287   4.132   9.889  0.1257  0.1246 -0.2874
    6SAPS   C24  706   5.137   4.268   9.966 -0.2323 -0.3430 -0.0183
    6SAPS   H4R  707   5.155   4.335   9.880 -0.8620  1.3511  1.1334
    6SAPS   H4S  708   5.206   4.295  10.049 -1.2710  0.8355  0.4743
    6SAPS   C25  709   4.998   4.287  10.011  0.4733 -0.1262 -0.2456
    6SAPS   H5R  710   4.964   4.240  10.104  0.3857  0.2389 -0.0873
    6SAPS   C26  711   4.908   4.352   9.934  0.9635 -0.4774 -0.2120
    6SAPS   H6R  712   4.807   4.367   9.972 -0.0560 -0.7792 -2.5823
    6SAPS   C27  713   4.937   4.413   9.796 -0.4974 -0.2772 -0.1987
    6SAPS   H7R  714   4.986   4.338   9.730  1.2078  1.2175 -0.7230
    6SAPS   H7S  715   5.011   4.495   9.805  0.5839 -1.2393 -0.0707
    6SAPS   C28  716   4.821   4.482   9.721  0.3417  0.2096  0.4441
    6SAPS   H8R  717   4.803   4.586   9.752  0.5440  0.3150  0.2092
    6SAPS   C29  718   4.740   4.438   9.624  0.5646 -0.3143 -0.0180
    6SAPS   H9R  719   4.666   4.511   9.585 -1.8115 -1.6310  1.7649
    6SAPS  C210  720   4.753   4.296   9.567  0.0559 -0.1568  0.0547
    6SAPS  H10R  721   4.850   4.248   9.591  0.0881 -1.7603 -2.7791
    6SAPS  H10S  722   4.757   4.303   9.456 -1.4532 -1.3698 -0.1122
    6SAPS  C211  723   4.645   4.198   9.611  0.3706 -0.4592 -0.1339
    6SAPS  H11R  724   4.585   4.237   9.696  1.1243 -1.0921  0.7101
    6SAPS  C212  725   4.615   4.082   9.544  0.1021 -0.3867 -0.0593
    6SAPS  H12R  726   4.533   4.018   9.580 -1.1917  0.2743 -1.6803
    6SAPS  C213  727   4.684   4.033   9.419  0.5884 -0.1574  0.2873
    6SAPS  H13R  728   4.780   4.086   9.400 -0.4186  1.0013 -1.9581
    6SAPS  H13S  729   4.616   4.047   9.332 -0.4341 -0.0060  1.0956
    6SAPS  C214  730   4.713   3.887   9.435 -0.2679  0.8023 -0.0704
    6SAPS  H14R  731   4.747   3.849   9.532  0.6595 -0.0816 -0.7166
    6SAPS  C215  732   4.727   3.800   9.337 -0.4703 -0.0135  0.4645
    6SAPS  H15R  733   4.733   3.695   9.370 -2.0215 -0.0554  0.6941
    6SAPS  C216  734   4.705   3.830   9.186  0.3608  0.1246 -0.7546
    6SAPS  H16R  735   4.641   3.920   9.175  0.1106  0.6021  3.0426
    6SAPS  H16S  736   4.655   3.743   9.137 -1.7485  0.7375  0.1668
    6SAPS  C217  737   4.830   3.854   9.100 -0.3028  0.0665  0.3419
    6SAPS  H17R  738   4.904   3.778   9.133  2.2808  2.1941 -0.1500
    6SAPS  H17S  739   4.862   3.958   9.122 -0.4854  0.1561  0.1937
    6SAPS  C218  740   4.798   3.833   8.948  0.3087  0.0897 -0.3535
    6SAPS  H18R  741   4.723   3.897   8.898  1.7438 -0.4339 -3.3956
    6SAPS  H18S  742   4.757   3.731   8.933  1.5380 -0.2570 -1.5294
    6SAPS  C219  743   4.923   3.837   8.866 -0.4210 -0.1019  0.2867
    6SAPS  H19R  744   4.998   3.775   8.919  1.2625  1.3895 -0.2748
    6SAPS  H19S  745   4.979   3.933   8.860 -0.7866  0.0699 -4.7148
    6SAPS  C220  746   4.920   3.801   8.716  0.9098 -0.1709 -0.2013
    6SAPS  H20R  747   4.858   3.875   8.663  0.5817  1.9816  2.8904
    6SAPS  H20S  748   4.880   3.699   8.696 -2.3449  0.5667  1.8438
    6SAPS  H20T  749   5.024   3.804   8.678  0.5303 -0.3190 -1.2783
    6SAPS   C33  750   5.435   3.505  10.087  0.3795  0.5492  0.3769
    6SAPS   H3X  751   5.414   3.398  10.110 -1.3728  0.3636 -1.7015
    6SAPS   H3Y  752   5.539   3.510  10.047 -0.1230  1.0956 -0.9347
    6SAPS   C34  753   5.356   3.552   9.965  0.1217  0.3406  0.1059
    6SAPS   H4X  754   5.409   3.633   9.909 -1.3802  1.9374  0.8953
    6SAPS   H4Y  755   5.255   3.586   9.996  0.6567  1.2744  0.9137
    6SAPS   C35  756   5.342   3.442   9.859 -0.2977 -0.2099  0.2275
    6SAPS   H5X  757   5.256   3.461   9.791 -2.0986  0.4960  2.5668
    6SAPS   H5Y  758   5.325   3.346   9.912 -0.1737 -0.7441 -0.6711
    6SAPS   C36  759   5.462   3.412   9.778 -0.6552 -0.8424 -0.7040
    6SAPS   H6X  760   5.535   3.352   9.837 -0.6608 -0.9821 -0.8372
    6SAPS   H6Y  761   5.508   3.509   9.750  0.1008 -0.9788  0.0093
    6SAPS   C37  762   5.445   3.337   9.647 -0.3822 -0.2287  0.7018
    6SAPS   H7X  763   5.345   3.362   9.603 -0.9715 -2.1664  0.8338
    6SAPS   H7Y  764   5.445   3.230   9.675 -1.4881  0.1694  2.4099
    6SAPS   C38  765   5.558   3.369   9.550 -0.3130  0.2247  0.4392
    6SAPS   H8X  766   5.662   3.333   9.568  0.8558  1.3999 -3.0952
    6SAPS   H8Y  767   5.569   3.478   9.534  1.5544 -0.0564 -0.6049
    6SAPS   C39  768   5.531   3.307   9.411  0.1294 -0.7460 -0.1201
    6SAPS   H9X  769   5.435   3.351   9.376  0.2452  0.3015  0.8210
    6SAPS   H9Y  770   5.530   3.196   9.406 -3.2030 -1.0500  2.8911
    6SAPS  C310  771   5.624   3.350   9.299 -0.0399  0.1365 -0.7442
    6SAPS  H10X  772   5.704   3.273   9.292  1.0528  1.2055 -0.3190
    6SAPS  H10Y  773   5.668   3.444   9.338 -0.1296 -0.2687  0.3614
    6SAPS  C311  774   5.551   3.362   9.163  0.4775  0.3083  0.5031
    6SAPS  H11X  775   5.489   3.455   9.163  0.1848  0.1190 -0.2377
    6SAPS  H11Y  776   5.477   3.280   9.160 -1.2905  1.8255  0.4881
    6SAPS  C312  777   5.653   3.366   9.049 -0.2303  0.0782  0.6858
    6SAPS  H12X  778   5.719   3.277   9.050 -0.1643  0.0815 -0.9874
    6SAPS  H12Y  779   5.717   3.454   9.073 -3.3314  2.2450  1.5589
    6SAPS  C313  780   5.579   3.379   8.920  0.6249  0.3344 -1.0138
    6SAPS  H13X  781   5.505   3.462   8.930 -0.0958 -0.3675 -0.4442
    6SAPS  H13Y  782   5.523   3.286   8.898 -0.2643  1.2641 -2.9138
    6SAPS  C314  783   5.678   3.422   8.806  0.1342  0.4633  0.5129
    6SAPS  H14X  784   5.743   3.506   8.839  1.1258  0.3866 -1.1045
    6SAPS  H14Y  785   5.622   3.449   8.713  1.9509  0.9425 -0.4868
    6SAPS  C315  786   5.774   3.309   8.761 -1.3014 -0.0845 -0.2924
    6SAPS  H15X  787   5.714   3.219   8.738 -0.7419 -0.8907  1.2641
    6SAPS  H15Y  788   5.831   3.282   8.852 -1.4612 -0.1170 -0.2020
    6SAPS  C316  789   5.874   3.333   8.641  0.1601  0.4383 -0.0501
    6SAPS  H16X  790   5.954   3.257   8.639 -0.4968 -0.4845  2.9559
    6SAPS  H16Y  791   5.929   3.427   8.664  1.5423  0.1391 -1.9315
    6SAPS  C317  792   5.804   3.355   8.509  0.1633 -0.3064  0.8297
    6SAPS  H17X  793   5.719   3.426   8.516  0.8415  0.7613 -1.0618
    6SAPS  H17Y  794   5.747   3.264   8.480 -0.5751  0.8440 -1.6135
    6SAPS  C318  795   5.892   3.382   8.387  0.7098  0.4885 -0.0561
    6SAPS  H18X  796   5.835   3.385   8.291 -2.5055 -0.2227  1.6839
    6SAPS  H18Y  797   5.965   3.299   8.383 -2.1783 -2.2196 -1.1594
    6SAPS  H18Z  798   5.944   3.479   8.399 -0.2168  1.1394 -1.0840
    7SAPS     N  799   3.003   0.474  10.758 -0.2583 -1.0383 -0.0897
    7SAPS   HN1  800   2.963   0.380  10.741 -0.5795 -1.2163  1.4601
    7SAPS   HN2  801   2.921   0.537  10.751  0.3620  0.3675  3.2687
    7SAPS   HN3  802   3.074   0.498  10.686 -0.0473  0.0307  0.4540
    7SAPS   C12  803   3.048   0.476  10.901  0.1556 -0.3753  0.6647
    7SAPS  H12A  804   3.075   0.578  10.925  0.0040  0.1784 -1.3814
    7SAPS   C13  805   2.945   0.418  11.002  0.2885  0.0625 -0.2416
    7SAPS  O13A  806   2.836   0.368  10.959  0.2124 -0.4357 -0.5047
    7SAPS  O13B  807   2.980   0.400  11.122 -0.1365 -0.2786  0.7401
    7SAPS   C11  808   3.177   0.390  10.905  0.0866  0.3089 -0.0340
    7SAPS  H11A  809   3.155   0.293  10.855  1.4832 -0.8091  1.4077
    7SAPS  H11B  810   3.206   0.370  11.010  1.3467 -1.1581 -0.6176
    7SAPS     P  811   3.382   0.359  10.748 -0.2533  0.3683 -0.0263
    7SAPS   O13  812   3.455   0.453  10.661  0.7260 -0.0931 -0.0156
    7SAPS   O14  813   3.461   0.264  10.840  0.3202  0.3008  0.0897
    7SAPS   O12  814   3.288   0.450  10.839 -0.0687  0.8233 -0.0147
    7SAPS   O11  815   3.279   0.283  10.649  0.1476 -0.6024 -0.7016
    7SAPS    C1  816   3.314   0.156  10.598  0.6271  0.4214 -0.3237
    7SAPS    HA  817   3.379   0.092  10.661  0.2410 -1.5475 -1.8425
    7SAPS    HB  818   3.224   0.094  10.578  0.2710  1.2625 -1.4030
    7SAPS    C2  819   3.378   0.173  10.456  0.0061  0.0483 -0.7055
    7SAPS    HS  820   3.458   0.249  10.471 -0.6892  0.3080  2.1652
    7SAPS   O21  821   3.283   0.229  10.365 -0.6144 -0.2380 -0.0231
    7SAPS   C21  822   3.328   0.331  10.295 -0.4069 -1.2763  0.7935
    7SAPS   O22  823   3.442   0.387  10.297  0.3406  0.5608 -0.6114
    7SAPS   C22  824   3.212   0.358  10.195  0.1448  0.2611  0.3802
    7SAPS   H2R  825   3.115   0.363  10.249 -0.1037  0.7995 -0.0993
    7SAPS   H2S  826   3.237   0.452  10.140  2.2376 -0.5115 -0.0693
    7SAPS    C3  827   3.434   0.046  10.388  0.4284 -0.1035  0.1447
    7SAPS    HX  828   3.341  -0.010  10.361  0.5551 -0.6008  0.7024
    7SAPS    HY  829   3.493  -0.011  10.463 -0.2767 -0.8116  0.1796
    7SAPS   O31  830   3.522   0.088  10.284  0.4883  0.2004 -0.5416
    7SAPS   C31  831   3.552  -0.020  10.215 -0.4126  0.4285  0.0632
    7SAPS   O32  832   3.509  -0.132  10.239 -0.6338  0.5177  0.6392
    7SAPS   C32  833   3.655   0.014  10.113  0.9813 -0.3106  0.2099
    7SAPS   H2X  834   3.757  -0.009  10.152  0.7757 -0.4469  0.6715
    7SAPS   H2Y  835   3.659   0.125  10.100  0.7153 -0.1729  1.2066
    7SAPS   C23  836   3.200   0.238  10.092  0.0597  0.5941 -0.9464
    7SAPS   H3R  837   3.117   0.242  10.018  0.4394 -0.2396 -1.4350
    7SAPS   H3S  838   3.188   0.148  10.156 -0.4805 -0.2784 -2.2198
    7SAPS   C24  839   3.323   0.213  10.000 -0.8983 -0.1075 -0.4081
    7SAPS   H4R  840   3.406   0.181  10.067 -2.2364 -0.3694  1.2034
    7SAPS   H4S  841   3.368   0.306   9.960 -0.0835  0.5063  1.7709
    7SAPS   C25  842   3.290   0.112   9.892 -0.1641 -0.1851 -0.4183
    7SAPS   H5R  843   3.242   0.016   9.917 -0.8108  0.1396 -0.4092
    7SAPS   C26  844   3.304   0.135   9.766  0.2545 -0.2081 -0.1499
    7SAPS   H6R  845   3.271   0.058   9.695 -1.1825 -0.9266  1.2349
    7SAPS   C27  846   3.359   0.259   9.702 -0.4007 -0.0109 -0.4274
    7SAPS   H7R  847   3.391   0.223   9.601  1.2174 -0.6927  0.2992
    7SAPS   H7S  848   3.452   0.286   9.755 -0.4125 -0.4820 -0.1633
    7SAPS   C28  849   3.275   0.379   9.687  0.2483  0.2190 -0.1411
    7SAPS   H8R  850   3.292   0.454   9.765  2.1891  1.1366 -1.3746
    7SAPS   C29  851   3.193   0.412   9.586  0.1469 -0.1142 -0.1311
    7SAPS   H9R  852   3.132   0.504   9.592  0.6107  0.1147  2.8242
    7SAPS  C210  853   3.160   0.326   9.464  0.4943  0.0034  0.2301
    7SAPS  H10R  854   3.055   0.356   9.444  0.0811  1.4519  3.8528
    7SAPS  H10S  855   3.141   0.224   9.503  3.3121 -0.7075 -0.0013
    7SAPS  C211  856   3.246   0.331   9.334 -0.2290 -0.0925  0.0129
    7SAPS  H11R  857   3.354   0.347   9.352 -0.4018  1.7154 -0.4069
    7SAPS  C212  858   3.207   0.285   9.214 -0.1806 -0.8947  0.1697
    7SAPS  H12R  859   3.274   0.284   9.127  0.9314  2.2865  0.8476
    7SAPS  C213  860   3.065   0.239   9.190 -0.1236  0.0510 -0.8214
    7SAPS  H13R  861   2.999   0.300   9.256  1.0068  0.9252 -0.4656
    7SAPS  H13S  862   3.053   0.136   9.231 -0.2238  0.6185  0.6516
    7SAPS  C214  863   3.024   0.270   9.048  0.3093 -0.3461 -0.6571
    7SAPS  H14R  864   3.032   0.376   9.019 -0.0188 -0.1975 -0.2235
    7SAPS  C215  865   2.996   0.182   8.947 -0.9018 -0.0385 -0.6649
    7SAPS  H15R  866   2.968   0.218   8.847  1.4297 -1.5349 -1.9507
    7SAPS  C216  867   3.002   0.033   8.963 -0.7720 -0.4034  0.1882
    7SAPS  H16R  868   2.898  -0.000   8.945  0.3963 -3.2353 -1.9919
    7SAPS  H16S  869   3.023   0.009   9.069  1.6975  0.9640  0.0766
    7SAPS  C217  870   3.098  -0.036   8.867  0.1768  1.0712 -0.6631
    7SAPS  H17R  871   3.185   0.033   8.858 -0.8182  2.7665  1.8240
    7SAPS  H17S  872   3.055  -0.051   8.766 -1.1712 -1.4907  0.1860
    7SAPS  C218  873   3.129  -0.177   8.931  0.2219 -0.5318 -0.3068
    7SAPS  H18R  874   3.033  -0.232   8.930  0.6135 -1.2403 -1.9057
    7SAPS  H18S  875   3.171  -0.152   9.031 -0.9524 -0.8597  0.2805
    7SAPS  C219  876   3.220  -0.276   8.842  0.7820  0.1725  0.6820
    7SAPS  H19R  877   3.203  -0.380   8.880 -0.0017 -0.3232 -0.9135
    7SAPS  H19S  878   3.328  -0.251   8.848  0.9300 -0.4407  0.7368
    7SAPS  C220  879   3.168  -0.283   8.695 -0.5852  0.2696 -0.5118
    7SAPS  H20R  880   3.199  -0.192   8.638  0.5605 -0.9180 -1.8698
    7SAPS  H20S  881   3.059  -0.302   8.703 -0.2046 -1.2767  1.8144
    7SAPS  H20T  882   3.212  -0.369   8.640 -0.5113 -0.0537  0.0458
    7SAPS   C33  883   3.638  -0.047   9.975 -0.2725 -0.1170 -0.0114
    7SAPS   H3X  884   3.531  -0.048   9.944 -1.0421 -4.0155  2.0862
    7SAPS   H3Y  885   3.651  -0.158   9.977  0.6757 -0.0290 -0.5959
    7SAPS   C34  886   3.724   0.025   9.872  0.1160  0.4228  0.0192
    7SAPS   H4X  887   3.824   0.033   9.920 -0.2152 -0.3347  0.8742
    7SAPS   H4Y  888   3.704   0.132   9.851  3.0697  1.0902  0.1354
    7SAPS   C35  889   3.731  -0.053   9.742  0.2320  0.7202 -0.3402
    7SAPS   H5X  890   3.645  -0.123   9.737  0.6254  0.0413  1.5882
    7SAPS   H5Y  891   3.815  -0.123   9.761 -0.9954 -0.2427  1.9952
    7SAPS   C36  892   3.747   0.040   9.628  0.1259 -0.4726  0.1476
    7SAPS   H6X  893   3.810   0.124   9.663  0.9263 -1.1421  0.3240
    7SAPS   H6Y  894   3.652   0.087   9.596 -0.6321 -0.8141  1.7840
    7SAPS   C37  895   3.818  -0.021   9.512  0.7498  0.1425 -0.0152
    7SAPS   H7X  896   3.757  -0.109   9.483  1.3180  0.5118 -2.5541
    7SAPS   H7Y  897   3.910  -0.063   9.558  0.9388  0.8727  0.2834
    7SAPS   C38  898   3.843   0.062   9.385  0.0578 -0.4527  0.1927
    7SAPS   H8X  899   3.891   0.152   9.430 -0.2632 -1.1633  2.0597
    7SAPS   H8Y  900   3.742   0.095   9.350 -0.1716  0.3146  1.4683
    7SAPS   C39  901   3.939   0.003   9.279  0.8450  0.0313  0.4805
    7SAPS   H9X  902   4.045   0.021   9.306  0.5085 -0.6889  2.4745
    7SAPS   H9Y  903   3.912   0.051   9.183  0.5346  1.6621  1.3334
    7SAPS  C310  904   3.912  -0.148   9.279 -0.1755  0.1825 -0.8785
    7SAPS  H10X  905   3.804  -0.172   9.272 -0.0300 -0.2654 -1.7593
    7SAPS  H10Y  906   3.957  -0.185   9.374  1.3228  0.1984 -1.5517
    7SAPS  C311  907   4.002  -0.213   9.181 -0.7500 -0.5565 -0.1280
    7SAPS  H11X  908   4.106  -0.175   9.189 -0.7070 -0.7344  0.1796
    7SAPS  H11Y  909   3.969  -0.178   9.081 -0.7914  0.0412  0.0841
    7SAPS  C312  910   4.016  -0.361   9.203 -0.7833  0.0068  0.1089
    7SAPS  H12X  911   3.925  -0.422   9.184 -0.5821 -0.2041 -0.1939
    7SAPS  H12Y  912   4.043  -0.379   9.309  0.1849  0.8055  0.0134
    7SAPS  C313  913   4.122  -0.436   9.117  0.7916  0.8577  0.8917
    7SAPS  H13X  914   4.093  -0.421   9.011  1.0199 -3.6391 -0.0406
    7SAPS  H13Y  915   4.112  -0.545   9.137 -0.6900  1.1683  2.0606
    7SAPS  C314  916   4.262  -0.398   9.142 -0.6026  0.1558 -0.6868
    7SAPS  H14X  917   4.290  -0.420   9.247 -0.5173 -0.3971 -0.8193
    7SAPS  H14Y  918   4.292  -0.294   9.117 -1.3021  0.2750 -1.0434
    7SAPS  C315  919   4.354  -0.485   9.048 -0.4220 -0.4660 -0.2249
    7SAPS  H15X  920   4.320  -0.465   8.944  1.2903  0.2905 -0.6793
    7SAPS  H15Y  921   4.348  -0.594   9.067  1.6530 -0.9090 -1.7640
    7SAPS  C316  922   4.503  -0.437   9.042 -0.5789 -0.1087  0.0957
    7SAPS  H16X  923   4.546  -0.453   9.143 -0.6614  1.4783  0.4138
    7SAPS  H16Y  924   4.506  -0.328   9.019 -0.4279  0.3190  1.9968
    7SAPS  C317  925   4.586  -0.525   8.944 -0.5828 -0.6506 -0.5456
    7SAPS  H17X  926   4.547  -0.530   8.840 -0.7189 -0.7717 -0.4890
    7SAPS  H17Y  927   4.582  -0.627   8.988  1.1773 -0.8817 -0.8305
    7SAPS  C318  928   4.731  -0.475   8.929  0.6851  0.0862 -0.2772
    7SAPS  H18X  929   4.800  -0.502   9.011  0.4305  1.1222  0.2934
    7SAPS  H18Y  930   4.722  -0.364   8.934 -1.6482 -0.1159  0.9303
    7SAPS  H18Z  931   4.782  -0.509   8.836 -1.1722 -1.6225 -0.7353
    8SAPS     N  932   1.732   2.316  10.972  0.0984  0.4811  0.7392
    8SAPS   HN1  933   1.737   2.231  10.912  4.7670 -0.0776  1.5623
    8SAPS   HN2  934   1.710   2.293  11.071 -2.9110  1.5295  0.4355
    8SAPS   HN3  935   1.655   2.374  10.933 -0.1581 -1.1774 -1.4712
    8SAPS   C12  936   1.855   2.400  10.958  0.2122 -0.1144  0.3606
    8SAPS  H12A  937   1.840   2.472  10.879 -0.7447 -0.6526  0.0470
    8SAPS   C13  938   1.882   2.485  11.087 -0.2490 -0.2174 -0.1278
    8SAPS  O13A  939   1.796   2.489  11.176 -0.4520  0.2820 -0.6206
    8SAPS  O13B  940   1.975   2.569  11.082 -0.3569 -0.0603  0.8527
    8SAPS   C11  941   1.979   2.312  10.933  0.5762  0.1643 -0.0204
    8SAPS  H11A  942   2.021   2.275  11.029  1.2099 -1.6205 -0.9420
    8SAPS  H11B  943   2.045   2.382  10.877  0.6025 -1.8223 -2.6749
    8SAPS     P  944   2.081   2.101  10.811 -0.4089 -0.6567 -0.0713
    8SAPS   O13  945   2.201   2.174  10.764 -0.3896  0.1008 -0.2904
    8SAPS   O14  946   2.090   2.003  10.921 -0.3554  0.2680 -0.7591
    8SAPS   O12  947   1.958   2.193  10.846 -0.0528 -0.2062  0.5097
    8SAPS   O11  948   2.031   2.021  10.685  0.0571  0.0515  0.0747
    8SAPS    C1  949   1.948   2.077  10.584  0.3721  0.1369  0.7012
    8SAPS    HA  950   1.857   2.019  10.558 -0.9611  2.7943 -1.1642
    8SAPS    HB  951   1.906   2.180  10.597 -2.1503 -0.6209 -0.6000
    8SAPS    C2  952   2.042   2.086  10.453 -0.0321 -0.2396 -0.7669
    8SAPS    HS  953   2.110   2.173  10.469 -1.3753  0.6146  0.5809
    8SAPS   O21  954   1.953   2.106  10.343  0.0284 -0.3330 -0.1852
    8SAPS   C21  955   1.894   2.221  10.317 -0.0830  0.5830  0.5883
    8SAPS   O22  956   1.903   2.320  10.388 -0.6087 -0.4134 -0.5348
    8SAPS   C22  957   1.828   2.206  10.184 -0.3549 -0.3405 -0.1771
    8SAPS   H2R  958   1.892   2.147  10.115  2.3948  1.0645  1.0274
    8SAPS   H2S  959   1.735   2.147  10.202 -0.3203 -0.5113 -0.5380
    8SAPS    C3  960   2.122   1.962  10.422 -0.0321  0.0702 -0.1434
    8SAPS    HX  961   2.058   1.871  10.420  1.1555 -0.7891  0.1462
    8SAPS    HY  962   2.189   1.949  10.509 -1.3177  0.2793  0.9220
    8SAPS   O31  963   2.209   1.968  10.301 -0.4342  0.4433 -0.3730
    8SAPS   C31  964   2.166   1.934  10.184  0.0472 -0.4098  0.0542
    8SAPS   O32  965   2.056   1.888  10.162  0.3779  0.0435 -0.8372
    8SAPS   C32  966   2.269   1.965  10.080  1.3134 -0.1342  0.2838
    8SAPS   H2X  967   2.351   1.891  10.071  0.2282 -1.3229 -0.0527
    8SAPS   H2Y  968   2.320   2.059  10.110  0.2144  0.1594  1.2925
    8SAPS   C23  969   1.788   2.345  10.114 -0.0965 -0.3887 -0.1327
    8SAPS   H3R  970   1.870   2.421  10.110 -1.3419  0.9568 -0.9640
    8SAPS   H3S  971   1.720   2.386  10.192  0.8346  1.8256 -0.4076
    8SAPS   C24  972   1.715   2.309   9.985 -0.2727 -0.3207  0.0394
    8SAPS   H4R  973   1.639   2.387   9.964  0.4712  0.2793 -0.4890
    8SAPS   H4S  974   1.667   2.210  10.000 -2.8613  0.7476 -0.7086
    8SAPS   C25  975   1.814   2.313   9.866 -0.3549 -0.4262 -1.1555
    8SAPS   H5R  976   1.864   2.409   9.850  1.0515 -1.0994 -0.9147
    8SAPS   C26  977   1.850   2.211   9.780 -0.4276 -0.5355  0.2773
    8SAPS   H6R  978   1.899   2.223   9.682 -1.1289 -0.9378 -0.1282
    8SAPS   C27  979   1.791   2.073   9.769 -0.0869  1.0572  0.5607
    8SAPS   H7R  980   1.795   2.038   9.664  0.3092  1.2990  0.4934
    8SAPS   H7S  981   1.683   2.075   9.798 -0.8693 -0.5170 -1.9692
    8SAPS   C28  982   1.860   1.967   9.852 -0.1432  0.3443  0.8033
    8SAPS   H8R  983   1.928   2.027   9.914 -0.2732  0.6553  0.6484
    8SAPS   C29  984   1.858   1.835   9.838 -0.6925  0.9458  0.5062
    8SAPS   H9R  985   1.928   1.782   9.905 -2.7148 -1.6156  0.7304
    8SAPS  C210  986   1.777   1.751   9.745 -0.7972 -0.1732 -0.0056
    8SAPS  H10R  987   1.811   1.753   9.639 -0.9992 -1.0774 -0.0912
    8SAPS  H10S  988   1.676   1.798   9.743 -0.1992  1.3946  2.4524
    8SAPS  C211  989   1.761   1.605   9.790  0.4586  0.3278 -0.4630
    8SAPS  H11R  990   1.783   1.588   9.897 -1.2158  0.4592 -0.0746
    8SAPS  C212  991   1.749   1.500   9.707  0.2707 -0.0760 -0.2402
    8SAPS  H12R  992   1.730   1.399   9.747 -1.1205 -0.8463 -2.5755
    8SAPS  C213  993   1.742   1.500   9.553  0.6484  0.0120 -0.0906
    8SAPS  H13R  994   1.844   1.507   9.509  0.1597  1.7439 -1.0645
    8SAPS  H13S  995   1.708   1.602   9.525  0.0656  0.0539  0.7388
    8SAPS  C214  996   1.660   1.392   9.487 -0.9209  0.2382  0.3154
    8SAPS  H14R  997   1.554   1.390   9.516 -1.3693  0.0633 -1.2178
    8SAPS  C215  998   1.705   1.305   9.394  0.0040  0.1812 -0.3573
    8SAPS  H15R  999   1.628   1.234   9.361 -0.9983  1.8519 -1.7874
    8SAPS  C216 1000   1.839   1.282   9.329 -0.3769 -0.5569 -0.2391
    8SAPS  H16R 1001   1.853   1.172   9.324 -2.1608 -0.9451  1.9152
    8SAPS  H16S 1002   1.919   1.319   9.396 -0.3870 -1.1231  0.0882
    8SAPS  C217 1003   1.865   1.356   9.194  0.0745 -0.0630  0.0692
    8SAPS  H17R 1004   1.973   1.343   9.172  0.1103 -0.7077  0.6163
    8SAPS  H17S 1005   1.840   1.464   9.201  1.7765  0.5395 -2.0800
    8SAPS  C218 1006   1.774   1.303   9.083 -0.1502  0.2390 -0.0331
    8SAPS  H18R 1007   1.670   1.325   9.117 -0.4158 -0.8802 -0.0737
    8SAPS  H18S 1008   1.780   1.192   9.088  1.1718  0.3364  0.8198
    8SAPS  C219 1009   1.806   1.349   8.943  0.0175 -1.1611 -0.0740
    8SAPS  H19R 1010   1.748   1.296   8.864 -0.1495  0.0038 -0.7569
    8SAPS  H19S 1011   1.916   1.333   8.934  0.5495  2.1243 -0.7302
    8SAPS  C220 1012   1.799   1.503   8.922 -0.0713  0.5636  0.4770
    8SAPS  H20R 1013   1.874   1.556   8.984 -0.2330  0.4182  0.7986
    8SAPS  H20S 1014   1.694   1.528   8.946 -0.7563 -2.4884  1.1476
    8SAPS  H20T 1015   1.813   1.535   8.816  2.6022 -0.3446  0.4726
    8SAPS   C33 1016   2.205   1.983   9.936 -0.5953 -0.3186 -0.2719
    8SAPS   H3X 1017   2.137   2.070   9.929  0.0101  0.0749 -1.5535
    8SAPS   H3Y 1018   2.153   1.889   9.910 -0.7670 -0.1603 -0.4928
    8SAPS   C34 1019   2.316   1.996   9.832  0.0038 -1.0531 -0.4678
    8SAPS   H4X 1020   2.379   1.905   9.843 -0.4668 -1.2253  1.0220
    8SAPS   H4Y 1021   2.381   2.085   9.849  1.2216 -2.0052 -0.0701
    8SAPS   C35 1022   2.262   2.005   9.689 -0.2304 -0.6043 -0.0448
    8SAPS   H5X 1023   2.347   2.034   9.624 -0.8405 -1.1678 -1.1204
    8SAPS   H5Y 1024   2.189   2.088   9.678 -2.3152 -2.3096  0.2569
    8SAPS   C36 1025   2.199   1.871   9.630  0.1611 -0.1634  0.2926
    8SAPS   H6X 1026   2.116   1.834   9.695  0.0496 -0.6098 -0.0953
    8SAPS   H6Y 1027   2.274   1.790   9.615 -0.9168 -1.4089  1.3247
    8SAPS   C37 1028   2.140   1.903   9.488  0.4362  0.2066  0.4986
    8SAPS   H7X 1029   2.224   1.946   9.430  0.3437 -1.0222 -0.5916
    8SAPS   H7Y 1030   2.059   1.978   9.501 -0.9493 -0.7405 -2.1162
    8SAPS   C38 1031   2.076   1.774   9.432 -0.7093  0.6194  0.5229
    8SAPS   H8X 1032   2.042   1.710   9.516 -3.3572 -0.9329 -1.5308
    8SAPS   H8Y 1033   2.153   1.714   9.379 -1.5666  0.6206 -0.7891
    8SAPS   C39 1034   1.964   1.779   9.327  0.2725  0.4306  0.4276
    8SAPS   H9X 1035   1.921   1.678   9.307 -1.8556  1.7531 -2.3193
    8SAPS   H9Y 1036   2.015   1.801   9.231  0.3027  2.7340  0.9203
    8SAPS  C310 1037   1.847   1.863   9.360 -0.2687  0.6584  0.1154
    8SAPS  H10X 1038   1.879   1.969   9.373  2.1396  0.0532 -0.3902
    8SAPS  H10Y 1039   1.788   1.830   9.448 -1.8942  0.9652 -0.7945
    8SAPS  C311 1040   1.733   1.862   9.250 -0.0844  0.0723 -0.5318
    8SAPS  H11X 1041   1.783   1.904   9.160 -0.2466  1.3257 -0.0658
    8SAPS  H11Y 1042   1.655   1.926   9.296  0.6546 -1.3057  2.9668
    8SAPS  C312 1043   1.671   1.724   9.218 -0.5065  0.2046 -1.2001
    8SAPS  H12X 1044   1.624   1.694   9.314  2.3875  0.0182  0.2680
    8SAPS  H12Y 1045   1.753   1.656   9.187 -0.0421  0.1687  0.0549
    8SAPS  C313 1046   1.563   1.718   9.104 -0.0054 -0.1102 -0.0463
    8SAPS  H13X 1047   1.496   1.630   9.102 -3.4855  2.3391 -2.8647
    8SAPS  H13Y 1048   1.604   1.739   9.003 -0.5664 -0.0645 -0.2659
    8SAPS  C314 1049   1.456   1.813   9.134  0.1906 -0.5022 -0.5427
    8SAPS  H14X 1050   1.385   1.824   9.050 -0.4578  2.2086  0.2806
    8SAPS  H14Y 1051   1.508   1.908   9.158  2.4411 -1.5931 -0.8285
    8SAPS  C315 1052   1.370   1.783   9.256  0.9681 -0.0688 -0.0451
    8SAPS  H15X 1053   1.439   1.784   9.343  1.3602  0.3451 -0.3573
    8SAPS  H15Y 1054   1.331   1.679   9.261  0.8977 -0.0099  0.9535
    8SAPS  C316 1055   1.265   1.891   9.279  0.1421 -0.4464 -0.0360
    8SAPS  H16X 1056   1.208   1.901   9.184  1.4727  1.8162 -0.6682
    8SAPS  H16Y 1057   1.311   1.992   9.287 -3.0606  1.1046  0.5089
    8SAPS  C317 1058   1.182   1.869   9.410 -0.2859 -0.2770 -0.4446
    8SAPS  H17X 1059   1.251   1.856   9.497 -0.6770  0.7627  0.0364
    8SAPS  H17Y 1060   1.131   1.771   9.395 -0.1277 -0.1614 -1.8728
    8SAPS  C318 1061   1.089   1.989   9.460 -0.4086 -0.7214  0.0892
    8SAPS  H18X 1062   1.002   1.941   9.510 -0.5048  2.0456  2.8513
    8SAPS  H18Y 1063   1.064   2.060   9.378  0.4847 -0.1613  0.2885
    8SAPS  H18Z 1064   1.135   2.051   9.540  1.1679 -2.6846  0.8038
    9SAPS     N 1065   1.001   2.229   6.147 -0.4901  0.3198 -0.3259
    9SAPS   HN1 1066   0.916   2.196   6.098 -0.5614 -0.4898  0.3209
    9SAPS   HN2 1067   1.018   2.179   6.237 -0.0570  2.1416  0.6684
    9SAPS   HN3 1068   0.987   2.326   6.182  0.7504 -0.1844  1.7498
    9SAPS   C12 1069   1.119   2.215   6.048  0.4779  0.1488 -0.2844
    9SAPS  H12A 1070   1.128   2.110   6.027  0.9543  0.4800 -1.8575
    9SAPS   C13 1071   1.095   2.280   5.907  0.1831  0.5753  0.2901
    9SAPS  O13A 1072   1.004   2.364   5.890  0.1184 -0.3164 -0.0831
    9SAPS  O13B 1073   1.192   2.259   5.831 -0.4447  0.2089 -0.2874
    9SAPS   C11 1074   1.243   2.272   6.119  0.2303  0.9093 -0.5131
    9SAPS  H11A 1075   1.246   2.383   6.115 -2.5152  1.0494 -0.0237
    9SAPS  H11B 1076   1.325   2.219   6.065 -1.3381 -0.9780 -1.1486
    9SAPS     P 1077   1.317   2.308   6.369  0.2552  0.0073  0.1211
    9SAPS   O13 1078   1.461   2.287   6.371 -0.0364  0.3521  0.0439
    9SAPS   O14 1079   1.278   2.452   6.349  0.5287  0.2431  0.0381
    9SAPS   O12 1080   1.250   2.215   6.255  0.4239 -0.6144 -1.0618
    9SAPS   O11 1081   1.246   2.255   6.503 -0.0130  0.1999 -0.0518
    9SAPS    C1 1082   1.246   2.111   6.539 -0.0114 -0.5881  0.1359
    9SAPS    HA 1083   1.171   2.057   6.477  0.0401  0.2975 -0.7305
    9SAPS    HB 1084   1.349   2.072   6.525  0.3932  0.5388 -0.1686
    9SAPS    C2 1085   1.195   2.095   6.688 -0.1716 -0.2171  0.2486
    9SAPS    HS 1086   1.101   2.154   6.681  0.8475  1.3000 -1.5274
    9SAPS   O21 1087   1.296   2.138   6.777  0.0699  0.3588  0.2488
    9SAPS   C21 1088   1.294   2.265   6.812 -0.5502 -0.0350 -0.5748
    9SAPS   O22 1089   1.203   2.346   6.782  0.0417 -0.2126 -0.2416
    9SAPS   C22 1090   1.403   2.288   6.909  0.4856 -0.1338  0.9998
    9SAPS   H2R 1091   1.482   2.211   6.897  0.3637 -0.0909 -0.1181
    9SAPS   H2S 1092   1.455   2.383   6.888 -0.1099  0.2486  1.2165
    9SAPS    C3 1093   1.160   1.955   6.720  0.8525  0.7513 -0.8073
    9SAPS    HX 1094   1.240   1.879   6.702  0.4398  0.5480 -1.8474
    9SAPS    HY 1095   1.081   1.921   6.649  0.3528 -1.2316  0.6085
    9SAPS   O31 1096   1.127   1.941   6.861  0.0303 -0.3699 -0.5403
    9SAPS   C31 1097   0.999   1.971   6.897 -0.7258  0.2189  1.1896
    9SAPS   O32 1098   0.904   1.972   6.818  0.0819  0.2809 -0.0292
    9SAPS   C32 1099   0.986   2.003   7.045 -0.3805 -0.3713  0.2866
    9SAPS   H2X 1100   1.004   2.112   7.061 -1.1348 -0.1446 -0.3329
    9SAPS   H2Y 1101   1.064   1.946   7.100  0.5209  1.6578  1.2175
    9SAPS   C23 1102   1.348   2.277   7.054  0.0519 -0.3020 -0.5841
    9SAPS   H3R 1103   1.322   2.171   7.072 -0.6738  0.0898  0.7857
    9SAPS   H3S 1104   1.250   2.330   7.066  0.1585 -0.7434  3.5726
    9SAPS   C24 1105   1.440   2.338   7.164  0.0418 -0.1289  0.1052
    9SAPS   H4R 1106   1.451   2.447   7.149 -0.1461 -0.1855 -0.4905
    9SAPS   H4S 1107   1.541   2.293   7.153  0.6569  0.9271  1.2386
    9SAPS   C25 1108   1.381   2.306   7.294  0.4655 -0.3617  0.1395
    9SAPS   H5R 1109   1.271   2.307   7.299  0.3735 -0.7185 -1.3492
    9SAPS   C26 1110   1.454   2.291   7.409  0.4589  0.1164 -0.2391
    9SAPS   H6R 1111   1.399   2.279   7.504  1.0930 -0.1099  0.1087
    9SAPS   C27 1112   1.605   2.309   7.410  0.4552 -0.5174  0.1853
    9SAPS   H7R 1113   1.625   2.389   7.485  0.0535 -1.4051  1.2456
    9SAPS   H7S 1114   1.645   2.355   7.317  0.5340  0.1564  0.5450
    9SAPS   C28 1115   1.690   2.187   7.431  0.6327  0.5856 -0.5346
    9SAPS   H8R 1116   1.715   2.133   7.339 -2.2496  2.9620 -2.9200
    9SAPS   C29 1117   1.741   2.146   7.553  0.1316 -0.1442 -0.4230
    9SAPS   H9R 1118   1.793   2.049   7.556  0.9453  0.2866 -0.2058
    9SAPS  C210 1119   1.714   2.218   7.688  0.4071  0.8348 -0.1788
    9SAPS  H10R 1120   1.714   2.327   7.668  0.4031  0.8992  0.1699
    9SAPS  H10S 1121   1.805   2.208   7.750 -0.1619  1.7922  0.8420
    9SAPS  C211 1122   1.587   2.174   7.759 -0.0632  0.0296  0.2835
    9SAPS  H11R 1123   1.512   2.122   7.698 -0.3192  0.8474 -0.1230
    9SAPS  C212 1124   1.554   2.206   7.882 -0.2547  0.1816 -0.1359
    9SAPS  H12R 1125   1.466   2.173   7.937  1.2525 -1.0221  1.6660
    9SAPS  C213 1126   1.643   2.279   7.979 -0.4686 -0.6031 -0.3087
    9SAPS  H13R 1127   1.748   2.287   7.944  0.1460  1.6129  1.7689
    9SAPS  H13S 1128   1.644   2.236   8.081 -0.6804  2.6520  1.1891
    9SAPS  C214 1129   1.575   2.413   7.980 -0.2779 -0.2583 -0.5422
    9SAPS  H14R 1130   1.539   2.456   7.885 -2.0247  0.1317  0.2449
    9SAPS  C215 1131   1.549   2.491   8.088  0.7375 -0.4003 -0.3312
    9SAPS  H15R 1132   1.487   2.581   8.073  0.0589 -0.7727  0.2185
    9SAPS  C216 1133   1.569   2.458   8.233 -0.6124  0.4953 -0.3478
    9SAPS  H16R 1134   1.663   2.503   8.271  0.8234  0.3422 -3.4668
    9SAPS  H16S 1135   1.566   2.347   8.237 -0.4468  0.4282 -1.5775
    9SAPS  C217 1136   1.450   2.503   8.330  0.1264  0.0433  0.0563
    9SAPS  H17R 1137   1.365   2.432   8.329  1.5651 -1.7916 -1.8744
    9SAPS  H17S 1138   1.406   2.602   8.305 -2.2605 -0.7480  0.8776
    9SAPS  C218 1139   1.500   2.513   8.471  0.1872 -0.3927 -0.7326
    9SAPS  H18R 1140   1.606   2.546   8.465 -0.3827  1.2499 -2.6771
    9SAPS  H18S 1141   1.504   2.416   8.525  2.7298  0.2321  0.3486
    9SAPS  C219 1142   1.428   2.630   8.549  0.1547 -0.4626 -0.5033
    9SAPS  H19R 1143   1.446   2.720   8.486  3.6316 -0.2630  0.5249
    9SAPS  H19S 1144   1.481   2.636   8.647 -1.0753 -0.4975  0.1735
    9SAPS  C220 1145   1.280   2.604   8.575 -0.6883 -0.1259 -0.1419
    9SAPS  H20R 1146   1.279   2.531   8.659  0.1025  0.0698  0.0452
    9SAPS  H20S 1147   1.228   2.559   8.488  0.4567 -0.9373 -0.4268
    9SAPS  H20T 1148   1.222   2.687   8.621 -0.3400  0.8449 -1.3993
    9SAPS   C33 1149   0.849   1.948   7.091  0.1415 -0.0150  0.6810
    9SAPS   H3X 1150   0.856   1.837   7.094  0.7472  0.0330  1.7663
    9SAPS   H3Y 1151   0.776   1.989   7.018  1.1761 -0.5466 -0.6822
    9SAPS   C34 1152   0.800   1.992   7.231 -1.1375  0.0241 -0.0549
    9SAPS   H4X 1153   0.694   1.960   7.237 -1.4990  1.0348 -0.7998
    9SAPS   H4Y 1154   0.808   2.102   7.239  0.6423 -0.0613 -0.2076
    9SAPS   C35 1155   0.884   1.923   7.342 -0.3159 -0.7412 -0.0719
    9SAPS   H5X 1156   0.990   1.946   7.320 -0.3268 -0.0979  0.5151
    9SAPS   H5Y 1157   0.870   1.814   7.329 -0.1624 -0.6114 -1.4433
    9SAPS   C36 1158   0.846   1.963   7.481 -0.0794  0.2294 -0.3181
    9SAPS   H6X 1159   0.736   1.954   7.487 -0.0413 -1.3181 -1.4058
    9SAPS   H6Y 1160   0.888   2.064   7.504  1.4705 -0.4265 -0.1248
    9SAPS   C37 1161   0.904   1.863   7.586 -0.4393 -0.1778  0.1425
    9SAPS   H7X 1162   1.011   1.884   7.568 -0.1512 -1.0768  0.7558
    9SAPS   H7Y 1163   0.887   1.756   7.560 -0.9821  0.2296 -1.2579
    9SAPS   C38 1164   0.878   1.910   7.725  0.1252  0.1970 -0.1913
    9SAPS   H8X 1165   0.773   1.946   7.729  0.2196  0.8771 -2.3266
    9SAPS   H8Y 1166   0.937   2.004   7.738  2.8036 -1.2579 -1.1087
    9SAPS   C39 1167   0.910   1.803   7.825 -0.1119  0.2928  0.3112
    9SAPS   H9X 1168   1.013   1.764   7.823  0.8360  2.6137  0.8132
    9SAPS   H9Y 1169   0.840   1.718   7.805  0.8081 -0.6242  0.9122
    9SAPS  C310 1170   0.878   1.855   7.962 -0.2231 -0.2378 -0.2933
    9SAPS  H10X 1171   0.787   1.918   7.960  1.2545  2.0277 -2.5335
    9SAPS  H10Y 1172   0.974   1.908   7.981  0.6284 -0.8413 -2.4953
    9SAPS  C311 1173   0.877   1.744   8.066  0.0488 -0.6602 -0.1273
    9SAPS  H11X 1174   0.947   1.661   8.043  0.8930  0.5850 -2.3875
    9SAPS  H11Y 1175   0.774   1.702   8.054 -0.5034  0.6968 -0.2622
    9SAPS  C312 1176   0.918   1.793   8.205  0.1592 -0.1090 -0.6632
    9SAPS  H12X 1177   0.854   1.879   8.235  1.5339  0.6191  0.3039
    9SAPS  H12Y 1178   1.025   1.818   8.219  0.8254 -2.8003 -0.5119
    9SAPS  C313 1179   0.897   1.693   8.313  0.8005  0.4585  0.1696
    9SAPS  H13X 1180   0.958   1.602   8.295  0.3547 -0.2144  1.8476
    9SAPS  H13Y 1181   0.790   1.669   8.301  0.7823 -0.0928  1.2678
    9SAPS  C314 1182   0.908   1.760   8.454 -0.0381  0.0600  0.0871
    9SAPS  H14X 1183   0.828   1.837   8.460 -0.2889 -0.0970 -1.0125
    9SAPS  H14Y 1184   1.010   1.802   8.461 -0.3050  0.4884  1.9318
    9SAPS  C315 1185   0.895   1.676   8.578 -0.0315 -0.2899  0.1817
    9SAPS  H15X 1186   0.959   1.725   8.654  0.9312  0.5519 -1.1200
    9SAPS  H15Y 1187   0.928   1.574   8.549 -0.1319 -0.2554 -0.0587
    9SAPS  C316 1188   0.756   1.651   8.637  0.5602  0.2332 -0.3460
    9SAPS  H16X 1189   0.682   1.655   8.555  0.4261 -1.8098 -0.3751
    9SAPS  H16Y 1190   0.717   1.725   8.710  0.3290 -0.2341  0.0098
    9SAPS  C317 1191   0.754   1.514   8.716  0.4242  0.6727  0.7800
    9SAPS  H17X 1192   0.840   1.513   8.786  2.0780 -0.0400 -1.1329
    9SAPS  H17Y 1193   0.756   1.424   8.649 -2.4947  1.0508  0.0347
    9SAPS  C318 1194   0.627   1.486   8.787 -0.4212 -0.0981  0.6581
    9SAPS  H18X 1195   0.549   1.516   8.714 -1.0223  0.3268  1.4556
    9SAPS  H18Y 1196   0.616   1.546   8.880  0.2572  2.1522 -0.6487
    9SAPS  H18Z 1197   0.612   1.378   8.812  1.5644 -0.1007  2.1081
   10SAPS     N 1198   1.726   2.277   6.273  0.1669  0.5682  0.0151
   10SAPS   HN1 1199   1.633   2.287   6.319 -0.0983 -1.5016  0.0298
   10SAPS   HN2 1200   1.801   2.285   6.344 -0.0315 -0.3391  0.3385
   10SAPS   HN3 1201   1.726   2.358   6.208 -0.3095  1.0544  0.6221
   10SAPS   C12 1202   1.728   2.167   6.176 -0.4214  0.4577  0.0830
   10SAPS  H12A 1203   1.690   2.216   6.087 -0.1087  0.6684  0.0642
   10SAPS   C13 1204   1.875   2.116   6.153 -0.1359 -0.4443  0.4675
   10SAPS  O13A 1205   1.964   2.177   6.217  0.0454  0.5723  0.3438
   10SAPS  O13B 1206   1.901   2.039   6.064  0.1549 -0.1068 -0.3372
   10SAPS   C11 1207   1.639   2.050   6.228 -0.0172  0.6994 -0.4392
   10SAPS  H11A 1208   1.637   1.981   6.141 -1.5691 -0.9215  0.8040
   10SAPS  H11B 1209   1.536   2.083   6.254 -0.0274 -0.9040  1.8738
   10SAPS     P 1210   1.608   1.890   6.431 -0.0023  0.5066 -0.1646
   10SAPS   O13 1211   1.490   1.845   6.354 -0.5713 -0.4485 -0.1218
   10SAPS   O14 1212   1.696   1.780   6.486 -0.0013  0.8210 -0.0101
   10SAPS   O12 1213   1.705   1.988   6.344 -0.0878 -0.1073  0.0149
   10SAPS   O11 1214   1.565   1.981   6.552 -0.0294  0.2076 -0.1861
   10SAPS    C1 1215   1.650   2.088   6.588 -0.3778  0.1255  0.4919
   10SAPS    HA 1216   1.729   2.115   6.515  2.2276 -0.3870  2.9825
   10SAPS    HB 1217   1.585   2.174   6.617  1.1510  1.4432  0.1743
   10SAPS    C2 1218   1.728   2.059   6.714  0.2761  0.4698  0.3268
   10SAPS    HS 1219   1.790   1.967   6.707 -1.2115 -0.6379  1.1206
   10SAPS   O21 1220   1.638   2.050   6.822  0.0892 -0.3875  0.0071
   10SAPS   C21 1221   1.620   1.925   6.877 -0.0861 -0.1634 -0.5943
   10SAPS   O22 1222   1.682   1.826   6.841  0.3381 -0.3268 -0.0893
   10SAPS   C22 1223   1.501   1.940   6.971 -0.7902 -0.1936  0.0878
   10SAPS   H2R 1224   1.524   2.035   7.023 -0.3039  1.0452 -2.2307
   10SAPS   H2S 1225   1.406   1.949   6.914 -1.9411 -2.1672  1.5786
   10SAPS    C3 1226   1.826   2.164   6.761  0.2707 -0.5954  0.4520
   10SAPS    HX 1227   1.786   2.250   6.819  2.3389  0.1202  0.9107
   10SAPS    HY 1228   1.844   2.216   6.665 -4.0963 -0.5933 -0.5468
   10SAPS   O31 1229   1.949   2.109   6.816 -0.0415 -0.2409 -0.2397
   10SAPS   C31 1230   1.942   2.071   6.946  0.0992  0.2558  0.2061
   10SAPS   O32 1231   1.861   2.102   7.028 -0.2793 -0.7990 -0.3529
   10SAPS   C32 1232   2.056   1.972   6.975 -0.7070  0.7264  0.4056
   10SAPS   H2X 1233   2.160   2.011   6.971  0.1138 -1.4034 -0.8684
   10SAPS   H2Y 1234   2.063   1.906   6.886 -2.1902 -0.0475  0.8322
   10SAPS   C23 1235   1.490   1.827   7.080 -0.3985  0.2336  0.6220
   10SAPS   H3R 1236   1.586   1.773   7.089 -1.0665 -0.9828  0.6325
   10SAPS   H3S 1237   1.424   1.748   7.039  2.1835 -1.1331 -1.1338
   10SAPS   C24 1238   1.454   1.874   7.221  0.0964  0.1608  0.0874
   10SAPS   H4R 1239   1.354   1.922   7.228 -0.0758 -0.2313  0.3328
   10SAPS   H4S 1240   1.529   1.949   7.257  0.5751 -0.9373  1.4664
   10SAPS   C25 1241   1.450   1.760   7.321 -0.3852  0.5738 -0.7626
   10SAPS   H5R 1242   1.473   1.659   7.283  4.0786  0.3546  1.8287
   10SAPS   C26 1243   1.447   1.774   7.456 -0.7325  0.7627 -0.4125
   10SAPS   H6R 1244   1.471   1.682   7.511  0.0326 -0.1464 -2.1581
   10SAPS   C27 1245   1.453   1.897   7.534 -0.1601  0.3150  0.0595
   10SAPS   H7R 1246   1.500   1.979   7.476  0.1397 -0.8884 -1.4413
   10SAPS   H7S 1247   1.528   1.877   7.614 -2.5498  0.0826  2.3991
   10SAPS   C28 1248   1.327   1.952   7.596  0.0186  0.9379 -0.2689
   10SAPS   H8R 1249   1.269   2.021   7.532 -1.8787  0.1591  0.5189
   10SAPS   C29 1250   1.262   1.896   7.696  0.4595  0.5023 -0.3973
   10SAPS   H9R 1251   1.174   1.946   7.739 -0.9189  0.6040 -3.1452
   10SAPS  C210 1252   1.302   1.779   7.781  0.0574 -0.7650 -0.6578
   10SAPS  H10R 1253   1.268   1.797   7.886 -0.2349 -1.1325 -0.6859
   10SAPS  H10S 1254   1.413   1.781   7.784  0.1775  3.9320 -0.1894
   10SAPS  C211 1255   1.239   1.649   7.741 -0.3963  0.6096  0.6566
   10SAPS  H11R 1256   1.197   1.650   7.639 -0.7118  1.9452  0.7906
   10SAPS  C212 1257   1.252   1.531   7.809  0.4084 -0.1547 -0.0937
   10SAPS  H12R 1258   1.207   1.438   7.770  1.2595 -0.2690 -0.8442
   10SAPS  C213 1259   1.313   1.502   7.945 -0.2937 -1.0020  0.3563
   10SAPS  H13R 1260   1.419   1.530   7.934 -0.4863  0.9152  2.6460
   10SAPS  H13S 1261   1.299   1.393   7.960 -0.2274 -1.2060 -0.8979
   10SAPS  C214 1262   1.242   1.580   8.050 -0.4467  0.1288 -0.7590
   10SAPS  H14R 1263   1.191   1.676   8.029 -0.8005 -0.0338 -0.6464
   10SAPS  C215 1264   1.243   1.539   8.178  0.5198 -0.2698  0.5974
   10SAPS  H15R 1265   1.176   1.593   8.246 -0.1372 -0.6593  0.2704
   10SAPS  C216 1266   1.318   1.420   8.229  0.0781 -0.3127  0.0761
   10SAPS  H16R 1267   1.375   1.463   8.314  1.8812 -0.3188 -1.0935
   10SAPS  H16S 1268   1.397   1.370   8.169 -1.5151 -3.5167  0.3804
   10SAPS  C217 1269   1.211   1.308   8.274 -0.5543  0.7478  0.0484
   10SAPS  H17R 1270   1.262   1.210   8.282  2.2089  2.0090 -0.8821
   10SAPS  H17S 1271   1.133   1.302   8.196 -0.1968  1.2436 -0.3570
   10SAPS  C218 1272   1.144   1.325   8.409 -0.7528  0.5546 -0.2928
   10SAPS  H18R 1273   1.074   1.410   8.391 -0.3485  1.8946  3.5160
   10SAPS  H18S 1274   1.217   1.354   8.488 -2.3174  1.1238  1.0105
   10SAPS  C219 1275   1.055   1.200   8.440  0.4409 -0.0969  0.1159
   10SAPS  H19R 1276   1.120   1.113   8.464 -0.6950 -0.5829  1.5568
   10SAPS  H19S 1277   0.983   1.179   8.359  1.9865 -3.8275 -0.5156
   10SAPS  C220 1278   0.961   1.227   8.564 -0.3264  0.2403  0.1869
   10SAPS  H20R 1279   0.898   1.318   8.551 -0.2423  0.0226 -2.1733
   10SAPS  H20S 1280   1.024   1.252   8.652  2.4404 -1.2791 -1.2411
   10SAPS  H20T 1281   0.898   1.138   8.589  0.9877 -1.0445 -0.9121
   10SAPS   C33 1282   2.031   1.885   7.100 -0.5278  0.0987  0.4445
   10SAPS   H3X 1283   2.059   1.941   7.192  0.4387 -0.7019  0.6542
   10SAPS   H3Y 1284   2.111   1.808   7.097 -0.6574 -0.0350 -2.2362
   10SAPS   C34 1285   1.896   1.813   7.101 -0.6567 -0.1158 -0.0714
   10SAPS   H4X 1286   1.879   1.767   7.001 -0.6292 -1.4974  0.5490
   10SAPS   H4Y 1287   1.819   1.892   7.116  1.2513  1.7544  0.4809
   10SAPS   C35 1288   1.892   1.698   7.200  0.2214 -0.4572 -0.3636
   10SAPS   H5X 1289   1.974   1.624   7.185  0.4765 -0.3928  0.6272
   10SAPS   H5Y 1290   1.797   1.641   7.200  1.3333 -2.4205  0.2350
   10SAPS   C36 1291   1.911   1.735   7.352  0.2526 -0.2500 -0.2574
   10SAPS   H6X 1292   1.842   1.821   7.368 -0.4907 -0.7577 -0.6199
   10SAPS   H6Y 1293   2.017   1.763   7.365  0.6901 -1.8686 -0.1497
   10SAPS   C37 1294   1.887   1.621   7.450 -0.0471 -0.1699 -0.2243
   10SAPS   H7X 1295   1.963   1.546   7.419 -1.2276 -0.0691 -3.7855
   10SAPS   H7Y 1296   1.788   1.572   7.435 -0.9413  1.3007  0.6906
   10SAPS   C38 1297   1.899   1.638   7.606 -0.1524 -0.6352  0.4551
   10SAPS   H8X 1298   1.985   1.702   7.636 -1.9868  1.6087  1.1788
   10SAPS   H8Y 1299   1.942   1.546   7.651 -0.4432 -1.0229 -0.0450
   10SAPS   C39 1300   1.762   1.683   7.670  0.2146  0.6315 -0.4523
   10SAPS   H9X 1301   1.681   1.614   7.639 -2.0761  2.1461  1.7911
   10SAPS   H9Y 1302   1.742   1.787   7.636 -1.2166  0.0210 -1.5604
   10SAPS  C310 1303   1.772   1.692   7.826  0.1848  0.7754 -0.2298
   10SAPS  H10X 1304   1.873   1.732   7.851  0.4134  0.2597 -0.3248
   10SAPS  H10Y 1305   1.792   1.595   7.876  2.8605  0.7680 -1.1219
   10SAPS  C311 1306   1.667   1.777   7.899  0.0130 -0.4494  0.5689
   10SAPS  H11X 1307   1.568   1.728   7.900  0.4751 -1.4485 -0.3545
   10SAPS  H11Y 1308   1.651   1.875   7.850 -3.0317 -1.2306 -0.2005
   10SAPS  C312 1309   1.697   1.803   8.050  0.9225  0.1358  0.4799
   10SAPS  H12X 1310   1.740   1.906   8.050  0.4489  0.3770 -1.5683
   10SAPS  H12Y 1311   1.771   1.730   8.089 -0.2122 -0.4262  1.6335
   10SAPS  C313 1312   1.580   1.822   8.144  0.0618 -0.3300 -0.3959
   10SAPS  H13X 1313   1.537   1.720   8.148  1.9823 -1.1452  1.1162
   10SAPS  H13Y 1314   1.513   1.903   8.109 -0.3067 -0.6628 -0.4742
   10SAPS  C314 1315   1.639   1.872   8.281  0.5609 -0.0488  0.2482
   10SAPS  H14X 1316   1.702   1.959   8.254 -1.8687  2.5650  2.3284
   10SAPS  H14Y 1317   1.705   1.795   8.325 -0.2555  0.3513  2.2762
   10SAPS  C315 1318   1.543   1.913   8.386  0.0226 -0.9156  0.0731
   10SAPS  H15X 1319   1.483   1.999   8.351  1.6997  1.0802  1.8069
   10SAPS  H15Y 1320   1.586   1.959   8.478 -1.1833  0.3559  0.0168
   10SAPS  C316 1321   1.454   1.796   8.432  0.4045  0.3122 -0.2565
   10SAPS  H16X 1322   1.518   1.716   8.476  1.1542  1.1670  0.2458
   10SAPS  H16Y 1323   1.415   1.747   8.341 -0.7390  0.3994  0.1732
   10SAPS  C317 1324   1.345   1.842   8.527  0.3725  0.4076  0.0945
   10SAPS  H17X 1325   1.262   1.895   8.476 -0.7886 -2.3996 -1.1243
   10SAPS  H17Y 1326   1.395   1.910   8.599 -3.9309  1.5717  2.3290
   10SAPS  C318 1327   1.305   1.733   8.620 -0.1749 -0.2898  0.0451
   10SAPS  H18X 1328   1.248   1.653   8.568 -1.5101  0.7857 -0.1803
   10SAPS  H18Y 1329   1.246   1.774   8.705  0.8696  1.5060 -0.0492
   10SAPS  H18Z 1330   1.396   1.684   8.662  1.2992  2.4112  0.1941
   11SAPS     N 1331   2.056   2.667   6.202 -0.2607 -0.2796  0.7044
   11SAPS   HN1 1332   1.979   2.691   6.268 -1.0530 -0.5705 -0.0940
   11SAPS   HN2 1333   2.009   2.593   6.146 -2.4456  2.1733 -0.9548
   11SAPS   HN3 1334   2.138   2.632   6.256  2.4485  2.1258 -1.5526
   11SAPS   C12 1335   2.089   2.774   6.106 -0.9125  0.7173  0.4421
   11SAPS  H12A 1336   2.082   2.865   6.164 -1.7652 -0.8173  2.8653
   11SAPS   C13 1337   2.240   2.755   6.067  0.2922  0.2663 -0.3812
   11SAPS  O13A 1338   2.310   2.666   6.115 -0.2204 -0.1495 -0.1779
   11SAPS  O13B 1339   2.284   2.842   5.984 -0.1463 -0.1047 -0.2949
   11SAPS   C11 1340   1.994   2.774   5.983 -0.2142  0.1364  0.0740
   11SAPS  H11A 1341   2.014   2.684   5.920 -1.2065 -0.7190  0.9434
   11SAPS  H11B 1342   2.023   2.866   5.927 -1.2313  0.6172  0.3069
   11SAPS     P 1343   1.743   2.812   5.930  0.0653 -0.1153  0.2422
   11SAPS   O13 1344   1.792   2.895   5.825 -0.3269 -0.5088  0.3293
   11SAPS   O14 1345   1.659   2.695   5.896 -0.2886  0.3261 -0.0348
   11SAPS   O12 1346   1.854   2.765   6.031  0.0783 -0.3797 -0.0134
   11SAPS   O11 1347   1.648   2.903   6.024 -0.7681  0.6685 -0.1898
   11SAPS    C1 1348   1.699   3.026   6.080  0.3513  0.2019  0.2699
   11SAPS    HA 1349   1.794   3.053   6.030 -0.0117 -0.3332 -0.7251
   11SAPS    HB 1350   1.631   3.114   6.074 -1.8093 -1.2115  2.3852
   11SAPS    C2 1351   1.725   2.999   6.226  0.4949  0.5861 -0.6624
   11SAPS    HS 1352   1.763   2.894   6.226 -0.4900  0.2166 -1.3552
   11SAPS   O21 1353   1.589   3.005   6.273 -0.2442  0.4738 -0.1692
   11SAPS   C21 1354   1.556   2.941   6.385  0.4351 -0.2121  0.2461
   11SAPS   O22 1355   1.638   2.870   6.444 -0.0546 -0.0553 -0.1263
   11SAPS   C22 1356   1.411   2.958   6.425  0.6234  0.4528  0.1037
   11SAPS   H2R 1357   1.358   2.933   6.331  1.0427 -1.3503  0.3160
   11SAPS   H2S 1358   1.378   2.885   6.502 -0.9736  0.0557 -0.9073
   11SAPS    C3 1359   1.813   3.106   6.292  0.1368 -0.2839 -0.2136
   11SAPS    HX 1360   1.772   3.206   6.267  1.8486  0.0889 -1.7907
   11SAPS    HY 1361   1.909   3.100   6.236  0.5647  1.5001  0.2747
   11SAPS   O31 1362   1.830   3.101   6.443 -0.1546  0.2580  0.0284
   11SAPS   C31 1363   1.929   3.031   6.495 -0.0157 -0.3681  0.5862
   11SAPS   O32 1364   2.019   2.975   6.440 -0.2379 -0.6905  0.1297
   11SAPS   C32 1365   1.909   3.040   6.656 -0.2171 -0.0411  0.3166
   11SAPS   H2X 1366   1.818   2.980   6.678 -0.2099  0.1466  0.8649
   11SAPS   H2Y 1367   1.884   3.144   6.684  3.0880  0.9058  0.2023
   11SAPS   C23 1368   1.385   3.100   6.469 -0.6628  0.7918  0.3287
   11SAPS   H3R 1369   1.277   3.108   6.493 -1.7625 -1.8528 -2.9152
   11SAPS   H3S 1370   1.411   3.166   6.383  0.8459 -0.5120 -0.2711
   11SAPS   C24 1371   1.461   3.144   6.590  0.3872  0.8149 -0.1123
   11SAPS   H4R 1372   1.570   3.154   6.568  0.3499  0.6048 -0.3974
   11SAPS   H4S 1373   1.460   3.074   6.676 -0.7551  0.5951 -0.2951
   11SAPS   C25 1374   1.414   3.280   6.623  0.3880  0.1063 -1.0633
   11SAPS   H5R 1375   1.427   3.358   6.547  0.2145  2.3169  1.0644
   11SAPS   C26 1376   1.361   3.312   6.739  0.0152  0.0568  1.1282
   11SAPS   H6R 1377   1.328   3.417   6.743  0.0851  0.0726  1.3031
   11SAPS   C27 1378   1.331   3.227   6.862 -0.5014  0.0718 -0.3441
   11SAPS   H7R 1379   1.420   3.251   6.925 -0.6791  0.1991 -0.1390
   11SAPS   H7S 1380   1.341   3.120   6.835 -0.0467  0.0345 -0.0473
   11SAPS   C28 1381   1.201   3.264   6.934 -0.5208 -0.8116  0.0840
   11SAPS   H8R 1382   1.123   3.315   6.877  1.5128  1.6114 -0.6695
   11SAPS   C29 1383   1.178   3.241   7.058 -0.0303 -0.0903 -0.2302
   11SAPS   H9R 1384   1.081   3.271   7.100 -1.1456 -1.4110 -1.7596
   11SAPS  C210 1385   1.275   3.182   7.167 -0.6336  0.6648  0.1896
   11SAPS  H10R 1386   1.270   3.254   7.251  0.5003  0.6578  0.2784
   11SAPS  H10S 1387   1.379   3.199   7.131 -1.4550  1.3023 -2.0584
   11SAPS  C211 1388   1.269   3.038   7.213 -0.5800  0.0371  1.2080
   11SAPS  H11R 1389   1.232   2.977   7.129  1.0759  0.2565  0.2805
   11SAPS  C212 1390   1.305   2.988   7.332  0.0332  0.5396 -0.9082
   11SAPS  H12R 1391   1.295   2.881   7.356 -1.1717  0.9156  0.3962
   11SAPS  C213 1392   1.357   3.076   7.447  0.1791 -0.0779  0.3643
   11SAPS  H13R 1393   1.432   3.142   7.399  0.0834  0.9258  1.5494
   11SAPS  H13S 1394   1.404   3.012   7.525 -0.0661  1.8038  2.1330
   11SAPS  C214 1395   1.251   3.157   7.510  0.2534 -0.2673 -0.3369
   11SAPS  H14R 1396   1.157   3.160   7.453 -0.4617  2.6555  0.8288
   11SAPS  C215 1397   1.265   3.241   7.617 -0.7650  0.1489 -0.1730
   11SAPS  H15R 1398   1.180   3.295   7.660 -0.0309 -0.9940  2.9634
   11SAPS  C216 1399   1.397   3.260   7.679 -0.2857  0.0618  0.7554
   11SAPS  H16R 1400   1.427   3.367   7.666  1.2571 -0.5614 -1.2641
   11SAPS  H16S 1401   1.485   3.211   7.634 -1.0313  0.3203 -1.0792
   11SAPS  C217 1402   1.398   3.225   7.822 -0.3593 -0.1396  0.5276
   11SAPS  H17R 1403   1.502   3.219   7.862 -0.7038  0.7993  1.6087
   11SAPS  H17S 1404   1.343   3.133   7.851  0.0005 -0.1619  1.1652
   11SAPS  C218 1405   1.332   3.331   7.910  0.4668  0.0148 -0.3828
   11SAPS  H18R 1406   1.244   3.374   7.858 -2.0035  0.2957  3.6364
   11SAPS  H18S 1407   1.403   3.416   7.908  1.3580 -0.5889  2.2053
   11SAPS  C219 1408   1.281   3.295   8.055  0.5935 -0.4333 -0.8266
   11SAPS  H19R 1409   1.205   3.216   8.039  1.3548 -0.9192 -2.2940
   11SAPS  H19S 1410   1.226   3.377   8.107  1.2432 -0.4570 -0.0883
   11SAPS  C220 1411   1.388   3.251   8.155  0.4454 -0.2848  0.4348
   11SAPS  H20R 1412   1.474   3.321   8.155 -0.2695  0.6963 -1.8345
   11SAPS  H20S 1413   1.428   3.152   8.124 -0.2725  0.1333 -2.0475
   11SAPS  H20T 1414   1.349   3.252   8.260 -0.3167 -0.1722  0.1588
   11SAPS   C33 1415   2.025   2.988   6.744 -0.5018  0.7881 -0.7042
   11SAPS   H3X 1416   2.117   3.044   6.715  0.1449 -0.2973 -0.8015
   11SAPS   H3Y 1417   2.045   2.880   6.727 -1.3338  0.1809  1.8562
   11SAPS   C34 1418   1.986   2.994   6.888 -1.0778 -0.0369 -0.3903
   11SAPS   H4X 1419   1.926   2.905   6.914 -1.4877 -0.1539 -1.6747
   11SAPS   H4Y 1420   1.922   3.082   6.912  3.5193  3.1517  1.9941
   11SAPS   C35 1421   2.110   3.022   6.975 -0.1271  0.3073  0.5162
   11SAPS   H5X 1422   2.174   3.095   6.923 -1.6602 -0.7653 -3.2037
   11SAPS   H5Y 1423   2.166   2.926   6.973  1.1848  1.0700 -1.7204
   11SAPS   C36 1424   2.085   3.050   7.123  0.5628  0.0481  0.8222
   11SAPS   H6X 1425   2.029   3.145   7.136  0.4918 -0.2809  3.3845
   11SAPS   H6Y 1426   2.188   3.058   7.164  2.2096 -3.7421 -1.9491
   11SAPS   C37 1427   2.027   2.935   7.201  0.4739 -0.7123 -0.7555
   11SAPS   H7X 1428   2.099   2.850   7.198  2.8191  0.9752  2.4911
   11SAPS   H7Y 1429   1.936   2.888   7.157  0.9908 -1.2550 -1.2737
   11SAPS   C38 1430   2.021   2.944   7.356 -0.0373  0.2795 -0.0904
   11SAPS   H8X 1431   2.110   2.991   7.403 -1.1530  1.1714  1.1957
   11SAPS   H8Y 1432   2.016   2.838   7.390  4.3717  0.2504  1.0869
   11SAPS   C39 1433   1.893   3.020   7.395 -0.2571 -0.2851 -0.4830
   11SAPS   H9X 1434   1.795   2.970   7.377 -0.0202 -1.0628  0.3125
   11SAPS   H9Y 1435   1.899   3.122   7.351  3.6979  0.0643  0.4802
   11SAPS  C310 1436   1.886   3.042   7.549 -0.3346  0.0446  0.2295
   11SAPS  H10X 1437   1.787   3.088   7.571 -0.3474  0.0908  0.0725
   11SAPS  H10Y 1438   1.955   3.115   7.596 -1.3074  1.9316 -1.1682
   11SAPS  C311 1439   1.900   2.916   7.634 -0.2352 -0.4387 -0.0949
   11SAPS  H11X 1440   1.993   2.859   7.616 -0.9162 -2.4886  2.3260
   11SAPS  H11Y 1441   1.830   2.837   7.600 -0.7130 -0.0146 -0.1144
   11SAPS  C312 1442   1.880   2.938   7.784  0.0964 -0.0835 -0.4993
   11SAPS  H12X 1443   1.777   2.976   7.799  0.1863  0.0957 -0.3254
   11SAPS  H12Y 1444   1.955   3.015   7.813  0.8194 -0.6901 -0.7107
   11SAPS  C313 1445   1.913   2.808   7.869 -0.4140  0.4152 -1.0833
   11SAPS  H13X 1446   2.008   2.758   7.840  0.6702  1.6543  0.1838
   11SAPS  H13Y 1447   1.828   2.736   7.863 -0.0202 -0.0770 -0.8844
   11SAPS  C314 1448   1.931   2.845   8.024 -0.0170  1.0629 -0.2256
   11SAPS  H14X 1449   1.973   2.947   8.038  0.6080  1.2736 -3.0432
   11SAPS  H14Y 1450   2.011   2.779   8.064 -2.3336 -1.5315  0.4118
   11SAPS  C315 1451   1.797   2.817   8.084  0.4178 -0.3434 -0.6585
   11SAPS  H15X 1452   1.785   2.708   8.096 -0.7012 -0.3178 -1.3965
   11SAPS  H15Y 1453   1.713   2.866   8.031 -0.8102 -0.3132  1.2308
   11SAPS  C316 1454   1.800   2.873   8.231  0.2781 -0.3482  0.2685
   11SAPS  H16X 1455   1.818   2.983   8.232 -1.4897  0.0186  3.1643
   11SAPS  H16Y 1456   1.885   2.824   8.283  2.5096 -0.2606 -2.9882
   11SAPS  C317 1457   1.668   2.842   8.301  0.3738 -1.3892  0.6155
   11SAPS  H17X 1458   1.677   2.869   8.408 -0.4678  0.8320  0.1611
   11SAPS  H17Y 1459   1.636   2.736   8.289 -0.6090 -1.0769  0.4249
   11SAPS  C318 1460   1.550   2.929   8.254  0.1608  0.0345 -0.6992
   11SAPS  H18X 1461   1.583   3.032   8.279 -0.8919 -0.0413  1.1966
   11SAPS  H18Y 1462   1.452   2.915   8.305  0.9897 -1.5351  0.5386
   11SAPS  H18Z 1463   1.541   2.914   8.144  0.0502 -0.5528 -0.6094
   12SAPS     N 1464   0.736   0.884   5.951 -1.1866  0.7414  0.3154
   12SAPS   HN1 1465   0.774   0.927   6.038 -1.2496 -0.9595  1.2208
   12SAPS   HN2 1466   0.683   0.951   5.891  0.4939 -1.3579 -3.8425
   12SAPS   HN3 1467   0.674   0.812   5.994  1.5818 -2.2059 -0.2725
   12SAPS   C12 1468   0.836   0.814   5.865 -0.2071 -0.0316  0.3403
   12SAPS  H12A 1469   0.792   0.741   5.799  0.5545  0.6664 -0.9759
   12SAPS   C13 1470   0.935   0.894   5.782  0.7311 -0.1935 -0.5987
   12SAPS  O13A 1471   0.929   1.017   5.802 -0.7196 -0.5109  0.6914
   12SAPS  O13B 1472   1.012   0.849   5.702 -0.2534  0.4732  0.5924
   12SAPS   C11 1473   0.915   0.729   5.970 -0.5687  0.2702 -0.1590
   12SAPS  H11A 1474   0.974   0.799   6.032 -0.0310  0.5463 -0.9778
   12SAPS  H11B 1475   0.986   0.667   5.911  0.0171 -1.9095  2.6171
   12SAPS     P 1476   0.883   0.528   6.143 -0.2804  0.2799  0.2643
   12SAPS   O13 1477   0.789   0.414   6.136 -0.0439 -0.1240 -0.2952
   12SAPS   O14 1478   1.033   0.512   6.120  0.2453  0.0093 -0.3511
   12SAPS   O12 1479   0.836   0.642   6.049  0.0921 -0.4709  0.5869
   12SAPS   O11 1480   0.860   0.584   6.286 -0.0805  0.6666  0.1135
   12SAPS    C1 1481   0.758   0.675   6.323  0.5613  0.3106  0.0108
   12SAPS    HA 1482   0.738   0.748   6.241  0.2969 -1.3016 -1.4263
   12SAPS    HB 1483   0.659   0.628   6.344  0.4567  1.3473  2.0920
   12SAPS    C2 1484   0.795   0.745   6.451 -0.1221 -0.2367  0.0331
   12SAPS    HS 1485   0.899   0.784   6.442 -0.3413  1.0932  2.4939
   12SAPS   O21 1486   0.788   0.655   6.565  0.3864  0.0885  0.1602
   12SAPS   C21 1487   0.896   0.592   6.602  0.3440 -0.4259  0.5373
   12SAPS   O22 1488   0.989   0.570   6.532 -0.2911  0.3313  0.3908
   12SAPS   C22 1489   0.873   0.548   6.745 -0.8970  0.0073  1.1566
   12SAPS   H2R 1490   0.849   0.637   6.807 -0.2027  0.6517  0.5285
   12SAPS   H2S 1491   0.784   0.482   6.751 -1.3261  0.4486 -0.0494
   12SAPS    C3 1492   0.701   0.873   6.474  0.5800 -0.2722  0.1316
   12SAPS    HX 1493   0.605   0.829   6.508  0.8283  1.1722  2.9212
   12SAPS    HY 1494   0.677   0.939   6.388  0.7351 -0.5625 -0.1364
   12SAPS   O31 1495   0.749   0.954   6.584 -0.0801 -0.0225 -0.0950
   12SAPS   C31 1496   0.848   1.028   6.556  0.3260 -0.2157  0.8875
   12SAPS   O32 1497   0.908   1.029   6.446  0.4380 -0.2219 -0.1800
   12SAPS   C32 1498   0.881   1.115   6.680 -0.2042  0.3781 -0.3276
   12SAPS   H2X 1499   0.860   1.221   6.654 -2.2438 -0.5913 -3.1561
   12SAPS   H2Y 1500   0.990   1.102   6.693 -0.2992  0.7906  0.9923
   12SAPS   C23 1501   1.001   0.470   6.803 -0.2937  0.1003 -0.8930
   12SAPS   H3R 1502   1.098   0.523   6.803  0.5128 -1.2690  0.2774
   12SAPS   H3S 1503   1.014   0.372   6.751  1.4812 -1.1928  1.7416
   12SAPS   C24 1504   0.965   0.422   6.948  0.2367 -0.2087  0.1675
   12SAPS   H4R 1505   0.954   0.512   7.012  0.1942  0.2992 -0.5418
   12SAPS   H4S 1506   1.050   0.365   6.992 -1.5934 -2.2726  1.2190
   12SAPS   C25 1507   0.844   0.334   6.973  0.2876  0.1149 -0.5240
   12SAPS   H5R 1508   0.794   0.286   6.888 -2.2755 -0.0121  0.9436
   12SAPS   C26 1509   0.791   0.308   7.096  0.1719  0.1213  0.3292
   12SAPS   H6R 1510   0.699   0.250   7.106 -0.2500  0.8754  0.9335
   12SAPS   C27 1511   0.842   0.353   7.226 -0.2519  1.0520  0.5506
   12SAPS   H7R 1512   0.912   0.440   7.228  0.8748  0.1857  0.0689
   12SAPS   H7S 1513   0.899   0.264   7.262  0.9584  0.4689 -2.5261
   12SAPS   C28 1514   0.738   0.381   7.327  0.6258  0.1429 -0.4273
   12SAPS   H8R 1515   0.640   0.337   7.303  0.4263 -1.6781  3.0006
   12SAPS   C29 1516   0.754   0.416   7.456  0.2190  0.0660  0.0299
   12SAPS   H9R 1517   0.661   0.418   7.513  0.1399 -0.2923 -0.0865
   12SAPS  C210 1518   0.891   0.443   7.515 -0.4547 -0.4682 -0.2553
   12SAPS  H10R 1519   0.879   0.535   7.576 -0.5199  0.3610 -1.4853
   12SAPS  H10S 1520   0.970   0.469   7.442 -1.1845 -1.8961 -1.6033
   12SAPS  C211 1521   0.934   0.325   7.591  0.1668  0.3094 -0.3823
   12SAPS  H11R 1522   0.953   0.241   7.523  1.2810  0.5161 -0.3501
   12SAPS  C212 1523   0.962   0.325   7.721  0.0741  0.0950  0.6637
   12SAPS  H12R 1524   1.005   0.231   7.759  1.5588 -0.4615 -2.1483
   12SAPS  C213 1525   0.946   0.440   7.818 -1.1588 -0.7409  0.2944
   12SAPS  H13R 1526   0.913   0.537   7.774  2.6626  1.0797  1.0754
   12SAPS  H13S 1527   1.047   0.467   7.856 -1.3726 -0.3629  0.6085
   12SAPS  C214 1528   0.847   0.418   7.929  0.0605 -0.4278 -0.1405
   12SAPS  H14R 1529   0.746   0.413   7.888 -0.9934  0.1651  2.2315
   12SAPS  C215 1530   0.880   0.409   8.064 -0.2330  0.3093  0.0638
   12SAPS  H15R 1531   0.791   0.399   8.129 -0.1039  0.1652  0.2215
   12SAPS  C216 1532   1.011   0.421   8.131  0.2772 -0.0670  0.3189
   12SAPS  H16R 1533   0.996   0.487   8.219  1.9175 -0.5346  0.9897
   12SAPS  H16S 1534   1.081   0.481   8.068  0.9509 -0.7524  0.4017
   12SAPS  C217 1535   1.083   0.283   8.162 -0.1389  0.2704 -0.1531
   12SAPS  H17R 1536   1.190   0.300   8.185 -0.1905 -1.3183  1.4675
   12SAPS  H17S 1537   1.075   0.211   8.078 -1.0833 -0.6097  0.6629
   12SAPS  C218 1538   1.034   0.209   8.285  0.0157 -0.2996  0.5759
   12SAPS  H18R 1539   1.072   0.105   8.279 -1.0261 -0.6426 -0.4334
   12SAPS  H18S 1540   0.924   0.206   8.304  0.1028  0.6551  1.3670
   12SAPS  C219 1541   1.097   0.261   8.408  0.3599  0.0458  0.1127
   12SAPS  H19R 1542   1.054   0.363   8.418  1.2928  0.5221 -0.6193
   12SAPS  H19S 1543   1.208   0.271   8.405  0.3753 -0.3928 -0.8949
   12SAPS  C220 1544   1.037   0.186   8.528  0.1980 -0.5745  0.1266
   12SAPS  H20R 1545   1.085   0.221   8.621 -1.6371  3.3519 -0.2173
   12SAPS  H20S 1546   1.050   0.076   8.522 -1.8522 -0.9246  1.4309
   12SAPS  H20T 1547   0.928   0.204   8.536 -0.2896 -2.8293 -0.6418
   12SAPS   C33 1548   0.814   1.072   6.816  0.0403 -0.2703  0.3624
   12SAPS   H3X 1549   0.705   1.053   6.808 -0.2282  1.6803 -1.5678
   12SAPS   H3Y 1550   0.819   1.162   6.882 -2.0290 -0.4564  0.8513
   12SAPS   C34 1551   0.877   0.950   6.877 -0.3491 -0.4906 -0.0696
   12SAPS   H4X 1552   0.988   0.961   6.886 -0.5025 -0.1851  2.0713
   12SAPS   H4Y 1553   0.849   0.867   6.809  0.6360 -0.7365 -0.1951
   12SAPS   C35 1554   0.811   0.923   7.009  1.0856 -0.0871  0.0705
   12SAPS   H5X 1555   0.700   0.923   7.005  1.0988 -0.4534 -0.2924
   12SAPS   H5Y 1556   0.843   1.001   7.081 -0.8936 -0.8439  1.8748
   12SAPS   C36 1557   0.870   0.793   7.070  0.3541 -0.2946  0.1308
   12SAPS   H6X 1558   0.972   0.800   7.113  0.1249  1.3235  0.4841
   12SAPS   H6Y 1559   0.879   0.724   6.983  1.2399 -0.4934  0.3704
   12SAPS   C37 1560   0.789   0.738   7.189  0.2172 -0.0620  0.2128
   12SAPS   H7X 1561   0.839   0.645   7.226  0.1340  0.5191  1.8391
   12SAPS   H7Y 1562   0.694   0.703   7.143 -1.4784  0.2298  3.2239
   12SAPS   C38 1563   0.757   0.841   7.303 -0.5726 -0.2980 -0.0407
   12SAPS   H8X 1564   0.687   0.913   7.256  0.9062 -0.5086 -2.7669
   12SAPS   H8Y 1565   0.855   0.887   7.325 -0.0158 -1.1689 -0.6295
   12SAPS   C39 1566   0.726   0.764   7.433  0.0890 -1.0991 -0.0349
   12SAPS   H9X 1567   0.817   0.712   7.470  0.5503 -0.0587  0.3310
   12SAPS   H9Y 1568   0.644   0.691   7.416  0.3362 -1.5094  0.5140
   12SAPS  C310 1569   0.691   0.867   7.545 -0.2352  0.5067 -0.5838
   12SAPS  H10X 1570   0.585   0.894   7.524 -0.7205  0.5551  1.6810
   12SAPS  H10Y 1571   0.754   0.958   7.540  1.2423  0.0260  4.1136
   12SAPS  C311 1572   0.695   0.824   7.695 -0.2138  0.5137 -0.7245
   12SAPS  H11X 1573   0.682   0.911   7.763  1.7145  1.2116 -1.2010
   12SAPS  H11Y 1574   0.790   0.775   7.724 -0.9133 -0.6710 -0.3442
   12SAPS  C312 1575   0.581   0.730   7.718  0.2797  0.8576 -0.2361
   12SAPS  H12X 1576   0.599   0.633   7.666  2.3596  1.6356 -1.0970
   12SAPS  H12Y 1577   0.483   0.764   7.679 -0.6403 -0.0758  1.1712
   12SAPS  C313 1578   0.549   0.705   7.863  0.1671 -0.0307  0.0914
   12SAPS  H13X 1579   0.508   0.800   7.904 -0.1784  0.9477 -2.3756
   12SAPS  H13Y 1580   0.642   0.672   7.915  0.0516  0.0595  0.3593
   12SAPS  C314 1581   0.430   0.607   7.866 -0.5503  0.4556 -0.0583
   12SAPS  H14X 1582   0.469   0.519   7.810  1.1240  0.8004  0.4985
   12SAPS  H14Y 1583   0.354   0.656   7.803 -0.5537  0.1815 -0.2697
   12SAPS  C315 1584   0.383   0.548   8.003  0.0501  0.0219  0.1073
   12SAPS  H15X 1585   0.281   0.587   8.023 -0.0772 -1.5740  3.2168
   12SAPS  H15Y 1586   0.458   0.582   8.078  0.3021  0.4553 -0.3286
   12SAPS  C316 1587   0.380   0.401   8.021  0.3463  0.6445  0.4852
   12SAPS  H16X 1588   0.394   0.381   8.129  1.1018 -0.2748  0.2264
   12SAPS  H16Y 1589   0.474   0.363   7.975  0.2776 -0.5574  1.2753
   12SAPS  C317 1590   0.266   0.327   7.958 -0.5748 -0.1841 -0.2390
   12SAPS  H17X 1591   0.286   0.224   7.923  1.8671  0.7596 -1.8991
   12SAPS  H17Y 1592   0.259   0.380   7.861  1.9045  0.8385  0.0658
   12SAPS  C318 1593   0.138   0.340   8.039  0.7452 -0.3081  0.8788
   12SAPS  H18X 1594   0.128   0.282   8.133 -1.8898 -1.1771  0.1408
   12SAPS  H18Y 1595   0.058   0.285   7.985 -0.7882  2.4456  0.1685
   12SAPS  H18Z 1596   0.107   0.444   8.064 -0.0742 -0.3390  0.0263
   13SAPS     N 1597   6.584   2.922   6.142  0.2964 -0.3902  0.4004
   13SAPS   HN1 1598   6.636   2.924   6.232 -0.9121  3.3844  1.1965
   13SAPS   HN2 1599   6.499   2.862   6.149 -0.4623  0.4860 -0.9306
   13SAPS   HN3 1600   6.642   2.874   6.070 -1.4462  1.3504 -2.3469
   13SAPS   C12 1601   6.563   3.063   6.100  0.3799 -0.0572  1.0806
   13SAPS  H12A 1602   6.664   3.101   6.096 -0.1984  1.4043 -1.0395
   13SAPS   C13 1603   6.502   3.084   5.961 -0.5771  0.5628  0.3050
   13SAPS  O13A 1604   6.498   2.985   5.873  0.4811 -0.1217  0.1177
   13SAPS  O13B 1605   6.460   3.201   5.931  0.2831  0.2655  0.0284
   13SAPS   C11 1606   6.473   3.118   6.216  0.1319 -0.7908  0.4783
   13SAPS  H11A 1607   6.371   3.076   6.205  0.1189 -0.5368 -0.5165
   13SAPS  H11B 1608   6.458   3.227   6.198 -1.7948 -1.1037 -0.0834
   13SAPS     P 1609   6.448   3.107   6.477  0.2071  0.0015  0.4156
   13SAPS   O13 1610   6.537   3.175   6.573 -0.0747  0.0191  0.3489
   13SAPS   O14 1611   6.321   3.171   6.438 -0.4598 -0.3914  0.1492
   13SAPS   O12 1612   6.531   3.102   6.340  0.1562 -0.3201  0.2181
   13SAPS   O11 1613   6.435   2.956   6.511 -0.1206  0.0383  0.1592
   13SAPS    C1 1614   6.444   2.910   6.645 -0.6597  0.9769 -0.3096
   13SAPS    HA 1615   6.548   2.875   6.662  0.5048  3.5325 -1.7299
   13SAPS    HB 1616   6.424   2.993   6.716  1.5806  0.0385  1.5620
   13SAPS    C2 1617   6.348   2.795   6.662  0.3660  0.0093 -0.4146
   13SAPS    HS 1618   6.248   2.827   6.625  1.0045  1.1460 -1.2126
   13SAPS   O21 1619   6.359   2.754   6.801  0.0241  0.6317  0.8455
   13SAPS   C21 1620   6.261   2.816   6.868 -0.5446 -0.5798  0.2512
   13SAPS   O22 1621   6.206   2.921   6.845 -0.5263 -0.2271 -0.2626
   13SAPS   C22 1622   6.229   2.733   6.995 -0.2688  0.1662  0.3286
   13SAPS   H2R 1623   6.190   2.634   6.962  1.9802  0.2345 -3.0864
   13SAPS   H2S 1624   6.325   2.715   7.049 -0.0142  0.8447  0.1110
   13SAPS    C3 1625   6.387   2.671   6.575  0.4710 -0.1173  0.5952
   13SAPS    HX 1626   6.492   2.645   6.600  0.3577 -0.4714  0.7008
   13SAPS    HY 1627   6.383   2.708   6.470 -1.6858 -0.8997  0.3576
   13SAPS   O31 1628   6.302   2.556   6.589 -0.1866 -0.6154  0.3486
   13SAPS   C31 1629   6.174   2.553   6.561 -0.9664  0.4086  0.3226
   13SAPS   O32 1630   6.108   2.642   6.513  0.5368 -0.4320  0.8559
   13SAPS   C32 1631   6.116   2.425   6.627  0.1129 -0.0091 -0.0434
   13SAPS   H2X 1632   6.165   2.331   6.594 -2.3229 -1.1842 -0.5334
   13SAPS   H2Y 1633   6.011   2.428   6.591  0.5926  2.5237 -1.4410
   13SAPS   C23 1634   6.123   2.803   7.091 -0.2332  0.0478  0.7029
   13SAPS   H3R 1635   6.030   2.826   7.034 -0.7835  0.0546  1.5833
   13SAPS   H3S 1636   6.169   2.898   7.126  0.9144  0.2164 -1.1334
   13SAPS   C24 1637   6.079   2.716   7.214 -0.1984  0.0539  0.1453
   13SAPS   H4R 1638   6.048   2.617   7.174  0.4794  0.5071 -1.5827
   13SAPS   H4S 1639   5.998   2.766   7.271  0.5015 -1.8150  2.9973
   13SAPS   C25 1640   6.204   2.698   7.299  0.9166 -0.2670 -0.3381
   13SAPS   H5R 1641   6.292   2.669   7.240  1.5270  0.8035  0.0284
   13SAPS   C26 1642   6.210   2.716   7.433  0.9100  0.4606  0.3487
   13SAPS   H6R 1643   6.311   2.704   7.475  2.0561  0.6213 -2.1664
   13SAPS   C27 1644   6.088   2.763   7.517 -1.0427 -0.7182  0.1866
   13SAPS   H7R 1645   6.046   2.855   7.472 -3.6978 -1.8401  0.1495
   13SAPS   H7S 1646   6.134   2.814   7.604  0.9765 -1.4915 -0.3721
   13SAPS   C28 1647   5.979   2.669   7.567 -0.3902 -0.2189 -0.0856
   13SAPS   H8R 1648   5.934   2.617   7.481  2.7251 -0.5846 -1.6180
   13SAPS   C29 1649   5.924   2.659   7.689 -0.3955  0.8465  0.4254
   13SAPS   H9R 1650   5.854   2.575   7.704  1.5422 -0.9678 -0.2528
   13SAPS  C210 1651   5.947   2.741   7.809 -0.0163  0.2753  0.1608
   13SAPS  H10R 1652   5.979   2.843   7.780  1.9257 -0.7958 -1.8473
   13SAPS  H10S 1653   6.029   2.696   7.869 -0.1569  0.8177  0.7583
   13SAPS  C211 1654   5.822   2.746   7.892 -0.0475  0.1246  0.0028
   13SAPS  H11R 1655   5.755   2.826   7.856  1.0893  1.2311  0.2431
   13SAPS  C212 1656   5.789   2.660   7.996 -0.0241  0.0070  0.1308
   13SAPS  H12R 1657   5.700   2.689   8.054 -0.1118  0.5601 -0.2712
   13SAPS  C213 1658   5.873   2.544   8.054 -0.2183  0.3121 -0.1865
   13SAPS  H13R 1659   5.959   2.518   7.988 -1.2405 -1.3881 -0.9060
   13SAPS  H13S 1660   5.810   2.453   8.052 -1.6974  1.2748  0.8190
   13SAPS  C214 1661   5.938   2.593   8.180  0.2672 -0.4556 -0.0123
   13SAPS  H14R 1662   6.009   2.677   8.174 -2.0964  1.5391 -1.7852
   13SAPS  C215 1663   5.927   2.523   8.298 -0.1084 -0.4808 -0.0926
   13SAPS  H15R 1664   5.963   2.564   8.393  0.1625 -1.6873  0.3407
   13SAPS  C216 1665   5.851   2.397   8.316 -0.6157  0.2189  0.3837
   13SAPS  H16R 1666   5.910   2.334   8.386  1.9729  0.3562 -1.5291
   13SAPS  H16S 1667   5.850   2.338   8.222 -0.7455 -0.9391  1.0816
   13SAPS  C217 1668   5.713   2.411   8.388  0.1805  0.4177  0.2072
   13SAPS  H17R 1669   5.665   2.311   8.384 -0.2685  0.5858  1.1455
   13SAPS  H17S 1670   5.659   2.492   8.335  2.0288  1.6464  0.1417
   13SAPS  C218 1671   5.715   2.462   8.527  0.0965  0.0404  0.5568
   13SAPS  H18R 1672   5.743   2.569   8.530  1.2202 -0.2573  1.4906
   13SAPS  H18S 1673   5.786   2.409   8.595 -1.6077 -0.6543  1.8433
   13SAPS  C219 1674   5.579   2.450   8.607 -0.1714 -0.4034  0.2734
   13SAPS  H19R 1675   5.566   2.340   8.619 -2.3224 -0.4773 -1.9312
   13SAPS  H19S 1676   5.499   2.490   8.540  0.4028  0.9153  0.3549
   13SAPS  C220 1677   5.582   2.530   8.733 -0.0282 -0.0130  0.3111
   13SAPS  H20R 1678   5.490   2.528   8.794  0.3351 -1.7346  0.8420
   13SAPS  H20S 1679   5.620   2.632   8.710  1.8831 -0.5689  0.8407
   13SAPS  H20T 1680   5.653   2.481   8.803  0.1843 -1.3501 -0.7923
   13SAPS   C33 1681   6.117   2.433   6.780 -0.0985 -0.5125  0.3151
   13SAPS   H3X 1682   6.071   2.523   6.828  1.6604 -1.1152  3.3687
   13SAPS   H3Y 1683   6.224   2.436   6.808 -0.3555 -0.0372  1.2928
   13SAPS   C34 1684   6.041   2.312   6.824  0.2179  0.0696 -0.5813
   13SAPS   H4X 1685   6.099   2.219   6.809 -0.8364 -0.5307 -0.9611
   13SAPS   H4Y 1686   5.943   2.308   6.773  0.2981 -0.7106 -0.6774
   13SAPS   C35 1687   6.030   2.301   6.977  0.0307 -0.0339  0.2658
   13SAPS   H5X 1688   5.998   2.399   7.018 -1.0933 -0.3676  0.2179
   13SAPS   H5Y 1689   6.134   2.284   7.013  0.8576  2.9067 -0.4407
   13SAPS   C36 1690   5.944   2.181   7.020 -0.0684  0.5642  0.1696
   13SAPS   H6X 1691   5.972   2.080   6.982 -1.0821 -0.6636  2.4566
   13SAPS   H6Y 1692   5.840   2.206   6.990 -1.0540 -1.3302  1.7773
   13SAPS   C37 1693   5.924   2.154   7.169 -0.1277 -0.5849 -0.3973
   13SAPS   H7X 1694   5.915   2.258   7.208  1.6781  0.3370 -2.2945
   13SAPS   H7Y 1695   6.021   2.112   7.204  0.0263  0.4851  0.5031
   13SAPS   C38 1696   5.799   2.072   7.202 -0.4045 -0.0489 -0.1518
   13SAPS   H8X 1697   5.818   1.971   7.159  0.6699 -0.5360  1.3631
   13SAPS   H8Y 1698   5.722   2.128   7.145  1.3908  0.3428 -2.3447
   13SAPS   C39 1699   5.769   2.055   7.349  0.7002 -0.0640  0.1793
   13SAPS   H9X 1700   5.746   2.148   7.404 -0.4759 -1.3634  2.0102
   13SAPS   H9Y 1701   5.845   2.011   7.416  0.3414  0.2411  0.7910
   13SAPS  C310 1702   5.643   1.970   7.373 -0.0060  0.9656 -0.2169
   13SAPS  H10X 1703   5.655   1.862   7.354 -0.8244  0.3241  2.4036
   13SAPS  H10Y 1704   5.565   1.993   7.297 -0.0086  0.6914 -0.2987
   13SAPS  C311 1705   5.599   1.984   7.516  0.0509 -0.6266 -0.6568
   13SAPS  H11X 1706   5.582   2.090   7.544  0.2478 -1.0506  1.1924
   13SAPS  H11Y 1707   5.683   1.953   7.580 -0.8731 -0.2121  0.8061
   13SAPS  C312 1708   5.472   1.903   7.552 -0.4773  0.0073  0.4464
   13SAPS  H12X 1709   5.492   1.795   7.540 -0.2218 -0.1663  2.1380
   13SAPS  H12Y 1710   5.386   1.937   7.491 -1.0588 -1.5790  0.3432
   13SAPS  C313 1711   5.421   1.915   7.699  0.8026  0.5211 -0.0228
   13SAPS  H13X 1712   5.404   2.023   7.716  3.0318  1.2263 -1.7284
   13SAPS  H13Y 1713   5.501   1.888   7.772  1.1192  1.8809  0.1486
   13SAPS  C314 1714   5.286   1.837   7.723 -0.3557 -0.5361 -0.8023
   13SAPS  H14X 1715   5.291   1.732   7.687 -0.2901 -2.0191  3.0662
   13SAPS  H14Y 1716   5.196   1.885   7.680 -0.2375  1.6788  1.1816
   13SAPS  C315 1717   5.258   1.817   7.872  0.2338 -0.0704  0.2182
   13SAPS  H15X 1718   5.283   1.909   7.929 -1.9687  0.2521  0.7382
   13SAPS  H15Y 1719   5.329   1.737   7.904 -0.0140 -0.9479 -1.3281
   13SAPS  C316 1720   5.118   1.769   7.904  0.9783  0.4845 -0.2477
   13SAPS  H16X 1721   5.107   1.678   7.841 -2.4012  1.6046 -1.4346
   13SAPS  H16Y 1722   5.037   1.840   7.880 -1.5552 -2.7718 -2.1843
   13SAPS  C317 1723   5.098   1.712   8.039 -0.0780 -0.2816  0.0226
   13SAPS  H17X 1724   5.192   1.665   8.076 -0.5829 -0.8258  0.6465
   13SAPS  H17Y 1725   5.027   1.628   8.026 -0.7847  0.3145 -0.0509
   13SAPS  C318 1726   5.047   1.805   8.149  0.3713  0.1017  0.5497
   13SAPS  H18X 1727   4.944   1.840   8.127  0.1354  0.1757  1.7434
   13SAPS  H18Y 1728   5.120   1.887   8.165 -1.0996  0.9125  3.9833
   13SAPS  H18Z 1729   5.044   1.746   8.243  2.6478 -1.3219 -0.1939
   14SAPS     N 1730   0.698   3.811   5.847  0.2189  0.2277 -0.2600
   14SAPS   HN1 1731   0.762   3.893   5.854 -1.7888  1.7515  1.9142
   14SAPS   HN2 1732   0.700   3.744   5.927  1.2043 -1.1044 -1.3680
   14SAPS   HN3 1733   0.713   3.754   5.762 -1.9814 -0.5950 -0.1604
   14SAPS   C12 1734   0.557   3.860   5.852  0.3433  0.0934 -0.3176
   14SAPS  H12A 1735   0.537   3.891   5.750  1.8949  0.3271 -0.5873
   14SAPS   C13 1736   0.456   3.749   5.893 -0.0070  0.1003  0.4037
   14SAPS  O13A 1737   0.497   3.637   5.937  0.0852 -0.4737 -0.1473
   14SAPS  O13B 1738   0.337   3.765   5.861 -0.0227  0.1249  0.2447
   14SAPS   C11 1739   0.540   3.974   5.950  0.1991 -0.1849  0.3277
   14SAPS  H11A 1740   0.536   3.933   6.053 -2.1534  0.6781  0.6328
   14SAPS  H11B 1741   0.440   4.017   5.926  0.3378  1.0031  1.7411
   14SAPS     P 1742   0.663   4.195   6.033  0.0792 -0.0592 -0.1240
   14SAPS   O13 1743   0.808   4.223   6.015  0.4034 -0.6437 -0.2797
   14SAPS   O14 1744   0.568   4.301   5.996 -0.0740 -0.2998  0.2144
   14SAPS   O12 1745   0.643   4.073   5.934  0.5413 -0.0428  0.2875
   14SAPS   O11 1746   0.627   4.139   6.180  0.6172 -0.0274  0.2802
   14SAPS    C1 1747   0.703   4.031   6.240 -0.2449  0.7895 -0.2283
   14SAPS    HA 1748   0.638   3.942   6.258  1.3919 -0.8864 -2.0701
   14SAPS    HB 1749   0.779   3.993   6.168  0.5711  0.1885  0.9311
   14SAPS    C2 1750   0.760   4.077   6.376 -0.0191  0.3373  0.6213
   14SAPS    HS 1751   0.845   4.013   6.407  0.0339  0.3445  0.4920
   14SAPS   O21 1752   0.653   4.077   6.472  0.4468  0.0577  0.3482
   14SAPS   C21 1753   0.647   3.966   6.546  0.3294 -0.4168 -0.8787
   14SAPS   O22 1754   0.699   3.857   6.516  0.1274  0.1222  0.6261
   14SAPS   C22 1755   0.565   4.006   6.670 -0.1130  0.3150  0.0282
   14SAPS   H2R 1756   0.596   4.099   6.723 -0.3679 -0.1944  1.0970
   14SAPS   H2S 1757   0.463   4.018   6.627  0.1244  0.4992 -0.4963
   14SAPS    C3 1758   0.809   4.225   6.369 -0.8371 -0.0940  0.0708
   14SAPS    HX 1759   0.725   4.291   6.338  0.0982  1.7854  1.3368
   14SAPS    HY 1760   0.900   4.216   6.306  1.0061 -1.9099  2.8267
   14SAPS   O31 1761   0.866   4.264   6.495  0.3132 -0.2794  0.3848
   14SAPS   C31 1762   0.787   4.330   6.579  0.7295  0.7999  0.4072
   14SAPS   O32 1763   0.679   4.381   6.548  0.2359  0.5403 -0.4875
   14SAPS   C32 1764   0.847   4.325   6.723  0.6720 -0.1243  0.1493
   14SAPS   H2X 1765   0.939   4.387   6.718  2.0306 -1.9360  1.4350
   14SAPS   H2Y 1766   0.875   4.222   6.754 -1.6607 -0.4579  1.3985
   14SAPS   C23 1767   0.570   3.888   6.777  0.6223 -0.1361 -0.0391
   14SAPS   H3R 1768   0.669   3.900   6.827  0.2212 -2.9802  1.6333
   14SAPS   H3S 1769   0.558   3.792   6.723 -2.9474 -0.0837  0.4432
   14SAPS   C24 1770   0.465   3.907   6.883 -0.1554  0.2612 -0.4173
   14SAPS   H4R 1771   0.475   3.823   6.955  0.2498  0.8960  0.2792
   14SAPS   H4S 1772   0.367   3.889   6.834  0.6520 -0.6712 -1.7785
   14SAPS   C25 1773   0.469   4.038   6.961 -0.3155 -0.0706 -0.1892
   14SAPS   H5R 1774   0.391   4.103   6.919 -1.4814  0.5078  2.6317
   14SAPS   C26 1775   0.534   4.073   7.071 -0.1276 -0.1708 -0.2339
   14SAPS   H6R 1776   0.521   4.177   7.104 -2.0931 -0.3854 -0.1822
   14SAPS   C27 1777   0.635   3.989   7.143 -0.0423 -0.1760  0.2008
   14SAPS   H7R 1778   0.700   3.937   7.069 -1.6255  0.2785 -1.5944
   14SAPS   H7S 1779   0.582   3.904   7.192 -0.3941 -0.3596 -0.4812
   14SAPS   C28 1780   0.719   4.074   7.236  0.9399 -0.4717 -0.3024
   14SAPS   H8R 1781   0.788   4.134   7.174 -1.1183  0.6791 -1.6172
   14SAPS   C29 1782   0.728   4.063   7.371  0.0988  0.2384  0.1090
   14SAPS   H9R 1783   0.810   4.113   7.424  0.7632 -0.7605  0.0361
   14SAPS  C210 1784   0.650   3.969   7.461 -0.1155 -0.1293 -0.5276
   14SAPS  H10R 1785   0.702   3.942   7.555 -1.2266  1.0353  0.4503
   14SAPS  H10S 1786   0.640   3.869   7.413  0.4163 -0.6770  0.4790
   14SAPS  C211 1787   0.512   4.024   7.493 -0.7238 -0.1425  0.3949
   14SAPS  H11R 1788   0.458   4.076   7.413 -1.6565  0.9015  1.6672
   14SAPS  C212 1789   0.449   4.001   7.614 -0.3523 -0.2230  0.3325
   14SAPS  H12R 1790   0.349   4.044   7.630 -0.7423 -0.8896 -0.2429
   14SAPS  C213 1791   0.493   3.921   7.732  0.0027 -0.1591  0.6065
   14SAPS  H13R 1792   0.603   3.907   7.731  0.0558  0.2643  0.3221
   14SAPS  H13S 1793   0.444   3.822   7.721 -1.1772  0.1575  2.4820
   14SAPS  C214 1794   0.457   3.974   7.867 -0.5356 -0.0119  0.5599
   14SAPS  H14R 1795   0.380   4.052   7.866 -0.4816  0.0411  0.4384
   14SAPS  C215 1796   0.527   3.956   7.980 -0.1827  0.9583 -0.3022
   14SAPS  H15R 1797   0.473   3.978   8.074 -0.5006 -2.2165  0.3832
   14SAPS  C216 1798   0.644   3.859   7.994 -0.0423 -1.4187  0.2906
   14SAPS  H16R 1799   0.726   3.918   8.039 -0.4757  0.0860 -0.8342
   14SAPS  H16S 1800   0.677   3.818   7.896 -1.6477 -2.9764  0.3439
   14SAPS  C217 1801   0.614   3.730   8.069 -0.3296  0.2756 -0.3334
   14SAPS  H17R 1802   0.710   3.674   8.067 -0.2992  0.3330 -0.7256
   14SAPS  H17S 1803   0.546   3.667   8.008 -0.5595  2.4333 -2.4725
   14SAPS  C218 1804   0.568   3.754   8.215 -0.5853  0.7898  0.3847
   14SAPS  H18R 1805   0.467   3.799   8.222 -1.3493 -0.7665 -0.1238
   14SAPS  H18S 1806   0.638   3.814   8.278  1.2993 -1.4135  0.5277
   14SAPS  C219 1807   0.563   3.624   8.290  0.3109  0.3091 -0.0145
   14SAPS  H19R 1808   0.557   3.538   8.220 -0.8922 -0.2734  0.7641
   14SAPS  H19S 1809   0.472   3.614   8.354 -0.3591 -0.8368 -1.0880
   14SAPS  C220 1810   0.686   3.609   8.380 -0.4967 -0.1924  0.0766
   14SAPS  H20R 1811   0.782   3.610   8.325  0.3460  1.1826  1.4818
   14SAPS  H20S 1812   0.681   3.505   8.417 -1.8017 -0.1962 -0.0726
   14SAPS  H20T 1813   0.696   3.685   8.460  2.0526  1.3042 -1.5043
   14SAPS   C33 1814   0.746   4.395   6.819 -0.2500 -0.4342 -0.2578
   14SAPS   H3X 1815   0.644   4.350   6.822  0.3296 -1.7520  1.4286
   14SAPS   H3Y 1816   0.740   4.502   6.791  0.5328 -0.2691  0.1762
   14SAPS   C34 1817   0.811   4.389   6.958  0.0111  0.9243 -0.2622
   14SAPS   H4X 1818   0.917   4.418   6.943  0.2105  0.2307 -0.2236
   14SAPS   H4Y 1819   0.818   4.286   6.997  2.6914  1.0172 -0.3106
   14SAPS   C35 1820   0.751   4.483   7.065  0.4282  0.3565 -0.7881
   14SAPS   H5X 1821   0.658   4.438   7.107 -0.6532  1.3168 -2.0385
   14SAPS   H5Y 1822   0.730   4.583   7.021  2.2972  0.9793 -0.3387
   14SAPS   C36 1823   0.851   4.525   7.171 -0.1767  0.3174 -0.2841
   14SAPS   H6X 1824   0.861   4.633   7.193  2.4466  0.0951 -0.1169
   14SAPS   H6Y 1825   0.956   4.494   7.151  0.0299  0.1941  0.9222
   14SAPS   C37 1826   0.822   4.447   7.310  1.2032  0.0430  0.0195
   14SAPS   H7X 1827   0.827   4.338   7.291  0.1294  0.1027 -0.7324
   14SAPS   H7Y 1828   0.714   4.467   7.328  1.2301  0.9677 -0.7377
   14SAPS   C38 1829   0.914   4.485   7.428 -0.3482  0.0115  0.5069
   14SAPS   H8X 1830   0.897   4.593   7.450 -3.4212  0.3008 -2.3708
   14SAPS   H8Y 1831   1.018   4.464   7.396 -0.8469  1.3301 -2.2946
   14SAPS   C39 1832   0.870   4.402   7.553  0.5074 -0.0762  0.1709
   14SAPS   H9X 1833   0.915   4.300   7.553 -1.8815 -1.2308 -1.7343
   14SAPS   H9Y 1834   0.760   4.388   7.551  0.3651  0.8507 -2.4294
   14SAPS  C310 1835   0.898   4.483   7.680 -0.8965 -0.3560 -0.3009
   14SAPS  H10X 1836   0.881   4.590   7.653  0.4314  0.0449  0.3299
   14SAPS  H10Y 1837   1.003   4.466   7.714 -1.0222 -0.8680 -0.1736
   14SAPS  C311 1838   0.817   4.451   7.807 -0.1765 -0.4578 -0.6785
   14SAPS  H11X 1839   0.829   4.342   7.827  0.6590 -0.2316  0.1185
   14SAPS  H11Y 1840   0.708   4.471   7.805 -0.5095 -2.0887 -0.2581
   14SAPS  C312 1841   0.879   4.519   7.940  0.1284  0.0807  0.1221
   14SAPS  H12X 1842   0.893   4.628   7.928  0.0904  0.1817  0.9416
   14SAPS  H12Y 1843   0.981   4.485   7.966 -0.3248 -0.8043  0.7963
   14SAPS  C313 1844   0.783   4.482   8.061 -0.6082 -0.0047  0.4174
   14SAPS  H13X 1845   0.680   4.487   8.020 -1.2745  2.8750  2.1530
   14SAPS  H13Y 1846   0.803   4.564   8.133  2.7693  0.8928 -1.3300
   14SAPS  C314 1847   0.821   4.352   8.129  0.1760 -0.1293 -0.0746
   14SAPS  H14X 1848   0.924   4.358   8.168 -1.3312  1.8714  4.2693
   14SAPS  H14Y 1849   0.807   4.275   8.051  0.8630  0.0736 -0.3994
   14SAPS  C315 1850   0.721   4.340   8.243 -0.1420  0.6915  0.5688
   14SAPS  H15X 1851   0.621   4.319   8.199  1.5613 -2.8940 -2.0951
   14SAPS  H15Y 1852   0.715   4.436   8.299 -1.6757  2.9661 -3.0774
   14SAPS  C316 1853   0.769   4.235   8.348  0.0620  0.0898  0.4651
   14SAPS  H16X 1854   0.710   4.263   8.437 -1.2292  1.7971 -0.8445
   14SAPS  H16Y 1855   0.877   4.254   8.365  1.1635 -2.9524 -2.0667
   14SAPS  C317 1856   0.743   4.090   8.298  0.1106 -0.7533  0.2589
   14SAPS  H17X 1857   0.719   4.090   8.190  1.3440 -2.5680 -0.0593
   14SAPS  H17Y 1858   0.655   4.040   8.344 -0.0094  0.1885  1.0897
   14SAPS  C318 1859   0.861   3.997   8.332  0.1234  0.0059  0.0005
   14SAPS  H18X 1860   0.937   4.010   8.251  0.4415  0.8274  0.4198
   14SAPS  H18Y 1861   0.831   3.890   8.326 -0.7174  0.0701  2.0953
   14SAPS  H18Z 1862   0.898   4.013   8.435 -0.0348  0.1657  0.0308
   15SAPS     N 1863   1.051   3.459   5.755 -0.0005 -0.1817  0.3685
   15SAPS   HN1 1864   0.984   3.437   5.832 -2.2402  1.4222 -1.0032
   15SAPS   HN2 1865   1.052   3.376   5.692  0.5111  0.6201 -0.6977
   15SAPS   HN3 1866   1.147   3.474   5.793 -0.4380  0.9786  1.0625
   15SAPS   C12 1867   0.993   3.577   5.694 -0.4390 -0.1579  0.9936
   15SAPS  H12A 1868   1.049   3.593   5.603  2.4331 -2.6929  2.1245
   15SAPS   C13 1869   0.837   3.564   5.654 -0.1249  0.1785 -0.1243
   15SAPS  O13A 1870   0.776   3.464   5.680 -0.0502 -0.1620 -0.0224
   15SAPS  O13B 1871   0.787   3.671   5.610 -0.7091  0.2469 -0.5316
   15SAPS   C11 1872   1.014   3.694   5.791  1.2865  0.5369 -0.1722
   15SAPS  H11A 1873   0.958   3.670   5.884  0.4872  2.1794 -0.1918
   15SAPS  H11B 1874   0.965   3.782   5.744 -0.4972 -1.5845 -2.5683
   15SAPS     P 1875   1.200   3.813   5.942 -0.0094  0.4804  0.5842
   15SAPS   O13 1876   1.347   3.791   5.944  0.3487  0.3343  0.6098
   15SAPS   O14 1877   1.162   3.952   5.902 -0.2005 -0.4898 -0.3482
   15SAPS   O12 1878   1.146   3.719   5.826 -0.0543  0.7217  0.0075
   15SAPS   O11 1879   1.133   3.752   6.069  0.0584  0.6310 -0.0135
   15SAPS    C1 1880   1.171   3.623   6.124  0.2500 -0.0739  0.3043
   15SAPS    HA 1881   1.078   3.562   6.130  0.2702 -0.3744 -1.7655
   15SAPS    HB 1882   1.231   3.567   6.049 -1.3236 -0.5607 -0.6477
   15SAPS    C2 1883   1.247   3.626   6.259  0.6681 -0.5267  0.7298
   15SAPS    HS 1884   1.266   3.525   6.301  3.9350  0.3054  1.5517
   15SAPS   O21 1885   1.171   3.707   6.349  0.0837 -0.1083 -0.5906
   15SAPS   C21 1886   1.181   3.676   6.471  0.0556 -0.3248  0.1560
   15SAPS   O22 1887   1.223   3.572   6.520  0.4076  0.7169  0.6533
   15SAPS   C22 1888   1.102   3.788   6.554  0.0135 -0.2373 -0.0438
   15SAPS   H2R 1889   1.060   3.850   6.472  1.4459 -0.1812 -0.7657
   15SAPS   H2S 1890   1.018   3.744   6.612  0.0681 -0.9335 -0.4848
   15SAPS    C3 1891   1.393   3.675   6.240 -0.2991 -0.0458  0.2655
   15SAPS    HX 1892   1.394   3.781   6.206  0.6223 -0.4556 -1.0635
   15SAPS    HY 1893   1.429   3.606   6.160  0.1370 -1.1795  1.4115
   15SAPS   O31 1894   1.482   3.673   6.354 -0.3382  0.0188 -0.0721
   15SAPS   C31 1895   1.608   3.655   6.331  0.1533  0.1460 -0.0754
   15SAPS   O32 1896   1.661   3.651   6.221  0.2326  0.5075 -0.2120
   15SAPS   C32 1897   1.685   3.631   6.470  0.0717  0.2052  0.0056
   15SAPS   H2X 1898   1.609   3.625   6.551  1.5757 -0.3842  1.4242
   15SAPS   H2Y 1899   1.741   3.725   6.490 -1.4309  1.2674 -0.6461
   15SAPS   C23 1900   1.193   3.880   6.646 -0.0424  0.5972 -0.5768
   15SAPS   H3R 1901   1.268   3.924   6.576 -0.4521  1.0480 -0.7424
   15SAPS   H3S 1902   1.248   3.813   6.715 -1.9377  0.9209  1.3518
   15SAPS   C24 1903   1.119   3.981   6.730  0.7921 -0.0020  0.1252
   15SAPS   H4R 1904   1.051   4.034   6.660  1.7598  0.6570 -0.3179
   15SAPS   H4S 1905   1.195   4.050   6.772  1.6667 -1.2883  0.7255
   15SAPS   C25 1906   1.028   3.943   6.848  0.5795 -0.2029 -0.1217
   15SAPS   H5R 1907   0.937   3.892   6.811  0.2650  0.8912 -0.9471
   15SAPS   C26 1908   1.045   3.973   6.979  0.6538 -0.1206  0.1268
   15SAPS   H6R 1909   0.982   3.916   7.048 -0.0863  0.7247  0.1690
   15SAPS   C27 1910   1.161   4.043   7.049 -0.2003 -0.7037  0.0836
   15SAPS   H7R 1911   1.251   4.063   6.986  0.4233 -2.4878  0.3447
   15SAPS   H7S 1912   1.205   3.980   7.129  3.6606  0.4037 -0.9524
   15SAPS   C28 1913   1.122   4.183   7.107  0.5752 -0.1652  0.2382
   15SAPS   H8R 1914   1.097   4.260   7.034  0.6572 -0.4088 -0.0478
   15SAPS   C29 1915   1.107   4.221   7.232  0.1073 -0.0510 -0.4776
   15SAPS   H9R 1916   1.071   4.322   7.258  0.6485 -0.1246  0.5897
   15SAPS  C210 1917   1.128   4.128   7.357 -0.2931 -0.0412  0.3109
   15SAPS  H10R 1918   1.070   4.037   7.331  0.1365  0.2587 -1.9088
   15SAPS  H10S 1919   1.070   4.175   7.439 -1.7984  1.6950 -1.6375
   15SAPS  C211 1920   1.273   4.088   7.390  0.0687 -0.6188 -0.8275
   15SAPS  H11R 1921   1.334   4.039   7.313  2.1970 -0.8560  0.9146
   15SAPS  C212 1922   1.339   4.100   7.515  0.2985  0.3724  0.0798
   15SAPS  H12R 1923   1.446   4.086   7.537  0.6788  1.7235 -0.8062
   15SAPS  C213 1924   1.276   4.166   7.635 -0.0377 -0.5231  0.2778
   15SAPS  H13R 1925   1.245   4.270   7.609  1.1940  0.0403  0.9866
   15SAPS  H13S 1926   1.355   4.178   7.712 -2.0676 -0.9579  2.5343
   15SAPS  C214 1927   1.155   4.091   7.695 -0.2300  0.4609  0.2927
   15SAPS  H14R 1928   1.121   4.005   7.637 -1.9396  1.4668 -0.2854
   15SAPS  C215 1929   1.088   4.109   7.810  0.4897  0.0791  1.0609
   15SAPS  H15R 1930   1.000   4.043   7.818 -0.6238  1.3365 -0.2583
   15SAPS  C216 1931   1.121   4.218   7.909  0.1165 -0.1769 -0.4656
   15SAPS  H16R 1932   1.025   4.254   7.951  0.0115 -1.0315  0.0514
   15SAPS  H16S 1933   1.165   4.306   7.857  1.3738 -0.3619  0.2375
   15SAPS  C217 1934   1.223   4.184   8.020  0.3540 -0.0040  0.6382
   15SAPS  H17R 1935   1.322   4.184   7.969  0.3066  0.7271  0.5343
   15SAPS  H17S 1936   1.195   4.082   8.054 -0.6831 -1.1135 -3.1307
   15SAPS  C218 1937   1.224   4.282   8.145  0.1997  0.0179 -0.1217
   15SAPS  H18R 1938   1.124   4.273   8.193  0.9046  0.9635  1.6522
   15SAPS  H18S 1939   1.232   4.386   8.105 -1.9971 -0.2187 -1.2952
   15SAPS  C219 1940   1.334   4.251   8.245  0.3528  0.6745  0.0064
   15SAPS  H19R 1941   1.330   4.141   8.256 -0.2346  0.4933 -1.7229
   15SAPS  H19S 1942   1.307   4.301   8.340  0.8771 -1.0074  1.0776
   15SAPS  C220 1943   1.476   4.277   8.191  0.4942 -0.2147 -0.1856
   15SAPS  H20R 1944   1.550   4.235   8.263  0.9822 -1.4430 -1.3557
   15SAPS  H20S 1945   1.492   4.386   8.179  1.5700 -0.2077  1.1028
   15SAPS  H20T 1946   1.497   4.217   8.099  1.3869  0.2284 -0.2858
   15SAPS   C33 1947   1.776   3.506   6.459 -0.2815 -1.0731  0.1771
   15SAPS   H3X 1948   1.853   3.517   6.379  1.9582 -3.2634  1.8716
   15SAPS   H3Y 1949   1.721   3.411   6.439 -0.4390 -0.7877 -0.8063
   15SAPS   C34 1950   1.859   3.479   6.589  0.6797  0.4739  0.3431
   15SAPS   H4X 1951   1.920   3.570   6.611  0.1863  1.2400 -1.2754
   15SAPS   H4Y 1952   1.928   3.394   6.571  1.4705  1.2696 -0.4914
   15SAPS   C35 1953   1.764   3.452   6.710 -0.7765  0.2935 -0.2592
   15SAPS   H5X 1954   1.712   3.354   6.701  0.1689 -0.1586 -0.9122
   15SAPS   H5Y 1955   1.692   3.536   6.717 -1.2885 -0.2776  2.0155
   15SAPS   C36 1956   1.839   3.444   6.845  0.1279 -0.8484 -0.4972
   15SAPS   H6X 1957   1.885   3.543   6.867 -0.5703 -0.8270  1.0197
   15SAPS   H6Y 1958   1.914   3.364   6.829 -0.7991 -1.2416 -3.7067
   15SAPS   C37 1959   1.742   3.405   6.962  0.2157 -0.5961 -0.0610
   15SAPS   H7X 1960   1.704   3.305   6.933 -0.7732  0.8159 -4.2251
   15SAPS   H7Y 1961   1.663   3.483   6.964  1.8285  1.1407 -0.8627
   15SAPS   C38 1962   1.827   3.402   7.090  0.6949  1.3458 -1.4045
   15SAPS   H8X 1963   1.848   3.510   7.106 -1.6434  1.5191  1.1202
   15SAPS   H8Y 1964   1.921   3.345   7.071  1.1874  1.5255  0.3237
   15SAPS   C39 1965   1.745   3.371   7.215  0.0620 -0.1538 -0.0275
   15SAPS   H9X 1966   1.703   3.269   7.230 -1.4110  0.6031  1.2336
   15SAPS   H9Y 1967   1.664   3.447   7.211  1.5563  1.4564 -1.2504
   15SAPS  C310 1968   1.823   3.408   7.345 -0.7390 -0.0750  0.2892
   15SAPS  H10X 1969   1.860   3.513   7.349 -2.7328  0.6707  0.3303
   15SAPS  H10Y 1970   1.909   3.339   7.360 -1.1083 -1.2737 -2.5043
   15SAPS  C311 1971   1.740   3.383   7.467 -0.1655 -0.0782 -0.2776
   15SAPS  H11X 1972   1.695   3.282   7.456  0.5574 -0.3422 -0.9361
   15SAPS  H11Y 1973   1.646   3.442   7.464  0.0519  0.2451 -0.9108
   15SAPS  C312 1974   1.817   3.407   7.602 -0.0625  0.2350 -0.1137
   15SAPS  H12X 1975   1.837   3.516   7.594  2.2936 -0.0061  1.4382
   15SAPS  H12Y 1976   1.919   3.367   7.585 -0.3026  0.3254 -1.9094
   15SAPS  C313 1977   1.738   3.380   7.732 -0.7148 -0.2596 -0.2447
   15SAPS  H13X 1978   1.711   3.273   7.717  0.6174 -0.4066 -1.8455
   15SAPS  H13Y 1979   1.642   3.436   7.727 -0.9335 -0.5819  0.2075
   15SAPS  C314 1980   1.816   3.403   7.860 -0.1868  0.2214 -0.3199
   15SAPS  H14X 1981   1.820   3.513   7.869  1.5244  0.6739 -4.4878
   15SAPS  H14Y 1982   1.923   3.371   7.854  0.3466  1.8039  0.3457
   15SAPS  C315 1983   1.745   3.338   7.987  0.2927 -0.0281  0.3562
   15SAPS  H15X 1984   1.737   3.228   7.977 -1.2887  0.0854  0.0435
   15SAPS  H15Y 1985   1.647   3.390   7.986 -0.1247 -0.8030  0.2364
   15SAPS  C316 1986   1.824   3.372   8.116  0.3326 -0.3746  0.3864
   15SAPS  H16X 1987   1.811   3.480   8.139 -0.9925 -0.3156 -0.4622
   15SAPS  H16Y 1988   1.932   3.355   8.101  0.2457  0.2495 -1.1771
   15SAPS  C317 1989   1.783   3.283   8.230  0.0234 -0.5900 -0.4878
   15SAPS  H17X 1990   1.777   3.178   8.195 -2.8667 -0.9499  0.8447
   15SAPS  H17Y 1991   1.678   3.297   8.262  0.2356  0.2261 -0.1244
   15SAPS  C318 1992   1.878   3.292   8.354 -0.0064 -0.0960 -0.0123
   15SAPS  H18X 1993   1.849   3.389   8.399 -2.2850 -0.2392 -1.0384
   15SAPS  H18Y 1994   1.987   3.293   8.330 -0.3795 -0.6720 -1.9363
   15SAPS  H18Z 1995   1.843   3.216   8.427 -0.9642  0.3657  0.0298
   16SAPS     N 1996   5.888   5.540   6.739  0.0573 -0.0760 -0.3276
   16SAPS   HN1 1997   5.817   5.607   6.777  0.8503 -0.1208  1.3331
   16SAPS   HN2 1998   5.929   5.485   6.817 -1.7696 -2.8827 -1.1977
   16SAPS   HN3 1999   5.966   5.593   6.695 -0.0184  2.1765  1.9617
   16SAPS   C12 2000   5.811   5.452   6.648  0.0772  0.0161 -0.2113
   16SAPS  H12A 2001   5.757   5.377   6.704 -0.4995  0.7637  0.2600
   16SAPS   C13 2002   5.705   5.537   6.560  0.5123 -0.1073  0.2338
   16SAPS  O13A 2003   5.672   5.656   6.586  0.0906 -0.3874 -0.1420
   16SAPS  O13B 2004   5.637   5.472   6.480  0.0940 -0.1045 -0.0433
   16SAPS   C11 2005   5.929   5.394   6.557 -0.9788  0.3113 -0.0156
   16SAPS  H11A 2006   5.968   5.481   6.500 -2.5812  0.9401 -0.2014
   16SAPS  H11B 2007   5.884   5.320   6.488  0.1345 -1.1612  0.7668
   16SAPS     P 2008   6.142   5.249   6.563  0.1809 -0.1798 -0.5087
   16SAPS   O13 2009   6.089   5.115   6.542 -0.4434 -0.0335  0.1958
   16SAPS   O14 2010   6.204   5.321   6.452  0.4021  0.0383 -0.1795
   16SAPS   O12 2011   6.037   5.335   6.639 -0.9480  0.1342  1.0442
   16SAPS   O11 2012   6.252   5.232   6.668 -0.1255  0.4766  0.4761
   16SAPS    C1 2013   6.258   5.293   6.792 -0.2131 -0.1890  0.1047
   16SAPS    HA 2014   6.363   5.324   6.813 -0.1793  0.5186 -1.0087
   16SAPS    HB 2015   6.205   5.390   6.803  0.9278  0.5250 -0.3837
   16SAPS    C2 2016   6.202   5.206   6.908 -0.5019  0.6252 -0.0254
   16SAPS    HS 2017   6.106   5.165   6.871 -0.7990  2.5202 -1.5587
   16SAPS   O21 2018   6.192   5.286   7.023 -0.2365  0.8409 -0.4896
   16SAPS   C21 2019   6.089   5.369   7.032 -0.8032  0.3865  0.4014
   16SAPS   O22 2020   5.990   5.376   6.956 -0.3806 -0.0386 -0.2929
   16SAPS   C22 2021   6.107   5.443   7.164 -0.3650 -0.6738 -0.1066
   16SAPS   H2R 2022   6.143   5.368   7.237  0.3027 -0.6275 -0.3791
   16SAPS   H2S 2023   6.190   5.515   7.143 -0.8256 -0.5794 -1.7111
   16SAPS    C3 2024   6.291   5.080   6.947  0.5095  0.4076 -0.4329
   16SAPS    HX 2025   6.384   5.116   6.995 -0.6483  0.4761  1.9169
   16SAPS    HY 2026   6.310   5.029   6.850 -0.1681  0.4584 -0.6030
   16SAPS   O31 2027   6.206   5.000   7.037 -0.0352  0.4476  0.1825
   16SAPS   C31 2028   6.271   4.922   7.118 -0.4120  0.2316  0.1151
   16SAPS   O32 2029   6.395   4.902   7.123 -0.5466  0.4946  0.2324
   16SAPS   C32 2030   6.162   4.860   7.207 -1.0557  0.1569 -0.0600
   16SAPS   H2X 2031   6.094   4.808   7.137  0.9173  0.2718 -2.1780
   16SAPS   H2Y 2032   6.110   4.940   7.265  0.7700  2.4926 -1.4428
   16SAPS   C23 2033   5.982   5.526   7.204  0.0388 -1.3036  0.7539
   16SAPS   H3R 2034   5.889   5.470   7.222 -0.1774 -1.2657 -0.1769
   16SAPS   H3S 2035   5.963   5.600   7.123 -1.8320  1.1703  3.2278
   16SAPS   C24 2036   6.005   5.611   7.330  0.1500  0.5314 -0.0980
   16SAPS   H4R 2037   6.030   5.536   7.409 -2.2083 -1.6835 -1.3045
   16SAPS   H4S 2038   5.915   5.671   7.351 -0.9969 -0.7893 -1.0476
   16SAPS   C25 2039   6.121   5.710   7.319 -0.8510  0.2949  0.4055
   16SAPS   H5R 2040   6.156   5.721   7.216 -2.7475 -0.2668 -0.3530
   16SAPS   C26 2041   6.193   5.773   7.416  0.3091 -0.2874  0.1736
   16SAPS   H6R 2042   6.258   5.856   7.384 -0.3515 -0.1103 -0.7686
   16SAPS   C27 2043   6.179   5.757   7.570  0.3063  0.6989 -0.5529
   16SAPS   H7R 2044   6.249   5.676   7.599 -1.2291 -0.1806  0.8481
   16SAPS   H7S 2045   6.076   5.725   7.596  0.1961 -0.2599 -2.0342
   16SAPS   C28 2046   6.208   5.887   7.646 -0.0296  0.1625 -0.1461
   16SAPS   H8R 2047   6.161   5.980   7.612 -0.6918 -0.0133  0.2720
   16SAPS   C29 2048   6.279   5.897   7.759  0.5058  0.8937  0.7931
   16SAPS   H9R 2049   6.288   5.995   7.808  2.0408 -0.4983  3.5658
   16SAPS  C210 2050   6.343   5.781   7.831  0.2547 -1.0797 -0.3260
   16SAPS  H10R 2051   6.446   5.807   7.865  0.9425 -2.7296 -1.0090
   16SAPS  H10S 2052   6.375   5.701   7.761  0.6926  0.1303 -1.5333
   16SAPS  C211 2053   6.264   5.711   7.940  0.4761  0.0102  0.0588
   16SAPS  H11R 2054   6.189   5.635   7.913 -0.0082 -0.3801  2.3184
   16SAPS  C212 2055   6.260   5.750   8.066 -0.3522 -0.7567 -0.5570
   16SAPS  H12R 2056   6.218   5.677   8.136  0.4560 -0.7241 -0.0270
   16SAPS  C213 2057   6.341   5.873   8.112 -0.0108 -0.0350  0.2966
   16SAPS  H13R 2058   6.323   5.956   8.041 -3.5394  0.2568  1.3112
   16SAPS  H13S 2059   6.446   5.842   8.098  0.1877 -0.0203  1.5883
   16SAPS  C214 2060   6.315   5.920   8.248  0.2151  0.0626 -0.0718
   16SAPS  H14R 2061   6.238   5.998   8.245 -3.3221 -3.1062 -0.2146
   16SAPS  C215 2062   6.366   5.868   8.359 -0.2840 -0.1490  0.1408
   16SAPS  H15R 2063   6.334   5.909   8.455 -0.2019  0.2010  0.0183
   16SAPS  C216 2064   6.461   5.749   8.368 -0.4397 -1.1297 -0.4507
   16SAPS  H16R 2065   6.486   5.720   8.264  3.3306 -0.5431  0.1389
   16SAPS  H16S 2066   6.412   5.668   8.425 -1.8830  0.2253  0.3067
   16SAPS  C217 2067   6.587   5.789   8.432 -0.1630 -0.5731 -1.0918
   16SAPS  H17R 2068   6.638   5.869   8.372 -1.3617  2.2280  1.3865
   16SAPS  H17S 2069   6.653   5.700   8.426  0.1421 -0.6111  1.6028
   16SAPS  C218 2070   6.572   5.818   8.581 -0.1680  0.0867 -0.3144
   16SAPS  H18R 2071   6.583   5.722   8.635  0.2385  0.1427 -0.2937
   16SAPS  H18S 2072   6.476   5.863   8.615 -0.1331  1.8848 -2.3427
   16SAPS  C219 2073   6.689   5.905   8.634 -0.1480  0.4384  0.1593
   16SAPS  H19R 2074   6.707   5.995   8.573 -0.2447 -0.2802 -0.9617
   16SAPS  H19S 2075   6.785   5.850   8.622  0.0476 -0.3444  3.9939
   16SAPS  C220 2076   6.674   5.928   8.781 -0.5566  0.1081  0.1657
   16SAPS  H20R 2077   6.656   5.830   8.830  0.9281 -0.6725 -0.7595
   16SAPS  H20S 2078   6.585   5.992   8.797 -0.4185  0.7290 -1.3810
   16SAPS  H20T 2079   6.765   5.972   8.826 -0.4847  0.1893 -0.0561
   16SAPS   C33 2080   6.233   4.752   7.297  0.2159 -0.6382  0.0482
   16SAPS   H3X 2081   6.306   4.803   7.363 -0.0513  1.9846 -1.5435
   16SAPS   H3Y 2082   6.270   4.667   7.237  0.0209  0.6631 -2.0123
   16SAPS   C34 2083   6.134   4.686   7.403 -0.2265  0.4659  0.1098
   16SAPS   H4X 2084   6.055   4.625   7.354  0.5490 -1.5171  1.1842
   16SAPS   H4Y 2085   6.095   4.774   7.458  1.6362 -0.8480  3.8856
   16SAPS   C35 2086   6.210   4.603   7.502 -0.5239  0.2954  0.1133
   16SAPS   H5X 2087   6.300   4.649   7.549  0.8947 -0.8788 -1.3408
   16SAPS   H5Y 2088   6.262   4.520   7.448 -2.4894 -0.3500 -0.8740
   16SAPS   C36 2089   6.118   4.549   7.616  0.1207 -0.2092 -0.0555
   16SAPS   H6X 2090   6.022   4.501   7.586 -0.5820 -0.3017  2.1248
   16SAPS   H6Y 2091   6.092   4.636   7.681 -1.3006  1.9078 -3.2366
   16SAPS   C37 2092   6.185   4.448   7.710 -0.5861 -0.6339  0.6863
   16SAPS   H7X 2093   6.276   4.494   7.756  0.2112 -1.2378 -0.2333
   16SAPS   H7Y 2094   6.193   4.353   7.652 -2.7720 -0.4708  0.0443
   16SAPS   C38 2095   6.091   4.399   7.821 -0.6336  0.4922 -0.1836
   16SAPS   H8X 2096   5.986   4.414   7.787 -0.4854 -2.0231 -2.0324
   16SAPS   H8Y 2097   6.096   4.467   7.908 -0.5500 -0.1583  0.3318
   16SAPS   C39 2098   6.098   4.255   7.867 -0.1953 -0.2213  0.1429
   16SAPS   H9X 2099   6.201   4.224   7.896 -0.4698 -0.1640  1.2470
   16SAPS   H9Y 2100   6.065   4.183   7.790 -0.6965 -0.9017  0.9668
   16SAPS  C310 2101   6.012   4.215   7.990  0.2210 -0.4216  0.8829
   16SAPS  H10X 2102   5.910   4.253   7.969  0.8013  0.7440  0.0039
   16SAPS  H10Y 2103   6.046   4.254   8.088  1.5525  0.3820  0.1413
   16SAPS  C311 2104   5.995   4.060   7.992 -0.2819 -0.4044  0.2593
   16SAPS  H11X 2105   6.095   4.013   8.004  1.0335  1.6700 -1.6957
   16SAPS  H11Y 2106   5.957   4.028   7.892  3.9046  0.9051 -2.0251
   16SAPS  C312 2107   5.901   4.004   8.099  0.2490 -0.8647  0.0677
   16SAPS  H12X 2108   5.861   3.910   8.056 -0.5725 -0.4510 -0.0954
   16SAPS  H12Y 2109   5.811   4.063   8.127  0.1814 -2.3283  3.3513
   16SAPS  C313 2110   5.974   3.976   8.229  0.7754 -0.3336 -0.1737
   16SAPS  H13X 2111   5.997   4.070   8.282 -2.7262  0.4620  0.2124
   16SAPS  H13Y 2112   6.074   3.932   8.212  0.0401 -2.4159  0.4916
   16SAPS  C314 2113   5.884   3.893   8.319 -0.4129 -0.2212 -0.6312
   16SAPS  H14X 2114   5.889   3.785   8.296 -0.0249 -0.8005  1.8655
   16SAPS  H14Y 2115   5.781   3.934   8.313 -0.1966  0.2557 -1.2673
   16SAPS  C315 2116   5.915   3.897   8.475 -0.1612  0.0292  0.2097
   16SAPS  H15X 2117   5.902   4.003   8.504 -1.3767  0.4158 -1.5824
   16SAPS  H15Y 2118   6.020   3.866   8.492  0.3892  2.1648  1.0094
   16SAPS  C316 2119   5.812   3.817   8.562  0.4264 -0.1409 -0.0139
   16SAPS  H16X 2120   5.796   3.711   8.533  0.3556 -0.0863 -0.1712
   16SAPS  H16Y 2121   5.713   3.867   8.557  0.9312  0.8586 -0.4108
   16SAPS  C317 2122   5.848   3.818   8.709  0.1407  0.4903 -0.8491
   16SAPS  H17X 2123   5.768   3.771   8.771  0.6410 -0.4842 -0.9278
   16SAPS  H17Y 2124   5.848   3.925   8.741 -3.1919  0.2964  0.2610
   16SAPS  C318 2125   5.977   3.756   8.749  0.1213 -0.5160  0.3067
   16SAPS  H18X 2126   6.070   3.797   8.703  0.7073 -1.3302  0.7511
   16SAPS  H18Y 2127   5.980   3.646   8.734  1.9256 -0.4389 -0.1993
   16SAPS  H18Z 2128   5.993   3.768   8.859 -0.4428 -1.4424  0.5032
   17SAPC     N 2129   3.399   3.462  10.600  0.1342 -0.1074  0.1158
   17SAPC   C12 2130   3.527   3.405  10.647 -0.0079  0.5241  0.8004
   17SAPC  H12A 2131   3.523   3.315  10.707  0.1536  0.4730  0.7373
   17SAPC  H12B 2132   3.586   3.475  10.705  1.0066 -0.5731  1.1553
   17SAPC   C13 2133   3.421   3.586  10.519 -0.3937  0.5027 -0.0486
   17SAPC  H13A 2134   3.453   3.665  10.585 -0.5591 -0.2168  0.9128
   17SAPC  H13B 2135   3.499   3.572  10.445  0.5509 -0.3060  1.0612
   17SAPC  H13C 2136   3.327   3.614  10.474 -1.2452 -0.9622  0.7683
   17SAPC   C14 2137   3.323   3.368  10.518 -0.2529  0.2530  1.0194
   17SAPC  H14A 2138   3.317   3.272  10.566 -1.5010 -0.5767 -0.6885
   17SAPC  H14B 2139   3.222   3.406  10.508 -0.3058 -0.4426 -1.8621
   17SAPC  H14C 2140   3.364   3.355  10.419 -0.3643 -0.2252  1.0350
   17SAPC   C15 2141   3.309   3.498  10.714 -0.3386 -0.4240  0.0672
   17SAPC  H15A 2142   3.215   3.537  10.676 -0.4805 -1.3216 -0.5263
   17SAPC  H15B 2143   3.293   3.411  10.776  1.4924  0.1615  1.4388
   17SAPC  H15C 2144   3.362   3.565  10.780  0.7483 -1.1225 -0.0903
   17SAPC   C11 2145   3.623   3.361  10.526 -0.7074  0.4802  0.7923
   17SAPC  H11A 2146   3.580   3.289  10.454  0.7869 -0.3743  0.7189
   17SAPC  H11B 2147   3.703   3.299  10.571 -1.8331 -0.7560  1.1522
   17SAPC     P 2148   3.821   3.522  10.498  0.0668 -0.0788  0.1072
   17SAPC   O13 2149   3.820   3.567  10.638  0.8055 -0.0790 -0.5151
   17SAPC   O14 2150   3.910   3.406  10.468  0.4184 -0.1911 -0.3337
   17SAPC   O12 2151   3.683   3.473  10.454  0.0350  0.1015  0.0924
   17SAPC   O11 2152   3.857   3.640  10.395 -0.2761 -0.0505 -0.4270
   17SAPC    C1 2153   3.750   3.724  10.344 -0.3275  0.4805 -0.2438
   17SAPC    HA 2154   3.649   3.695  10.380 -0.3671  1.3012  0.3332
   17SAPC    HB 2155   3.775   3.825  10.383 -0.6546 -0.2129  1.8825
   17SAPC    C2 2156   3.739   3.719  10.184 -1.0445 -0.0145 -0.1430
   17SAPC    HS 2157   3.668   3.797  10.149 -1.0691  0.9641  1.9455
   17SAPC   O21 2158   3.697   3.590  10.140  0.5167  0.3574  0.4193
   17SAPC   C21 2159   3.563   3.560  10.159  0.2086 -0.9926  0.5436
   17SAPC   O22 2160   3.487   3.643  10.208 -0.2774  0.3507  0.3720
   17SAPC   C22 2161   3.529   3.420  10.116 -0.5425 -0.4564  0.6715
   17SAPC   H2R 2162   3.619   3.365  10.080 -0.6291  0.5313 -1.1835
   17SAPC   H2S 2163   3.484   3.373  10.206  0.5063  0.0342  1.4700
   17SAPC    C3 2164   3.880   3.760  10.119  0.1826 -0.3059 -0.3423
   17SAPC    HX 2165   3.957   3.681  10.124  0.8337  0.3677  0.6257
   17SAPC    HY 2166   3.923   3.848  10.172  2.4873  0.0917 -2.6835
   17SAPC   O31 2167   3.865   3.792   9.980 -0.0842 -0.6630  0.3096
   17SAPC   C31 2168   3.860   3.681   9.905 -0.3515  0.4601 -0.0010
   17SAPC   O32 2169   3.871   3.567   9.942  0.1701 -0.4291 -0.3003
   17SAPC   C32 2170   3.841   3.725   9.758  0.0811  0.6274  0.0345
   17SAPC   H2X 2171   3.914   3.804   9.731  2.3753 -0.5054  2.4405
   17SAPC   H2Y 2172   3.737   3.764   9.745  0.9353  2.6837 -1.2080
   17SAPC   C23 2173   3.422   3.426  10.006 -0.6940 -0.5676 -0.1539
   17SAPC   H3R 2174   3.336   3.483  10.048  0.9441  0.5828  1.8366
   17SAPC   H3S 2175   3.389   3.321   9.998 -0.4708 -0.8440  2.0856
   17SAPC   C24 2176   3.477   3.468   9.869 -0.4617 -1.2556 -0.3189
   17SAPC   H4R 2177   3.565   3.405   9.842  0.7074  0.0124  0.3784
   17SAPC   H4S 2178   3.501   3.576   9.880 -1.5972 -1.2640  4.6011
   17SAPC   C25 2179   3.358   3.454   9.784  0.5422 -0.2320  0.2896
   17SAPC   H5R 2180   3.277   3.397   9.833  2.2848 -1.2979  2.0547
   17SAPC   C26 2181   3.347   3.486   9.649  0.3857 -0.0530 -0.2179
   17SAPC   H6R 2182   3.249   3.479   9.600  0.7305 -1.5971 -0.7579
   17SAPC   C27 2183   3.461   3.547   9.569 -0.3602 -0.5259 -0.5012
   17SAPC   H7R 2184   3.530   3.606   9.632  0.6974 -1.6292 -0.5889
   17SAPC   H7S 2185   3.416   3.614   9.493 -0.1213 -0.5096 -0.6286
   17SAPC   C28 2186   3.551   3.437   9.509 -0.0261  0.5856  0.0563
   17SAPC   H8R 2187   3.635   3.393   9.564  0.6476  1.5263 -0.1810
   17SAPC   C29 2188   3.537   3.389   9.387 -0.9178  0.2278  0.5232
   17SAPC   H9R 2189   3.609   3.310   9.357 -1.8708  0.2050 -1.9814
   17SAPC  C210 2190   3.432   3.438   9.290  0.5740  0.4518 -0.6548
   17SAPC  H10R 2191   3.445   3.547   9.274 -0.6095  0.4772 -1.5759
   17SAPC  H10S 2192   3.328   3.429   9.329  1.4902  0.3159  1.9935
   17SAPC  C211 2193   3.441   3.370   9.160 -0.2348 -0.2110 -0.3949
   17SAPC  H11R 2194   3.431   3.262   9.179 -0.5990  0.3787  3.5901
   17SAPC  C212 2195   3.456   3.419   9.036 -0.1427 -0.0019  0.0434
   17SAPC  H12R 2196   3.474   3.349   8.953 -0.0754  0.9949 -0.8045
   17SAPC  C213 2197   3.457   3.567   9.004  0.2392  0.0405  0.1871
   17SAPC  H13R 2198   3.543   3.589   8.937  0.4032 -2.4420 -0.5254
   17SAPC  H13S 2199   3.482   3.622   9.097 -1.1207 -2.7129  2.3274
   17SAPC  C214 2200   3.316   3.606   8.955 -0.5355 -1.4767 -0.1583
   17SAPC  H14R 2201   3.239   3.605   9.034 -0.0600  1.6511  0.4873
   17SAPC  C215 2202   3.282   3.641   8.832  0.6788  0.3579 -0.5028
   17SAPC  H15R 2203   3.175   3.660   8.814  0.4914  1.1022  1.2888
   17SAPC  C216 2204   3.376   3.644   8.714 -0.5344  0.2970  0.4719
   17SAPC  H16R 2205   3.460   3.714   8.734  0.7870 -0.3636 -2.2566
   17SAPC  H16S 2206   3.323   3.681   8.623  0.0940 -2.0563 -0.9314
   17SAPC  C217 2207   3.438   3.509   8.660 -0.3262 -0.6045  0.4981
   17SAPC  H17R 2208   3.465   3.444   8.747 -1.8193 -0.9456  0.7419
   17SAPC  H17S 2209   3.538   3.533   8.617  0.5631 -0.1918  2.6495
   17SAPC  C218 2210   3.363   3.436   8.555  0.0792 -0.0303  0.2382
   17SAPC  H18R 2211   3.408   3.336   8.534  0.3191 -0.0947  1.0413
   17SAPC  H18S 2212   3.371   3.487   8.457 -1.4828 -3.7214 -2.0579
   17SAPC  C219 2213   3.207   3.418   8.570 -0.1326 -0.1770 -0.0617
   17SAPC  H19R 2214   3.178   3.525   8.565  0.8161  0.0775 -0.2938
   17SAPC  H19S 2215   3.188   3.380   8.673 -1.9403 -1.4022 -0.7873
   17SAPC  C220 2216   3.137   3.329   8.465  0.2421 -0.4490  0.1494
   17SAPC  H20R 2217   3.111   3.372   8.366 -0.4119 -2.1775 -0.4759
   17SAPC  H20S 2218   3.045   3.286   8.510 -0.1029  0.1223 -0.0110
   17SAPC  H20T 2219   3.202   3.242   8.440  0.8526  0.2258 -0.6880
   17SAPC   C33 2220   3.862   3.607   9.665  0.2500 -0.5641 -0.0617
   17SAPC   H3X 2221   3.782   3.533   9.688 -0.1819  0.0253  0.3512
   17SAPC   H3Y 2222   3.961   3.557   9.670  1.0631  1.0495  0.5707
   17SAPC   C34 2223   3.836   3.656   9.529  0.3176 -0.2098 -0.3155
   17SAPC   H4X 2224   3.880   3.758   9.520 -1.6688  1.2486  3.9486
   17SAPC   H4Y 2225   3.728   3.667   9.507 -0.1263 -2.6709  0.3513
   17SAPC   C35 2226   3.892   3.560   9.421  0.6629 -0.6621  0.1053
   17SAPC   H5X 2227   3.846   3.462   9.447 -0.7469 -0.2058 -0.6154
   17SAPC   H5Y 2228   4.000   3.539   9.437  0.6233 -0.1434  1.2136
   17SAPC   C36 2229   3.877   3.605   9.272  0.3182  0.2666 -0.3078
   17SAPC   H6X 2230   3.956   3.682   9.258 -0.0271  1.0074  1.4722
   17SAPC   H6Y 2231   3.771   3.631   9.254 -0.5996 -2.2359  0.9408
   17SAPC   C37 2232   3.894   3.484   9.175  0.0151  0.9072  0.0332
   17SAPC   H7X 2233   3.806   3.417   9.180  0.3813  0.4883  1.2714
   17SAPC   H7Y 2234   3.983   3.426   9.206 -0.0947  0.7114 -0.0163
   17SAPC   C38 2235   3.927   3.543   9.033 -0.3957  0.5829  0.1087
   17SAPC   H8X 2236   4.019   3.605   9.044 -0.3516  0.3436  1.2130
   17SAPC   H8Y 2237   3.845   3.610   9.000 -0.9529 -0.5896 -0.9873
   17SAPC   C39 2238   3.942   3.432   8.926  0.3328  0.4459 -0.2554
   17SAPC   H9X 2239   3.852   3.370   8.907  1.6876 -1.9807  0.9177
   17SAPC   H9Y 2240   4.026   3.369   8.961 -0.2696 -0.9150 -1.1971
   17SAPC  C310 2241   3.965   3.506   8.790  0.0481 -0.3241 -0.5011
   17SAPC  H10X 2242   4.053   3.572   8.805 -1.2369  1.3925 -0.2467
   17SAPC  H10Y 2243   3.871   3.560   8.764 -0.1027 -0.5924 -0.5179
   17SAPC  C311 2244   3.977   3.407   8.674 -0.2311  0.1120  0.1289
   17SAPC  H11X 2245   3.887   3.403   8.609 -0.6056  1.5484  0.5102
   17SAPC  H11Y 2246   3.990   3.309   8.725  5.2497  1.3519  1.7739
   17SAPC  C312 2247   4.083   3.446   8.567 -0.2394  0.6855 -0.1207
   17SAPC  H12X 2248   4.175   3.470   8.624  0.6732 -3.0208  0.2883
   17SAPC  H12Y 2249   4.060   3.527   8.496  0.8084  0.1968 -1.0492
   17SAPC  C313 2250   4.110   3.331   8.466  0.1710  0.3216 -0.2455
   17SAPC  H13X 2251   4.016   3.296   8.418  0.4708 -1.4907  0.3864
   17SAPC  H13Y 2252   4.158   3.243   8.514 -0.8782  0.5383  1.2489
   17SAPC  C314 2253   4.214   3.374   8.354  0.3799 -0.9824 -0.0363
   17SAPC  H14X 2254   4.263   3.281   8.319  0.3271 -1.3213  0.7697
   17SAPC  H14Y 2255   4.285   3.448   8.395 -1.3572  1.1983 -0.7461
   17SAPC  C315 2256   4.145   3.434   8.229  0.2644  0.3228 -0.5653
   17SAPC  H15X 2257   4.064   3.499   8.269  0.4188  1.7489 -2.4904
   17SAPC  H15Y 2258   4.087   3.363   8.165 -3.8266  2.7750  0.0515
   17SAPC  C316 2259   4.235   3.530   8.152  0.4027  0.5920  0.1750
   17SAPC  H16X 2260   4.305   3.467   8.093 -1.2483 -1.5506  0.3858
   17SAPC  H16Y 2261   4.297   3.593   8.218  1.9041 -0.7612  0.1119
   17SAPC  C317 2262   4.171   3.626   8.049 -0.3767  1.0724 -0.4648
   17SAPC  H17X 2263   4.251   3.667   7.984  1.2580 -1.3966 -0.1594
   17SAPC  H17Y 2264   4.139   3.707   8.118  1.7574 -0.4915  2.5686
   17SAPC  C318 2265   4.055   3.569   7.962 -0.4563 -0.0487  0.5077
   17SAPC  H18X 2266   4.001   3.656   7.920  1.9412  2.1939  1.8200
   17SAPC  H18Y 2267   4.097   3.510   7.877 -0.6591 -3.0853  2.3504
   17SAPC  H18Z 2268   3.982   3.509   8.020  0.5302 -0.0592  1.8002
   18SAPC     N 2269   3.782   1.535  10.794 -0.3072 -0.4649 -0.0305
   18SAPC   C12 2270   3.761   1.517  10.648  0.3543 -0.1722  0.0708
   18SAPC  H12A 2271   3.721   1.608  10.607  1.3447  1.1057  1.7952
   18SAPC  H12B 2272   3.685   1.441  10.639  0.3887  0.0073 -2.1684
   18SAPC   C13 2273   3.801   1.405  10.870 -0.4349 -0.0962 -0.0143
   18SAPC  H13A 2274   3.715   1.346  10.842  0.5759 -1.8969  0.5464
   18SAPC  H13B 2275   3.889   1.350  10.843  1.3296  3.0399 -1.2212
   18SAPC  H13C 2276   3.807   1.423  10.976  1.8050  3.6158 -0.5707
   18SAPC   C14 2277   3.878   1.637  10.824 -0.5780  0.4250 -0.3560
   18SAPC  H14A 2278   3.977   1.626  10.781 -0.7855 -0.2572 -0.6715
   18SAPC  H14B 2279   3.839   1.729  10.785  0.2814  0.5075 -1.0573
   18SAPC  H14C 2280   3.893   1.637  10.931  0.4905 -1.6735 -0.4598
   18SAPC   C15 2281   3.656   1.594  10.850 -0.0576 -0.4719 -0.3088
   18SAPC  H15A 2282   3.639   1.689  10.801 -0.2168  0.5761  1.6759
   18SAPC  H15B 2283   3.575   1.523  10.836  1.0016 -1.6361 -0.7378
   18SAPC  H15C 2284   3.652   1.610  10.956 -1.9866 -1.0098 -0.2588
   18SAPC   C11 2285   3.874   1.475  10.552 -0.4023 -0.2199  0.1226
   18SAPC  H11A 2286   3.956   1.549  10.557 -1.2023  0.6732  0.3830
   18SAPC  H11B 2287   3.833   1.469  10.449  0.2735 -0.3753 -0.1395
   18SAPC     P 2288   3.834   1.211  10.555 -0.0778  0.0905  0.3090
   18SAPC   O13 2289   3.864   1.125  10.672 -0.1462 -0.2929  0.4760
   18SAPC   O14 2290   3.692   1.253  10.542  0.4589  0.0327  0.3663
   18SAPC   O12 2291   3.926   1.341  10.579 -0.2364  0.0651 -0.1274
   18SAPC   O11 2292   3.888   1.143  10.419 -0.6650 -0.0780 -0.2773
   18SAPC    C1 2293   4.025   1.137  10.377  0.2733 -0.3495 -0.7933
   18SAPC    HA 2294   4.088   1.203  10.440 -3.0296  0.1872  2.3192
   18SAPC    HB 2295   4.062   1.033  10.379 -1.8453 -1.1402 -0.3233
   18SAPC    C2 2296   4.045   1.185  10.226 -0.2843  0.3369 -0.4974
   18SAPC    HS 2297   4.134   1.131  10.186 -0.7693 -0.8116 -0.0795
   18SAPC   O21 2298   4.053   1.329  10.215 -0.4408  0.2645  0.2760
   18SAPC   C21 2299   4.170   1.378  10.248  0.4015  0.4683 -0.5372
   18SAPC   O22 2300   4.271   1.315  10.271  0.2097  0.1184 -0.2889
   18SAPC   C22 2301   4.162   1.536  10.235 -1.0218  0.0692 -0.4330
   18SAPC   H2R 2302   4.111   1.557  10.139  0.1117 -0.4266 -1.1695
   18SAPC   H2S 2303   4.104   1.578  10.320 -0.5462  0.7488 -0.4342
   18SAPC    C3 2304   3.922   1.141  10.134 -0.0583  0.1803 -0.5911
   18SAPC    HX 2305   3.830   1.194  10.166  0.1549  1.0612 -1.3941
   18SAPC    HY 2306   3.902   1.035  10.160  0.0853  0.0569 -0.9780
   18SAPC   O31 2307   3.952   1.165   9.995 -0.8789  0.0451 -0.1639
   18SAPC   C31 2308   3.880   1.084   9.918 -0.0717 -0.1296  0.1725
   18SAPC   O32 2309   3.806   0.996   9.950 -0.0763  0.2196  0.2247
   18SAPC   C32 2310   3.912   1.108   9.772 -0.2959 -0.5806 -0.4813
   18SAPC   H2X 2311   4.021   1.125   9.768 -0.3361  0.8392  2.3353
   18SAPC   H2Y 2312   3.869   1.205   9.741 -0.2478  0.1406  1.5370
   18SAPC   C23 2313   4.302   1.599  10.225  0.2641  0.2657  0.0463
   18SAPC   H3R 2314   4.349   1.554  10.316 -1.0717  0.7737  1.0174
   18SAPC   H3S 2315   4.297   1.710  10.224 -0.8764  0.3452 -4.4132
   18SAPC   C24 2316   4.381   1.550  10.099  0.3124 -0.2837 -0.2248
   18SAPC   H4R 2317   4.302   1.562  10.022  0.3135  0.1481 -0.1588
   18SAPC   H4S 2318   4.404   1.444  10.124 -1.3546  0.0918  3.6160
   18SAPC   C25 2319   4.506   1.631  10.071  0.4748  0.1671 -0.2520
   18SAPC   H5R 2320   4.563   1.660  10.161 -0.2211 -2.2173  1.0577
   18SAPC   C26 2321   4.535   1.675   9.949 -0.1597  0.3710 -0.4043
   18SAPC   H6R 2322   4.633   1.723   9.938 -0.8498  1.8339 -0.3256
   18SAPC   C27 2323   4.471   1.650   9.812 -0.6679 -0.0153  0.0088
   18SAPC   H7R 2324   4.402   1.735   9.790  1.3248  1.5500 -0.4419
   18SAPC   H7S 2325   4.411   1.558   9.796 -0.4432  0.1482 -1.9423
   18SAPC   C28 2326   4.571   1.648   9.694  0.7776  0.2699 -0.3181
   18SAPC   H8R 2327   4.593   1.551   9.647 -0.2054  0.2430 -0.7463
   18SAPC   C29 2328   4.628   1.756   9.643  0.1349  0.1616 -0.6269
   18SAPC   H9R 2329   4.663   1.744   9.539 -3.4827 -1.0715 -1.8414
   18SAPC  C210 2330   4.616   1.898   9.682  0.4195 -0.3316 -1.0593
   18SAPC  H10R 2331   4.535   1.925   9.754  0.2665  0.0126 -1.3543
   18SAPC  H10S 2332   4.590   1.950   9.587 -0.1469  0.4902 -0.4765
   18SAPC  C211 2333   4.739   1.953   9.747 -0.8679 -0.5739  0.4160
   18SAPC  H11R 2334   4.724   1.970   9.854 -0.5429 -1.7729  0.6641
   18SAPC  C212 2335   4.851   1.990   9.686 -0.4634 -0.5761 -0.3783
   18SAPC  H12R 2336   4.943   2.008   9.744 -0.4021 -2.6649  0.2488
   18SAPC  C213 2337   4.881   1.979   9.536  0.5662 -0.6788  0.8410
   18SAPC  H13R 2338   4.785   2.001   9.484  0.5959  1.7764  1.6675
   18SAPC  H13S 2339   4.897   1.875   9.502  2.7598 -0.6060  1.4894
   18SAPC  C214 2340   4.972   2.074   9.478 -0.2835 -0.2474  0.6834
   18SAPC  H14R 2341   5.029   2.129   9.554 -0.7037 -0.4453  1.1471
   18SAPC  C215 2342   4.986   2.095   9.342  0.8377  0.2594 -0.3248
   18SAPC  H15R 2343   5.064   2.165   9.308  1.2722 -1.3663 -2.9722
   18SAPC  C216 2344   4.920   2.025   9.223  1.5979 -0.1763  0.8122
   18SAPC  H16R 2345   4.822   1.981   9.252 -0.4122  2.7549 -1.0623
   18SAPC  H16S 2346   4.975   1.931   9.199  2.5028  0.5974 -0.2544
   18SAPC  C217 2347   4.916   2.102   9.088  0.0405 -0.2386 -0.6679
   18SAPC  H17R 2348   5.013   2.129   9.040 -0.7090 -0.5315 -2.4332
   18SAPC  H17S 2349   4.868   2.200   9.106 -0.4779 -0.4077 -1.0956
   18SAPC  C218 2350   4.830   2.028   8.979  0.2021  0.4821 -0.4369
   18SAPC  H18R 2351   4.723   2.009   9.001  0.5544  1.5560  2.6981
   18SAPC  H18S 2352   4.875   1.928   8.962 -1.2842 -0.5182  1.1962
   18SAPC  C219 2353   4.853   2.091   8.844  1.2004  0.4603  0.2650
   18SAPC  H19R 2354   4.960   2.112   8.825  1.2179  1.5705  1.4668
   18SAPC  H19S 2355   4.807   2.190   8.827 -0.7242 -0.6104 -1.2744
   18SAPC  C220 2356   4.803   2.014   8.720 -0.2535 -0.5311 -0.0428
   18SAPC  H20R 2357   4.692   2.004   8.720 -0.2015 -1.2028 -0.4269
   18SAPC  H20S 2358   4.858   1.918   8.713  0.3270 -0.3106  1.2463
   18SAPC  H20T 2359   4.828   2.068   8.626  2.0477  1.4304  1.5482
   18SAPC   C33 2360   3.875   0.979   9.694  0.2877 -0.7004  1.1640
   18SAPC   H3X 2361   3.765   0.960   9.700 -0.0021  0.0566 -0.7464
   18SAPC   H3Y 2362   3.911   0.885   9.742 -0.5781 -1.4180  0.4520
   18SAPC   C34 2363   3.910   0.995   9.541  0.4012 -0.6825 -0.5337
   18SAPC   H4X 2364   3.878   1.098   9.513 -0.7465 -1.2549 -1.4544
   18SAPC   H4Y 2365   3.833   0.940   9.482 -1.2119  1.2136 -0.3270
   18SAPC   C35 2366   4.054   0.974   9.498 -0.2199 -0.0266 -0.3495
   18SAPC   H5X 2367   4.088   0.869   9.510 -0.8439 -0.3467 -1.3103
   18SAPC   H5Y 2368   4.109   1.039   9.571 -0.8575 -0.4329  0.5048
   18SAPC   C36 2369   4.072   1.003   9.348  0.1960  0.2385  0.1160
   18SAPC   H6X 2370   4.181   1.005   9.327  0.6069  4.0362  1.7000
   18SAPC   H6Y 2371   4.038   1.107   9.328 -0.2077 -0.3309 -2.5360
   18SAPC   C37 2372   4.002   0.898   9.257  0.1205  0.0782  0.7975
   18SAPC   H7X 2373   3.893   0.889   9.273 -0.2998  1.8993 -0.6335
   18SAPC   H7Y 2374   4.046   0.797   9.271  0.6239  0.3042  0.8772
   18SAPC   C38 2375   4.028   0.939   9.110  0.0662  0.5757  0.1241
   18SAPC   H8X 2376   4.137   0.946   9.091  0.3369  1.6181  1.8623
   18SAPC   H8Y 2377   3.987   1.041   9.094  0.3880  0.6212 -0.4259
   18SAPC   C39 2378   3.957   0.835   9.021 -0.2350 -0.1858 -0.3727
   18SAPC   H9X 2379   3.847   0.842   9.024 -0.3220 -1.2733 -0.4767
   18SAPC   H9Y 2380   3.989   0.733   9.053  1.3401  0.5309  0.4948
   18SAPC  C310 2381   3.999   0.855   8.872 -0.0547 -0.7905 -0.1268
   18SAPC  H10X 2382   4.098   0.905   8.866  0.6126 -1.7895  1.6550
   18SAPC  H10Y 2383   3.931   0.920   8.813 -0.4752 -1.4048 -0.3279
   18SAPC  C311 2384   4.009   0.710   8.807  0.5900  0.1262  0.1214
   18SAPC  H11X 2385   3.906   0.671   8.803 -0.4171  2.1519  3.1718
   18SAPC  H11Y 2386   4.065   0.646   8.879 -1.6524  0.3008  2.1507
   18SAPC  C312 2387   4.070   0.707   8.668 -0.0073 -0.2205 -0.0643
   18SAPC  H12X 2388   4.141   0.793   8.665  0.9179 -0.9686 -0.3805
   18SAPC  H12Y 2389   3.989   0.693   8.593 -1.2981 -1.4897  1.4966
   18SAPC  C313 2390   4.169   0.579   8.645  0.6118 -0.0575 -0.6373
   18SAPC  H13X 2391   4.109   0.486   8.649  1.5854 -0.6690  1.6936
   18SAPC  H13Y 2392   4.216   0.587   8.745  0.4230  2.1526 -0.6721
   18SAPC  C314 2393   4.276   0.589   8.539 -0.7491  0.5256  0.7667
   18SAPC  H14X 2394   4.320   0.691   8.540  1.0863 -0.1701 -0.9491
   18SAPC  H14Y 2395   4.228   0.570   8.440  2.6447  0.1746 -0.9677
   18SAPC  C315 2396   4.376   0.475   8.550  0.0252  0.2644 -0.2208
   18SAPC  H15X 2397   4.318   0.393   8.503 -0.7235  0.6073  0.0721
   18SAPC  H15Y 2398   4.395   0.452   8.657 -3.5231 -0.9645  0.2781
   18SAPC  C316 2399   4.509   0.488   8.476  0.5004  0.4064 -0.0539
   18SAPC  H16X 2400   4.498   0.502   8.366 -0.0253  1.4060  0.1074
   18SAPC  H16Y 2401   4.566   0.397   8.502  2.5778  1.0980 -1.9009
   18SAPC  C317 2402   4.588   0.605   8.533 -0.0405 -0.4044 -0.2896
   18SAPC  H17X 2403   4.615   0.593   8.640  1.3480 -0.4053 -0.6261
   18SAPC  H17Y 2404   4.527   0.697   8.516  0.8519 -0.3406 -3.9530
   18SAPC  C318 2405   4.713   0.633   8.455 -0.3867  0.9407  0.4086
   18SAPC  H18X 2406   4.763   0.728   8.483 -0.2594  0.5759  1.4417
   18SAPC  H18Y 2407   4.700   0.634   8.344  1.3761 -0.6662  0.1368
   18SAPC  H18Z 2408   4.775   0.542   8.471 -0.5222  0.4038 -1.7173
   19SAPC     N 2409   4.514   5.708  10.667 -0.0208 -0.3651 -0.6446
   19SAPC   C12 2410   4.438   5.809  10.583 -0.7680  0.0964 -0.2916
   19SAPC  H12A 2411   4.503   5.880  10.535  1.6236 -1.3517  0.6460
   19SAPC  H12B 2412   4.365   5.862  10.643 -0.3143 -0.4339  0.7639
   19SAPC   C13 2413   4.619   5.788  10.748 -0.3523 -0.6950  0.0086
   19SAPC  H13A 2414   4.686   5.729  10.809 -1.2271 -2.7018 -0.8827
   19SAPC  H13B 2415   4.683   5.842  10.680 -0.2466  0.8129  1.2647
   19SAPC  H13C 2416   4.580   5.863  10.815 -0.0371 -1.5102  1.1226
   19SAPC   C14 2417   4.427   5.631  10.764 -0.7457  0.6123  0.0519
   19SAPC  H14A 2418   4.486   5.579  10.838 -2.9796 -0.1571  1.3795
   19SAPC  H14B 2419   4.356   5.695  10.815 -1.0777 -0.3202  0.7859
   19SAPC  H14C 2420   4.370   5.558  10.709 -2.5992  0.3754  2.1646
   19SAPC   C15 2421   4.575   5.613  10.576 -0.7860 -0.7515 -0.3059
   19SAPC  H15A 2422   4.490   5.564  10.531 -1.0675  0.1641 -0.7856
   19SAPC  H15B 2423   4.634   5.662  10.501 -2.3900  0.1451 -1.0311
   19SAPC  H15C 2424   4.645   5.542  10.619  1.3748  0.6009 -1.4317
   19SAPC   C11 2425   4.346   5.764  10.469 -0.5965 -0.3886  0.3785
   19SAPC  H11A 2426   4.409   5.715  10.391 -2.6762 -0.6088 -1.2526
   19SAPC  H11B 2427   4.299   5.856  10.429 -3.3410 -1.6541  0.5211
   19SAPC     P 2428   4.212   5.538  10.434 -0.1541  0.3552 -0.1070
   19SAPC   O13 2429   4.333   5.446  10.440  0.7706 -0.0650 -0.0271
   19SAPC   O14 2430   4.086   5.481  10.487 -0.4283  0.2253 -0.2783
   19SAPC   O12 2431   4.244   5.674  10.520 -0.1817 -0.2932 -0.1438
   19SAPC   O11 2432   4.196   5.576  10.283 -0.4431 -0.2566  0.0581
   19SAPC    C1 2433   4.083   5.663  10.248 -0.4287  0.2708  0.8625
   19SAPC    HA 2434   4.059   5.736  10.328  0.9429  1.3584  0.3408
   19SAPC    HB 2435   4.124   5.737  10.174  0.5442  0.2132  1.3242
   19SAPC    C2 2436   3.952   5.584  10.201 -0.3635 -0.1126  0.2622
   19SAPC    HS 2437   3.909   5.537  10.292 -0.2643 -0.8295 -0.0526
   19SAPC   O21 2438   3.978   5.488  10.100 -0.1540 -0.3266 -0.5587
   19SAPC   C21 2439   3.877   5.405  10.066  0.3597 -0.5794 -0.3840
   19SAPC   O22 2440   3.759   5.408  10.108 -0.4462 -0.0611  0.0185
   19SAPC   C22 2441   3.928   5.294   9.978  0.9227 -0.7886 -0.5594
   19SAPC   H2R 2442   3.977   5.336   9.888 -0.0518  3.4559  0.6645
   19SAPC   H2S 2443   4.008   5.252  10.042  1.4969 -0.9919 -1.3932
   19SAPC    C3 2444   3.841   5.680  10.157  0.5091 -0.1311 -0.5068
   19SAPC    HX 2445   3.826   5.738  10.250 -2.3526  1.4403 -1.8264
   19SAPC    HY 2446   3.742   5.632  10.142 -0.4182  0.8361  2.0488
   19SAPC   O31 2447   3.866   5.757  10.046 -0.8593  0.1842 -0.1559
   19SAPC   C31 2448   3.878   5.885  10.064 -0.0968 -0.1014 -0.7126
   19SAPC   O32 2449   3.882   5.946  10.169  0.2272 -0.0949  0.2837
   19SAPC   C32 2450   3.854   5.947   9.927  0.6928 -0.3235 -0.5542
   19SAPC   H2X 2451   3.835   6.053   9.954 -0.1175 -0.4609 -0.5500
   19SAPC   H2Y 2452   3.772   5.891   9.876 -0.7289  0.1206  1.1406
   19SAPC   C23 2453   3.821   5.184   9.942  0.5610  0.3021 -0.2888
   19SAPC   H3R 2454   3.736   5.237   9.893  1.0069 -0.6376 -2.1629
   19SAPC   H3S 2455   3.780   5.136  10.033 -1.3338 -0.0662 -1.2870
   19SAPC   C24 2456   3.873   5.072   9.844  1.1032 -0.2777  0.2842
   19SAPC   H4R 2457   3.904   5.132   9.755  0.7546  3.0828  2.2598
   19SAPC   H4S 2458   3.782   5.012   9.821 -0.5755  2.3367 -0.2695
   19SAPC   C25 2459   3.981   4.990   9.908  0.1510  0.4750 -0.5701
   19SAPC   H5R 2460   4.054   5.039   9.974 -0.5136 -0.2911  0.7969
   19SAPC   C26 2461   3.995   4.856   9.893 -0.4391  0.0643 -0.2187
   19SAPC   H6R 2462   4.073   4.807   9.952 -0.3211  1.6674  1.0187
   19SAPC   C27 2463   3.903   4.766   9.813  0.6797 -0.2840 -0.1292
   19SAPC   H7R 2464   3.820   4.815   9.758  2.0043  1.6692 -0.4842
   19SAPC   H7S 2465   3.855   4.709   9.895 -0.5551  0.1603 -0.5151
   19SAPC   C28 2466   3.966   4.672   9.711  0.2414  0.6787  0.5464
   19SAPC   H8R 2467   3.976   4.566   9.740  3.5381  0.1234 -1.9352
   19SAPC   C29 2468   3.998   4.705   9.585 -0.2835  0.6741 -0.0846
   19SAPC   H9R 2469   4.038   4.623   9.524  2.2724 -0.1482  2.4513
   19SAPC  C210 2470   3.989   4.846   9.531  0.2414  0.2114 -0.0169
   19SAPC  H10R 2471   4.037   4.921   9.598 -0.8131  2.3831 -1.5873
   19SAPC  H10S 2472   3.881   4.868   9.524 -0.1042 -1.3972 -0.1427
   19SAPC  C211 2473   4.050   4.871   9.399 -0.4388 -0.9687 -0.2407
   19SAPC  H11R 2474   4.158   4.893   9.408 -1.2017  2.6533  1.9340
   19SAPC  C212 2475   3.994   4.865   9.276  1.0813  0.3904 -0.3778
   19SAPC  H12R 2476   4.050   4.900   9.188  0.1377  0.1191 -1.1110
   19SAPC  C213 2477   3.846   4.847   9.251  0.9850  0.1294  0.2842
   19SAPC  H13R 2478   3.787   4.820   9.341 -1.7636  2.7946 -0.5619
   19SAPC  H13S 2479   3.834   4.766   9.176  1.3469 -0.8285  1.2203
   19SAPC  C214 2480   3.796   4.978   9.192  0.4865  0.1858  0.3053
   19SAPC  H14R 2481   3.770   5.046   9.274 -0.9579  1.9884 -1.5520
   19SAPC  C215 2482   3.773   5.012   9.065 -0.2213 -0.0095  0.1859
   19SAPC  H15R 2483   3.736   5.113   9.044 -1.9454 -0.5024  0.6772
   19SAPC  C216 2484   3.802   4.924   8.951 -0.0691 -0.0874  0.5424
   19SAPC  H16R 2485   3.713   4.917   8.885  0.4402 -1.4664 -0.0518
   19SAPC  H16S 2486   3.817   4.818   8.980 -0.5938 -0.7756 -1.5342
   19SAPC  C217 2487   3.922   4.971   8.879 -0.3550 -0.0540  0.0488
   19SAPC  H17R 2488   4.015   4.986   8.938  1.3394 -0.4406 -2.3731
   19SAPC  H17S 2489   3.885   5.067   8.838 -2.0617 -0.3308  0.8509
   19SAPC  C218 2490   3.955   4.871   8.760 -0.0705  0.4486 -0.4938
   19SAPC  H18R 2491   3.966   4.769   8.804 -0.3763  1.1205  1.2270
   19SAPC  H18S 2492   4.048   4.897   8.706  0.2803  0.0010 -0.1163
   19SAPC  C219 2493   3.845   4.886   8.649 -0.0512  0.8832 -0.0555
   19SAPC  H19R 2494   3.834   4.996   8.638  0.8680  1.1557  1.4230
   19SAPC  H19S 2495   3.751   4.831   8.674 -0.5616  0.6110 -2.4005
   19SAPC  C220 2496   3.899   4.829   8.518  0.0571  0.6800 -0.5854
   19SAPC  H20R 2497   3.990   4.881   8.480  0.6449  0.0448 -0.0800
   19SAPC  H20S 2498   3.823   4.845   8.439 -1.4716  1.0633  0.9045
   19SAPC  H20T 2499   3.919   4.720   8.517 -1.2226  0.4254 -1.5003
   19SAPC   C33 2500   3.972   5.936   9.826  0.5048  0.0676  0.1403
   19SAPC   H3X 2501   4.068   5.973   9.869  1.7626  1.0192 -3.1571
   19SAPC   H3Y 2502   3.947   5.996   9.736  1.0022 -2.5940 -1.8962
   19SAPC   C34 2503   3.993   5.794   9.775 -0.7900  0.0602 -0.1723
   19SAPC   H4X 2504   3.901   5.744   9.738 -0.2740  0.7592 -2.5656
   19SAPC   H4Y 2505   4.038   5.729   9.854 -0.5311 -0.4377 -0.7183
   19SAPC   C35 2506   4.091   5.791   9.654  0.0725  0.4294  0.1905
   19SAPC   H5X 2507   4.134   5.689   9.652 -0.0294  0.2939  2.3358
   19SAPC   H5Y 2508   4.186   5.847   9.661  0.5866  0.0271 -2.4447
   19SAPC   C36 2509   4.030   5.833   9.520  0.0029 -0.0184  0.2700
   19SAPC   H6X 2510   3.972   5.928   9.525  2.1135  1.3170  0.5942
   19SAPC   H6Y 2511   3.972   5.748   9.479  2.5095 -2.2430  1.0799
   19SAPC   C37 2512   4.133   5.876   9.417 -0.0711  0.4341 -0.6841
   19SAPC   H7X 2513   4.220   5.808   9.407  1.5281  2.4149 -0.8618
   19SAPC   H7Y 2514   4.167   5.975   9.453  2.1851 -0.7484  0.6566
   19SAPC   C38 2515   4.083   5.878   9.272 -0.0747 -0.1261  0.3492
   19SAPC   H8X 2516   3.982   5.923   9.260 -1.4441 -3.2911 -1.2368
   19SAPC   H8Y 2517   4.076   5.772   9.240  2.7248 -0.3907  0.3147
   19SAPC   C39 2518   4.187   5.946   9.178 -0.1437 -0.0840  0.8007
   19SAPC   H9X 2519   4.218   6.042   9.225  0.4043  0.1222  0.0391
   19SAPC   H9Y 2520   4.128   5.972   9.088 -2.1709 -2.4329  1.3293
   19SAPC  C310 2521   4.287   5.843   9.127  0.5555 -0.1111 -0.5639
   19SAPC  H10X 2522   4.227   5.763   9.081  0.2316 -0.2652  0.1155
   19SAPC  H10Y 2523   4.338   5.794   9.213 -2.0308 -1.0202  0.5522
   19SAPC  C311 2524   4.399   5.914   9.042 -0.0515  0.3233  0.2552
   19SAPC  H11X 2525   4.480   5.970   9.093  1.3818 -0.9224 -0.5786
   19SAPC  H11Y 2526   4.351   5.986   8.972  2.3997  0.2015 -1.7172
   19SAPC  C312 2527   4.463   5.824   8.940  0.3250 -0.5370  0.0111
   19SAPC  H12X 2528   4.539   5.879   8.881 -0.1770  0.9664  0.7138
   19SAPC  H12Y 2529   4.383   5.797   8.867  1.0639 -1.4083 -0.5038
   19SAPC  C313 2530   4.519   5.696   8.997 -0.0043  0.2373  0.4306
   19SAPC  H13X 2531   4.435   5.636   9.039 -2.4501  1.8049 -1.8642
   19SAPC  H13Y 2532   4.589   5.731   9.076  0.9737 -1.1703  0.2292
   19SAPC  C314 2533   4.603   5.621   8.892  0.1110 -0.1296 -0.1378
   19SAPC  H14X 2534   4.663   5.695   8.834 -0.3776 -0.9329 -1.7033
   19SAPC  H14Y 2535   4.537   5.578   8.814 -1.9851  0.4879  1.2081
   19SAPC  C315 2536   4.685   5.520   8.959 -0.0431  0.0233 -0.1632
   19SAPC  H15X 2537   4.633   5.484   9.050 -0.0666 -1.8374 -0.8651
   19SAPC  H15Y 2538   4.783   5.558   8.996 -0.5698 -0.1558  1.5204
   19SAPC  C316 2539   4.712   5.392   8.876 -0.1151 -0.2285 -0.2393
   19SAPC  H16X 2540   4.614   5.376   8.825 -0.1726  1.3021 -0.6724
   19SAPC  H16Y 2541   4.735   5.308   8.945  0.3497  1.1360  1.3237
   19SAPC  C317 2542   4.842   5.400   8.799  0.2018 -0.0257 -0.0864
   19SAPC  H17X 2543   4.915   5.407   8.883 -1.1606 -1.0612  1.2271
   19SAPC  H17Y 2544   4.850   5.497   8.746  2.3519  0.1513  0.4711
   19SAPC  C318 2545   4.856   5.280   8.708 -0.4060 -0.4412 -0.6064
   19SAPC  H18X 2546   4.764   5.259   8.651 -1.6068  2.6305  0.0287
   19SAPC  H18Y 2547   4.882   5.190   8.767  1.0837 -0.4149 -1.1667
   19SAPC  H18Z 2548   4.950   5.296   8.650  2.1661 -3.0199  2.4130
   20SAPC     N 2549   6.561   3.103  11.327 -0.2168  0.2472  0.2800
   20SAPC   C12 2550   6.528   3.062  11.185 -0.3334  0.6195  0.1250
   20SAPC  H12A 2551   6.623   3.027  11.146 -0.5807  1.3987 -1.2601
   20SAPC  H12B 2552   6.508   3.145  11.119 -0.2241 -0.1851 -0.9580
   20SAPC   C13 2553   6.622   2.989  11.399 -0.3462 -0.3843 -0.5699
   20SAPC  H13A 2554   6.684   3.025  11.480 -0.7361  1.2952 -0.9834
   20SAPC  H13B 2555   6.563   2.915  11.450  0.8007 -1.2730 -0.4875
   20SAPC  H13C 2556   6.694   2.938  11.337  1.7158 -0.4985  1.7659
   20SAPC   C14 2557   6.661   3.212  11.333 -0.0741  0.1575 -0.2362
   20SAPC  H14A 2558   6.704   3.212  11.432  0.2242  0.4457 -0.3594
   20SAPC  H14B 2559   6.737   3.205  11.257 -0.4687 -1.1902 -0.5212
   20SAPC  H14C 2560   6.615   3.308  11.312  0.7821  0.5192 -0.5229
   20SAPC   C15 2561   6.443   3.152  11.395  0.4189  0.1268  0.0997
   20SAPC  H15A 2562   6.439   3.163  11.502  0.8100 -0.5342  0.1874
   20SAPC  H15B 2563   6.411   3.236  11.335  3.9460  1.7626  0.2982
   20SAPC  H15C 2564   6.367   3.077  11.378  0.1726  0.8560 -2.3422
   20SAPC   C11 2565   6.420   2.955  11.162  0.4858  0.1812  0.4525
   20SAPC  H11A 2566   6.451   2.876  11.234  0.0557  1.1305  1.7253
   20SAPC  H11B 2567   6.424   2.902  11.064  0.3614  0.4675  0.2913
   20SAPC     P 2568   6.203   3.067  11.096  0.0087  0.0596 -0.1131
   20SAPC   O13 2569   6.086   3.124  11.167  0.1589 -0.1844 -0.2503
   20SAPC   O14 2570   6.293   3.166  11.034 -0.8681 -0.4000  0.4618
   20SAPC   O12 2571   6.288   2.988  11.203  0.0802  0.0061 -0.3138
   20SAPC   O11 2572   6.163   2.959  10.993 -0.2020  0.2694 -0.0833
   20SAPC    C1 2573   6.073   2.853  11.029  0.0268 -1.1613 -0.2284
   20SAPC    HA 2574   6.102   2.795  11.118  0.0769  0.6458  0.9803
   20SAPC    HB 2575   5.970   2.890  11.050  0.9103  0.0743  2.2395
   20SAPC    C2 2576   6.062   2.749  10.911  0.6824 -0.2804 -0.6276
   20SAPC    HS 2577   5.995   2.666  10.943  1.1425 -0.0473  1.0383
   20SAPC   O21 2578   6.185   2.704  10.854 -0.5836 -0.2001 -0.5187
   20SAPC   C21 2579   6.262   2.634  10.939  0.2041 -0.1991 -0.2120
   20SAPC   O22 2580   6.240   2.609  11.057  0.0327 -0.3427  0.4246
   20SAPC   C22 2581   6.396   2.589  10.880  0.0669  0.2282  0.1702
   20SAPC   H2R 2582   6.469   2.619  10.958 -0.3085 -0.9150  0.9959
   20SAPC   H2S 2583   6.399   2.479  10.867  0.1128  0.2954 -0.4182
   20SAPC    C3 2584   5.981   2.797  10.795 -0.0269  0.5617  0.2009
   20SAPC    HX 2585   5.984   2.900  10.753  0.7471 -0.7106 -3.2064
   20SAPC    HY 2586   5.879   2.782  10.836 -0.1060  0.9215  0.1378
   20SAPC   O31 2587   5.994   2.708  10.675  0.0691 -0.2540  0.0689
   20SAPC   C31 2588   6.070   2.742  10.576  0.1572 -0.5040  0.1078
   20SAPC   O32 2589   6.131   2.847  10.565  0.4523 -0.5518  0.6247
   20SAPC   C32 2590   6.069   2.643  10.468  0.8733 -0.3408 -0.1487
   20SAPC   H2X 2591   5.980   2.577  10.471  0.0948  0.6755 -0.4436
   20SAPC   H2Y 2592   6.155   2.573  10.481 -0.4958 -2.1565 -0.3981
   20SAPC   C23 2593   6.424   2.661  10.746 -0.3624 -0.0005 -0.4217
   20SAPC   H3R 2594   6.426   2.770  10.764 -1.5971 -0.0657  0.2347
   20SAPC   H3S 2595   6.345   2.645  10.670 -0.6247 -0.2162 -0.1055
   20SAPC   C24 2596   6.564   2.614  10.679 -0.1514 -0.0441  0.2993
   20SAPC   H4R 2597   6.564   2.648  10.573  1.5927 -0.1285  0.2460
   20SAPC   H4S 2598   6.553   2.503  10.671 -1.8405  0.0886  0.3221
   20SAPC   C25 2599   6.680   2.668  10.750 -0.2644  0.5992  0.0711
   20SAPC   H5R 2600   6.659   2.765  10.798  0.8796  2.1499 -2.3156
   20SAPC   C26 2601   6.792   2.602  10.784  0.8619 -0.1226 -0.3709
   20SAPC   H6R 2602   6.870   2.664  10.831  0.4018 -0.7774  1.3314
   20SAPC   C27 2603   6.830   2.466  10.743  0.9445 -0.3048 -0.5043
   20SAPC   H7R 2604   6.752   2.408  10.688  0.1739  1.4268 -1.3182
   20SAPC   H7S 2605   6.851   2.416  10.840 -0.9231 -0.4504 -0.1342
   20SAPC   C28 2606   6.951   2.464  10.662 -0.8913  0.2730  0.3934
   20SAPC   H8R 2607   7.022   2.543  10.691  0.3797 -1.5638  2.6214
   20SAPC   C29 2608   6.982   2.382  10.565 -0.2033 -0.2553  0.8123
   20SAPC   H9R 2609   7.084   2.375  10.522  0.6301  2.6410  2.1176
   20SAPC  C210 2610   6.887   2.277  10.501  0.8240 -0.3740 -0.1540
   20SAPC  H10R 2611   6.796   2.311  10.447  0.2730 -0.3102  0.7789
   20SAPC  H10S 2612   6.856   2.200  10.575  2.4975 -4.1583 -3.0573
   20SAPC  C211 2613   6.958   2.188  10.408 -0.4351 -0.3423 -0.1186
   20SAPC  H11R 2614   7.033   2.123  10.455  2.9088  2.7021 -0.7886
   20SAPC  C212 2615   6.940   2.174  10.267  0.5731 -0.1220 -0.3423
   20SAPC  H12R 2616   7.002   2.102  10.212  1.4468  1.1802 -1.1379
   20SAPC  C213 2617   6.846   2.243  10.181  0.9398  0.1952  0.3608
   20SAPC  H13R 2618   6.909   2.311  10.120  0.2846  1.2313  0.8167
   20SAPC  H13S 2619   6.786   2.319  10.236  1.1258 -0.2637  1.2247
   20SAPC  C214 2620   6.763   2.148  10.091 -0.1343 -0.5718  0.0874
   20SAPC  H14R 2621   6.694   2.078  10.139 -0.3328 -2.4467 -2.7209
   20SAPC  C215 2622   6.752   2.147   9.957  0.1874  0.4273  0.5616
   20SAPC  H15R 2623   6.675   2.085   9.910  0.8662 -0.7185  0.9377
   20SAPC  C216 2624   6.828   2.230   9.857 -0.1844  0.6387 -0.7571
   20SAPC  H16R 2625   6.858   2.325   9.907 -2.1054  0.1316  1.5479
   20SAPC  H16S 2626   6.772   2.242   9.761 -1.5872 -3.3965 -0.6134
   20SAPC  C217 2627   6.958   2.159   9.816 -0.0470 -0.7376 -0.1109
   20SAPC  H17R 2628   6.938   2.056   9.780 -0.3882 -1.0804  1.0282
   20SAPC  H17S 2629   7.027   2.146   9.902 -0.0429 -2.4533 -0.3475
   20SAPC  C218 2630   7.033   2.236   9.711 -0.6208 -0.1461 -0.6011
   20SAPC  H18R 2631   7.061   2.337   9.748  1.4687 -0.3883 -1.4143
   20SAPC  H18S 2632   6.970   2.236   9.620  0.2081  0.0479 -1.1802
   20SAPC  C219 2633   7.171   2.170   9.670  0.6366 -0.5645  0.5026
   20SAPC  H19R 2634   7.152   2.061   9.665 -0.8877 -0.2843 -0.7514
   20SAPC  H19S 2635   7.244   2.184   9.752  1.2500 -1.2511  0.0818
   20SAPC  C220 2636   7.222   2.214   9.524  0.4027  0.6538 -0.3230
   20SAPC  H20R 2637   7.147   2.189   9.446  1.5713 -2.4517 -0.6244
   20SAPC  H20S 2638   7.310   2.152   9.494 -0.0602 -0.6323  0.8526
   20SAPC  H20T 2639   7.256   2.320   9.529  1.4465  0.3675 -0.9837
   20SAPC   C33 2640   6.081   2.721  10.336 -0.1049 -0.1413 -0.3194
   20SAPC   H3X 2641   6.167   2.791  10.338 -0.5421  0.4146  1.9488
   20SAPC   H3Y 2642   5.998   2.794  10.337  1.8898  2.3968  3.0120
   20SAPC   C34 2643   6.062   2.633  10.214  0.2603  0.1198 -0.1533
   20SAPC   H4X 2644   5.960   2.594  10.193  0.9854 -1.8663 -0.1945
   20SAPC   H4Y 2645   6.119   2.539  10.228 -3.1043 -2.1246 -0.4320
   20SAPC   C35 2646   6.105   2.698  10.087 -0.1074 -0.3812  0.6459
   20SAPC   H5X 2647   6.215   2.686  10.075 -0.3313 -1.7770 -0.3419
   20SAPC   H5Y 2648   6.088   2.807  10.081  1.1092 -0.1928  0.3727
   20SAPC   C36 2649   6.035   2.628   9.964  0.1183 -0.6112  0.3732
   20SAPC   H6X 2650   5.925   2.621   9.980 -0.1738 -0.2237 -1.3397
   20SAPC   H6Y 2651   6.087   2.531   9.947  2.4925  0.6970 -0.2011
   20SAPC   C37 2652   6.061   2.711   9.834 -0.2806 -0.4286  0.2547
   20SAPC   H7X 2653   6.170   2.725   9.817  0.0711  0.1042  2.6120
   20SAPC   H7Y 2654   6.021   2.812   9.859  0.3034 -0.1292  0.0134
   20SAPC   C38 2655   5.997   2.645   9.707 -0.4089 -0.0345 -0.0261
   20SAPC   H8X 2656   5.887   2.664   9.707 -0.0407  2.6016  0.9599
   20SAPC   H8Y 2657   6.011   2.537   9.725  0.3962 -0.0029 -0.4156
   20SAPC   C39 2658   6.057   2.696   9.575  0.4441 -0.4305  0.0423
   20SAPC   H9X 2659   6.165   2.708   9.595  0.1677  1.0452  0.8592
   20SAPC   H9Y 2660   6.011   2.791   9.538  0.7770 -0.8484 -1.5085
   20SAPC  C310 2661   6.025   2.595   9.455 -0.0006 -0.4326  0.8006
   20SAPC  H10X 2662   5.919   2.561   9.454  0.0067 -0.5241 -1.0891
   20SAPC  H10Y 2663   6.085   2.507   9.485 -1.5791 -1.1869  1.8953
   20SAPC  C311 2664   6.073   2.642   9.314 -0.0147 -0.2928 -0.1897
   20SAPC  H11X 2665   6.182   2.658   9.327 -0.1352  0.2053  0.2238
   20SAPC  H11Y 2666   6.022   2.740   9.303  0.0057 -0.5082 -3.0131
   20SAPC  C312 2667   6.051   2.547   9.196  0.1637 -0.7686 -0.0788
   20SAPC  H12X 2668   6.097   2.581   9.101 -1.7072  1.9006 -0.1480
   20SAPC  H12Y 2669   5.942   2.531   9.185  0.1079  0.3871 -1.4955
   20SAPC  C313 2670   6.110   2.404   9.211  0.2439 -0.7388 -0.5645
   20SAPC  H13X 2671   6.065   2.360   9.303 -1.2064  3.1064  0.7784
   20SAPC  H13Y 2672   6.216   2.415   9.240 -0.4740 -2.0887  3.1503
   20SAPC  C314 2673   6.085   2.305   9.103 -0.4508  0.6658  0.2064
   20SAPC  H14X 2674   5.982   2.315   9.063  0.1033  0.5308 -1.2988
   20SAPC  H14Y 2675   6.109   2.202   9.137 -0.7308  0.6059  0.2179
   20SAPC  C315 2676   6.171   2.341   8.981  0.0958  0.1658 -0.1914
   20SAPC  H15X 2677   6.279   2.340   9.004  0.0169 -0.7770  0.2133
   20SAPC  H15Y 2678   6.149   2.443   8.944  2.4049  0.8176  0.0927
   20SAPC  C316 2679   6.143   2.248   8.859  0.3980 -0.7140  0.6849
   20SAPC  H16X 2680   6.176   2.146   8.887  0.0440 -0.2824  2.7987
   20SAPC  H16Y 2681   6.209   2.290   8.779  0.0934 -1.2016  0.1680
   20SAPC  C317 2682   6.003   2.254   8.794  0.5970 -0.2156 -0.1208
   20SAPC  H17X 2683   6.027   2.276   8.688  0.3842  0.8109  0.0331
   20SAPC  H17Y 2684   5.946   2.339   8.837 -0.1211 -0.2198 -1.0283
   20SAPC  C318 2685   5.919   2.128   8.788  0.7429 -0.0010 -0.0145
   20SAPC  H18X 2686   5.969   2.048   8.729 -0.2025 -0.1652 -0.6017
   20SAPC  H18Y 2687   5.823   2.157   8.741  0.7980  0.3518  0.0884
   20SAPC  H18Z 2688   5.895   2.089   8.889  1.0026 -0.3327 -0.0772
   21SAPC     N 2689   2.536   0.936  10.990  0.3318 -0.2292  0.4169
   21SAPC   C12 2690   2.449   0.840  10.913  0.2348 -0.2643  0.0705
   21SAPC  H12A 2691   2.347   0.875  10.916  0.5169  0.9612 -2.3488
   21SAPC  H12B 2692   2.440   0.741  10.954  2.9038 -0.5323  0.2409
   21SAPC   C13 2693   2.546   1.082  10.931  0.5240 -0.0854  0.8397
   21SAPC  H13A 2694   2.619   1.140  10.986  2.1357 -0.2629 -1.0210
   21SAPC  H13B 2695   2.574   1.066  10.828 -1.6911 -0.9240  0.2961
   21SAPC  H13C 2696   2.448   1.126  10.925  0.6938  0.1437 -0.8295
   21SAPC   C14 2697   2.483   0.931  11.134 -0.9586  0.2904 -0.2169
   21SAPC  H14A 2698   2.509   0.840  11.187  0.0498 -0.0735 -1.2944
   21SAPC  H14B 2699   2.522   1.012  11.194 -0.3495  0.0915 -0.3406
   21SAPC  H14C 2700   2.377   0.951  11.134 -0.6999  2.0510  2.1734
   21SAPC   C15 2701   2.675   0.883  11.004  0.3052 -0.7017 -0.3850
   21SAPC  H15A 2702   2.714   0.855  10.908 -1.3314 -2.1853 -0.6815
   21SAPC  H15B 2703   2.733   0.943  11.072 -1.9580 -0.5517  1.5578
   21SAPC  H15C 2704   2.669   0.786  11.051 -0.0283 -0.5501 -0.1063
   21SAPC   C11 2705   2.476   0.817  10.759  0.2532 -0.6744  0.0750
   21SAPC  H11A 2706   2.451   0.914  10.712 -2.5851  0.1926  3.0641
   21SAPC  H11B 2707   2.405   0.749  10.707  0.5947  0.6057 -2.1818
   21SAPC     P 2708   2.654   0.645  10.679  0.0231  0.4257 -0.0340
   21SAPC   O13 2709   2.803   0.650  10.699 -0.1162 -0.2563  0.0999
   21SAPC   O14 2710   2.570   0.545  10.747 -0.1424 -0.4070  0.5518
   21SAPC   O12 2711   2.610   0.785  10.735  0.0112 -0.8159  0.0774
   21SAPC   O11 2712   2.627   0.643  10.524 -0.3561 -0.3395  0.1373
   21SAPC    C1 2713   2.626   0.759  10.445 -0.3432  0.8348  0.1521
   21SAPC    HA 2714   2.532   0.753  10.386  0.8657 -0.0694 -1.7847
   21SAPC    HB 2715   2.611   0.854  10.501 -3.0058  0.0293  0.9735
   21SAPC    C2 2716   2.748   0.774  10.351 -0.1673 -0.6686  0.0778
   21SAPC    HS 2717   2.731   0.858  10.280 -1.1100 -1.3447 -0.5188
   21SAPC   O21 2718   2.776   0.652  10.283  0.2387 -0.0740  0.6410
   21SAPC   C21 2719   2.772   0.648  10.150 -0.3821  0.5908 -0.1268
   21SAPC   O22 2720   2.752   0.743  10.076  0.1189  0.1200  0.1470
   21SAPC   C22 2721   2.790   0.504  10.095 -0.0173  0.2802  0.5194
   21SAPC   H2R 2722   2.846   0.445  10.172 -0.9729  0.7903  1.6366
   21SAPC   H2S 2723   2.690   0.457  10.094  0.2646 -0.3215 -0.3798
   21SAPC    C3 2724   2.881   0.811  10.420  0.2706 -0.2545  0.2623
   21SAPC    HX 2725   2.923   0.733  10.486  1.8856  0.8716  0.6271
   21SAPC    HY 2726   2.853   0.898  10.484 -0.3584 -0.7090  0.6249
   21SAPC   O31 2727   2.978   0.863  10.322 -0.0418  0.3048  0.3615
   21SAPC   C31 2728   3.084   0.789  10.290  0.5297  0.4683 -0.1630
   21SAPC   O32 2729   3.107   0.677  10.333  0.7677 -0.1338 -0.1164
   21SAPC   C32 2730   3.185   0.872  10.209 -0.4371 -0.0383 -0.2289
   21SAPC   H2X 2731   3.260   0.902  10.285 -2.1682  1.9546  0.8006
   21SAPC   H2Y 2732   3.134   0.962  10.169  1.2597  0.7060 -0.8054
   21SAPC   C23 2733   2.856   0.499   9.959  0.1273 -0.1546  0.1569
   21SAPC   H3R 2734   2.893   0.394   9.959 -0.2872 -0.3031  0.4293
   21SAPC   H3S 2735   2.948   0.560   9.950  2.0414 -3.0706 -2.4818
   21SAPC   C24 2736   2.761   0.523   9.841  0.0987  0.4472 -0.1614
   21SAPC   H4R 2737   2.709   0.619   9.865 -3.3193 -1.3084  0.1054
   21SAPC   H4S 2738   2.671   0.460   9.823  0.2671  0.3360 -0.6030
   21SAPC   C25 2739   2.842   0.532   9.710  0.4912 -0.5937 -0.0737
   21SAPC   H5R 2740   2.902   0.624   9.699 -0.4275 -0.2425 -3.0102
   21SAPC   C26 2741   2.834   0.443   9.610 -0.7226 -0.3015 -0.5659
   21SAPC   H6R 2742   2.903   0.452   9.525 -0.1136  0.1518 -0.0357
   21SAPC   C27 2743   2.744   0.323   9.594  0.1455 -0.0042  0.2978
   21SAPC   H7R 2744   2.684   0.341   9.502  0.1225  1.6433  0.6040
   21SAPC   H7S 2745   2.664   0.324   9.671  1.1934  2.3968  1.4631
   21SAPC   C28 2746   2.827   0.191   9.583  0.5899  0.1347 -0.7362
   21SAPC   H8R 2747   2.909   0.188   9.656  0.0411  1.4813 -0.0235
   21SAPC   C29 2748   2.793   0.087   9.509  0.1148  0.7869 -0.1120
   21SAPC   H9R 2749   2.856  -0.002   9.513 -1.4715 -0.3272  1.9967
   21SAPC  C210 2750   2.687   0.076   9.406  0.1155 -0.2581  0.5061
   21SAPC  H10R 2751   2.628   0.171   9.412  1.5544  0.6636  0.5063
   21SAPC  H10S 2752   2.611  -0.003   9.426 -0.6557  0.1279 -0.7408
   21SAPC  C211 2753   2.724   0.048   9.259  0.1458 -0.1520 -0.3135
   21SAPC  H11R 2754   2.763   0.142   9.217 -1.1746  1.1595  1.2950
   21SAPC  C212 2755   2.733  -0.070   9.193  0.5250  0.2745 -0.2139
   21SAPC  H12R 2756   2.773  -0.071   9.091 -0.7821  0.6008 -0.7360
   21SAPC  C213 2757   2.704  -0.206   9.254 -0.4009  0.6212  0.4765
   21SAPC  H13R 2758   2.662  -0.200   9.356 -0.9649  1.5728  0.2024
   21SAPC  H13S 2759   2.796  -0.266   9.271 -1.9348 -1.0859  3.5466
   21SAPC  C214 2760   2.604  -0.266   9.165  0.3791  0.1136 -0.2148
   21SAPC  H14R 2761   2.513  -0.203   9.172  0.0288 -0.4376  0.3584
   21SAPC  C215 2762   2.602  -0.373   9.089 -0.0299 -0.1583 -0.0522
   21SAPC  H15R 2763   2.522  -0.389   9.016 -1.7446 -1.8859  2.0749
   21SAPC  C216 2764   2.713  -0.469   9.096 -0.3549  0.5478 -0.2021
   21SAPC  H16R 2765   2.665  -0.568   9.109  2.0242 -0.4921  1.2823
   21SAPC  H16S 2766   2.776  -0.455   9.186  1.4071  2.0684 -1.5956
   21SAPC  C217 2767   2.819  -0.472   8.978 -0.5764  0.0931  0.2844
   21SAPC  H17R 2768   2.892  -0.551   9.006 -3.1100 -1.8812  1.7294
   21SAPC  H17S 2769   2.860  -0.369   8.985 -1.3473  0.4665 -0.5995
   21SAPC  C218 2770   2.755  -0.511   8.847  0.6577 -0.2864  0.4503
   21SAPC  H18R 2771   2.718  -0.413   8.808  3.1320  1.4198  2.0712
   21SAPC  H18S 2772   2.668  -0.579   8.856  0.6309 -0.6768 -2.1758
   21SAPC  C219 2773   2.842  -0.568   8.731  0.5887  0.1569 -0.2694
   21SAPC  H19R 2774   2.884  -0.668   8.757  1.3053  0.3801 -0.5596
   21SAPC  H19S 2775   2.914  -0.494   8.692 -0.0045  1.1388  0.4441
   21SAPC  C220 2776   2.747  -0.606   8.616 -1.2229  0.1100 -0.2729
   21SAPC  H20R 2777   2.671  -0.681   8.649  0.1557 -2.0846 -1.8405
   21SAPC  H20S 2778   2.799  -0.638   8.523  0.4370  1.1233  0.2522
   21SAPC  H20T 2779   2.691  -0.519   8.577  0.1879  0.9349 -0.5459
   21SAPC   C33 2780   3.250   0.794  10.093 -0.2802 -0.0770  0.4054
   21SAPC   H3X 2781   3.323   0.721  10.134 -2.2105 -1.1080  2.1549
   21SAPC   H3Y 2782   3.300   0.871  10.030  0.3266  0.6191  1.6849
   21SAPC   C34 2783   3.136   0.723  10.010 -0.5127  0.2203 -0.0776
   21SAPC   H4X 2784   3.074   0.668  10.083 -0.2675 -0.0011 -0.0345
   21SAPC   H4Y 2785   3.182   0.650   9.940  0.7866  0.7390  0.1934
   21SAPC   C35 2786   3.049   0.820   9.926 -0.3214  0.0036 -0.3138
   21SAPC   H5X 2787   2.980   0.879   9.990  3.7448  2.0341  2.6906
   21SAPC   H5Y 2788   2.980   0.763   9.860 -2.2945  0.3773  1.3189
   21SAPC   C36 2789   3.126   0.917   9.833 -0.5320  0.4577  0.3945
   21SAPC   H6X 2790   3.210   0.865   9.781 -2.7674 -1.7291 -1.2793
   21SAPC   H6Y 2791   3.167   0.998   9.897 -0.7337  1.0727 -0.2517
   21SAPC   C37 2792   3.043   0.998   9.738  0.5807  0.0134  0.9964
   21SAPC   H7X 2793   3.082   1.100   9.722 -0.7553  0.2371 -1.2916
   21SAPC   H7Y 2794   2.939   1.005   9.774  0.8196  0.1979  1.6575
   21SAPC   C38 2795   3.044   0.939   9.596  0.8172 -0.5866 -0.3147
   21SAPC   H8X 2796   2.959   0.867   9.591 -0.2854  0.7214 -1.2913
   21SAPC   H8Y 2797   3.139   0.885   9.578 -0.2315 -2.3702 -0.7103
   21SAPC   C39 2798   3.026   1.041   9.489 -0.5092  0.1416 -0.4578
   21SAPC   H9X 2799   3.109   1.115   9.479 -1.2960  0.9173 -1.4475
   21SAPC   H9Y 2800   2.933   1.093   9.519 -0.8739  0.6905 -2.3774
   21SAPC  C310 2801   3.019   0.960   9.361 -0.0123 -0.9874 -0.2778
   21SAPC  H10X 2802   2.937   0.885   9.373 -0.0119 -1.0640 -0.7460
   21SAPC  H10Y 2803   3.116   0.908   9.348  1.4962  1.8448 -1.0073
   21SAPC  C311 2804   2.986   1.044   9.239 -0.0160 -0.0263 -0.0762
   21SAPC  H11X 2805   3.038   1.140   9.260  1.7746 -1.1673  1.0567
   21SAPC  H11Y 2806   2.878   1.066   9.228  0.5135  1.9615 -1.7844
   21SAPC  C312 2807   3.049   0.975   9.109  0.7264 -0.5540 -0.4553
   21SAPC  H12X 2808   3.158   0.958   9.125  0.9190  2.5921  2.9736
   21SAPC  H12Y 2809   3.024   1.043   9.025  1.3676 -1.1407 -1.1354
   21SAPC  C313 2810   2.966   0.845   9.077 -0.9048  0.2297 -0.6161
   21SAPC  H13X 2811   2.858   0.868   9.077 -1.0461 -0.4195  0.1875
   21SAPC  H13Y 2812   2.986   0.780   9.164  1.1981 -0.2442 -1.3711
   21SAPC  C314 2813   3.007   0.777   8.944 -0.0024 -0.0877 -0.5972
   21SAPC  H14X 2814   3.112   0.740   8.943 -0.7522 -2.4648  0.6349
   21SAPC  H14Y 2815   2.981   0.845   8.860 -1.1819  2.6750  1.8097
   21SAPC  C315 2816   2.926   0.647   8.914 -1.0687 -0.4446 -0.5469
   21SAPC  H15X 2817   2.820   0.666   8.890 -1.6626 -1.7072  0.9247
   21SAPC  H15Y 2818   2.918   0.582   9.003 -1.0580  0.6104  0.2454
   21SAPC  C316 2819   2.978   0.565   8.793  0.4182  0.3634 -1.0949
   21SAPC  H16X 2820   2.908   0.482   8.770  2.4398 -2.1515  1.2145
   21SAPC  H16Y 2821   3.071   0.515   8.826  0.3891  1.8914  1.5117
   21SAPC  C317 2822   3.002   0.656   8.673  0.3738 -0.0727 -0.0907
   21SAPC  H17X 2823   3.094   0.712   8.700  0.3315  0.0995 -0.3024
   21SAPC  H17Y 2824   2.907   0.714   8.682  0.3274 -0.3421  1.4973
   21SAPC  C318 2825   3.019   0.579   8.544 -0.3440 -0.3057 -0.9719
   21SAPC  H18X 2826   2.964   0.483   8.538  1.8790 -1.7680  0.4308
   21SAPC  H18Y 2827   3.127   0.555   8.531  0.5002  1.6202  1.5531
   21SAPC  H18Z 2828   2.992   0.639   8.455  1.2517 -0.9895 -1.9751
   22SAPC     N 2829   5.495   5.716  10.577  1.0085  0.0040  0.6134
   22SAPC   C12 2830   5.575   5.634  10.477 -0.2863  0.5991 -0.0896
   22SAPC  H12A 2831   5.546   5.654  10.375  0.5769 -0.7089 -0.6239
   22SAPC  H12B 2832   5.545   5.532  10.501 -0.9477  0.9152  0.4759
   22SAPC   C13 2833   5.483   5.652  10.712 -0.8011  0.4835 -0.2194
   22SAPC  H13A 2834   5.407   5.700  10.771  0.2676  1.1355  0.6586
   22SAPC  H13B 2835   5.447   5.551  10.698 -1.4915  1.0687 -3.8248
   22SAPC  H13C 2836   5.575   5.669  10.766 -0.7122 -2.1643  0.6394
   22SAPC   C14 2837   5.557   5.853  10.596  0.0308 -0.4436  0.4560
   22SAPC  H14A 2838   5.517   5.922  10.668 -0.4289  0.2995 -0.4866
   22SAPC  H14B 2839   5.651   5.835  10.646  0.1308  0.3695  0.5731
   22SAPC  H14C 2840   5.600   5.896  10.506  2.4438 -1.8001  0.8637
   22SAPC   C15 2841   5.361   5.741  10.518 -0.5205  0.3476 -0.5556
   22SAPC  H15A 2842   5.368   5.778  10.417  0.6603  0.4638 -0.4520
   22SAPC  H15B 2843   5.306   5.649  10.505 -1.4989  1.1221 -1.9798
   22SAPC  H15C 2844   5.304   5.810  10.579  0.2819  0.2818  0.3010
   22SAPC   C11 2845   5.727   5.655  10.488 -0.3555 -0.5364 -0.0743
   22SAPC  H11A 2846   5.742   5.761  10.458 -0.2771 -0.2522  0.9432
   22SAPC  H11B 2847   5.790   5.609  10.409  1.5639  2.5747 -0.5471
   22SAPC     P 2848   5.837   5.484  10.654 -0.2075  0.1715 -0.0990
   22SAPC   O13 2849   5.876   5.481  10.794 -0.0509 -0.2599  0.2200
   22SAPC   O14 2850   5.733   5.391  10.609 -0.6238  0.4716 -0.3832
   22SAPC   O12 2851   5.790   5.632  10.616  0.4589  0.3201 -0.0072
   22SAPC   O11 2852   5.962   5.452  10.570 -0.0425  0.0375  0.1957
   22SAPC    C1 2853   6.062   5.555  10.540 -0.2129  0.2017  0.0611
   22SAPC    HA 2854   6.019   5.653  10.510  1.4959  1.0800  0.3376
   22SAPC    HB 2855   6.121   5.585  10.630  1.1881  2.0329 -1.3842
   22SAPC    C2 2856   6.165   5.519  10.434  0.2175  0.5373  0.9057
   22SAPC    HS 2857   6.222   5.611  10.408  0.8196 -0.3131 -0.9610
   22SAPC   O21 2858   6.096   5.484  10.309  0.1701  0.1084 -0.3432
   22SAPC   C21 2859   6.017   5.569  10.247  0.2289  0.5469 -0.3275
   22SAPC   O22 2860   6.009   5.688  10.275  0.0504  0.2554  0.2240
   22SAPC   C22 2861   5.946   5.496  10.138  0.2188  0.3642  0.2821
   22SAPC   H2R 2862   6.023   5.441  10.079 -1.2488  0.5096 -1.8702
   22SAPC   H2S 2863   5.885   5.420  10.191 -4.2552  1.8126 -2.2736
   22SAPC    C3 2864   6.256   5.402  10.482  0.5456  0.4171  0.4097
   22SAPC    HX 2865   6.190   5.324  10.525 -0.3037 -0.2305 -1.8778
   22SAPC    HY 2866   6.320   5.434  10.567  0.6205 -0.3507  0.6510
   22SAPC   O31 2867   6.337   5.337  10.379  0.6094 -0.4078 -0.3948
   22SAPC   C31 2868   6.271   5.252  10.302 -0.1043  0.0323  0.1811
   22SAPC   O32 2869   6.155   5.211  10.311  0.3817 -0.2599 -0.4443
   22SAPC   C32 2870   6.359   5.211  10.188 -0.1305 -0.1624  0.3149
   22SAPC   H2X 2871   6.364   5.100  10.189 -0.2151 -0.1657  0.3868
   22SAPC   H2Y 2872   6.466   5.239  10.204 -0.1364 -0.2799  0.5795
   22SAPC   C23 2873   5.865   5.587  10.041 -0.2297 -0.2616 -0.2626
   22SAPC   H3R 2874   5.929   5.650   9.975 -0.1159 -0.0385  0.0548
   22SAPC   H3S 2875   5.810   5.665  10.099  0.4423 -0.7771  1.1130
   22SAPC   C24 2876   5.740   5.520   9.984  0.4876  0.5476  0.3405
   22SAPC   H4R 2877   5.659   5.593   9.961 -1.5236 -1.8675 -0.8462
   22SAPC   H4S 2878   5.696   5.447  10.056  1.1125 -0.9196 -0.7133
   22SAPC   C25 2879   5.769   5.439   9.862  0.0790  0.3585  0.5418
   22SAPC   H5R 2880   5.807   5.336   9.877 -0.6276 -0.5167 -2.8493
   22SAPC   C26 2881   5.756   5.475   9.728  0.6322 -0.2947  0.1454
   22SAPC   H6R 2882   5.803   5.416   9.648  0.2265 -0.6274  0.1486
   22SAPC   C27 2883   5.702   5.616   9.694  0.0448  0.1892  0.0641
   22SAPC   H7R 2884   5.688   5.686   9.779 -2.6515 -0.9342  0.6645
   22SAPC   H7S 2885   5.598   5.610   9.655  0.0118 -1.4764  0.3653
   22SAPC   C28 2886   5.770   5.681   9.576 -0.5958 -0.5745 -0.9499
   22SAPC   H8R 2887   5.831   5.768   9.603  0.8830 -2.0291  0.7246
   22SAPC   C29 2888   5.751   5.656   9.445  0.4459  0.2278  0.1761
   22SAPC   H9R 2889   5.807   5.716   9.372  0.9649 -0.0412  0.3429
   22SAPC  C210 2890   5.661   5.546   9.399  0.4515  0.1605 -0.0640
   22SAPC  H10R 2891   5.559   5.539   9.442 -0.0787  2.6293 -0.7378
   22SAPC  H10S 2892   5.713   5.452   9.425  1.3697  1.1941  2.0520
   22SAPC  C211 2893   5.649   5.533   9.245  0.1797  0.3356 -0.3747
   22SAPC  H11R 2894   5.545   5.537   9.209 -1.1282 -1.1013  2.9117
   22SAPC  C212 2895   5.740   5.494   9.153 -0.1206  0.4058  0.2331
   22SAPC  H12R 2896   5.722   5.500   9.044  0.1794 -1.8361  0.0110
   22SAPC  C213 2897   5.886   5.456   9.186  0.2190  0.1896 -0.4295
   22SAPC  H13R 2898   5.873   5.358   9.235 -1.5946 -0.3659 -1.9013
   22SAPC  H13S 2899   5.938   5.528   9.253 -1.2267  0.6664  0.2300
   22SAPC  C214 2900   5.972   5.416   9.069 -0.4022 -0.5708  0.3042
   22SAPC  H14R 2901   5.974   5.308   9.048  0.2696 -0.4232 -0.4420
   22SAPC  C215 2902   6.062   5.486   8.999  0.8285  0.2710  0.5342
   22SAPC  H15R 2903   6.114   5.432   8.918 -1.0591 -2.2438  0.8462
   22SAPC  C216 2904   6.093   5.626   9.001  0.3084  0.1334 -0.2392
   22SAPC  H16R 2905   6.113   5.654   9.106  1.8162 -1.4227 -0.0581
   22SAPC  H16S 2906   6.002   5.683   8.974 -1.7909 -2.5388  0.8422
   22SAPC  C217 2907   6.215   5.670   8.911 -0.2521 -0.2543 -0.0887
   22SAPC  H17R 2908   6.172   5.675   8.808  2.0728  0.1511 -1.0845
   22SAPC  H17S 2909   6.295   5.593   8.920 -0.6892 -0.5706  1.2725
   22SAPC  C218 2910   6.277   5.797   8.948 -0.2912 -0.3510 -0.3511
   22SAPC  H18R 2911   6.211   5.857   9.014  0.5212 -0.4956  0.6111
   22SAPC  H18S 2912   6.285   5.856   8.855 -0.2066  2.0479  1.0969
   22SAPC  C219 2913   6.411   5.791   9.027 -0.5699 -0.9575  0.0727
   22SAPC  H19R 2914   6.458   5.892   9.024  0.3599 -1.2853  2.1291
   22SAPC  H19S 2915   6.487   5.734   8.970 -1.7823 -0.8342 -1.7655
   22SAPC  C220 2916   6.412   5.735   9.173  0.1697  1.0540 -0.2244
   22SAPC  H20R 2917   6.357   5.811   9.232  1.6242  0.7863  1.5845
   22SAPC  H20S 2918   6.512   5.728   9.222 -0.1800 -2.2196  0.2954
   22SAPC  H20T 2919   6.369   5.633   9.181  1.4065  0.6424  4.2318
   22SAPC   C33 2920   6.309   5.266  10.054 -0.7012 -0.4785 -0.3019
   22SAPC   H3X 2921   6.302   5.376  10.066 -0.5956 -0.7411  2.9763
   22SAPC   H3Y 2922   6.209   5.231  10.021 -1.6355  1.6229  0.1431
   22SAPC   C34 2923   6.410   5.227   9.942  0.0833  0.0323  0.1733
   22SAPC   H4X 2924   6.515   5.237   9.977  0.9667  1.5330 -2.5960
   22SAPC   H4Y 2925   6.387   5.311   9.873 -0.5527 -1.7275 -1.8584
   22SAPC   C35 2926   6.371   5.095   9.875  0.0734  0.0793 -0.5347
   22SAPC   H5X 2927   6.259   5.098   9.875  0.0172  0.1103  1.8598
   22SAPC   H5Y 2928   6.400   5.011   9.942  0.3979 -0.1034 -0.9032
   22SAPC   C36 2929   6.434   5.081   9.732  0.5175  0.3104  0.2567
   22SAPC   H6X 2930   6.542   5.107   9.721  0.5098  1.4744  2.4569
   22SAPC   H6Y 2931   6.389   5.165   9.674  1.2926  0.3217 -0.3562
   22SAPC   C37 2932   6.402   4.946   9.664  0.4798 -0.5209 -0.1875
   22SAPC   H7X 2933   6.293   4.930   9.656  0.1212  1.8077 -0.8463
   22SAPC   H7Y 2934   6.442   4.870   9.735 -0.6295  0.0390  1.0819
   22SAPC   C38 2935   6.470   4.929   9.527  0.5230 -0.0997  0.1818
   22SAPC   H8X 2936   6.577   4.946   9.553  0.1413  1.4688  0.9153
   22SAPC   H8Y 2937   6.435   5.010   9.460 -0.2071 -0.0573  0.6086
   22SAPC   C39 2938   6.431   4.800   9.464 -0.2391 -0.4841  0.6706
   22SAPC   H9X 2939   6.327   4.810   9.425 -0.1109 -0.4125  0.3372
   22SAPC   H9Y 2940   6.439   4.719   9.538  0.2639 -0.1201  1.0235
   22SAPC  C310 2941   6.529   4.766   9.347 -0.0806  0.4261  0.5445
   22SAPC  H10X 2942   6.510   4.662   9.315 -0.7734  0.2789  1.4301
   22SAPC  H10Y 2943   6.630   4.778   9.393 -0.5373  2.3638  1.1265
   22SAPC  C311 2944   6.522   4.859   9.227  0.0797 -0.9660  0.2879
   22SAPC  H11X 2945   6.534   4.963   9.265 -1.0012 -1.0481  0.8964
   22SAPC  H11Y 2946   6.422   4.862   9.178  0.1971  1.1063  0.0549
   22SAPC  C312 2947   6.626   4.821   9.123 -0.5236 -0.0972  0.8522
   22SAPC  H12X 2948   6.647   4.712   9.131  0.3451 -0.0324 -0.3125
   22SAPC  H12Y 2949   6.719   4.871   9.158 -0.3613  0.8176 -0.7981
   22SAPC  C313 2950   6.589   4.865   8.984  0.4596 -0.0924  0.0047
   22SAPC  H13X 2951   6.631   4.964   8.958 -0.7489  0.1797 -1.0374
   22SAPC  H13Y 2952   6.479   4.871   8.969  0.6282 -1.7346 -2.5167
   22SAPC  C314 2953   6.651   4.772   8.881  0.6769 -0.2253  0.3637
   22SAPC  H14X 2954   6.583   4.685   8.868 -0.8650  0.7460  1.4936
   22SAPC  H14Y 2955   6.750   4.734   8.914 -0.1058 -2.1339  0.6456
   22SAPC  C315 2956   6.654   4.820   8.738  0.3089  0.2173 -0.2810
   22SAPC  H15X 2957   6.725   4.749   8.689  2.1572  2.4856 -1.0551
   22SAPC  H15Y 2958   6.703   4.919   8.727 -0.0545  0.4103 -0.1763
   22SAPC  C316 2959   6.519   4.845   8.673 -0.3861 -0.5853 -0.0548
   22SAPC  H16X 2960   6.464   4.925   8.728  0.0849 -0.6869  0.5736
   22SAPC  H16Y 2961   6.466   4.748   8.680  3.0358 -2.5453  0.9509
   22SAPC  C317 2962   6.553   4.896   8.535 -0.3873  0.2722  0.0564
   22SAPC  H17X 2963   6.610   4.815   8.485  0.3040  2.4813 -3.1200
   22SAPC  H17Y 2964   6.620   4.985   8.532 -0.5143  0.4177  1.2697
   22SAPC  C318 2965   6.436   4.915   8.449 -0.0328 -0.7050  0.2905
   22SAPC  H18X 2966   6.386   5.010   8.479  0.1297  0.2115 -2.0966
   22SAPC  H18Y 2967   6.363   4.831   8.448  0.6752 -1.3344  0.7905
   22SAPC  H18Z 2968   6.467   4.928   8.343 -1.8597 -0.0414 -0.2021
   23SAPC     N 2969   4.517   0.774  10.930  0.3269  0.1622  0.0728
   23SAPC   C12 2970   4.520   0.811  10.782  0.0254 -0.5456 -0.0489
   23SAPC  H12A 2971   4.620   0.788  10.749 -0.5698 -4.1042  0.3054
   23SAPC  H12B 2972   4.498   0.917  10.780 -0.1936 -0.5007  2.1333
   23SAPC   C13 2973   4.386   0.795  10.986 -0.0118  0.4975 -0.4520
   23SAPC  H13A 2974   4.315   0.735  10.930  1.1341 -0.0815 -1.3076
   23SAPC  H13B 2975   4.399   0.762  11.088  2.0239 -1.4345 -1.2550
   23SAPC  H13C 2976   4.347   0.895  10.980  1.5221  1.0639 -1.6515
   23SAPC   C14 2977   4.545   0.633  10.940  0.1140  0.5445  0.5238
   23SAPC  H14A 2978   4.477   0.579  10.876  0.7621  0.3809 -0.0305
   23SAPC  H14B 2979   4.641   0.596  10.907  0.0592 -1.8784  2.7219
   23SAPC  H14C 2980   4.524   0.593  11.038 -0.6575 -0.1008  0.1090
   23SAPC   C15 2981   4.608   0.870  11.010 -0.5586  0.3229  0.3019
   23SAPC  H15A 2982   4.610   0.846  11.115 -1.2712 -0.7877  0.0811
   23SAPC  H15B 2983   4.710   0.862  10.975 -0.5907  0.9303  0.0662
   23SAPC  H15C 2984   4.579   0.973  10.996 -0.2122  0.4405  0.4580
   23SAPC   C11 2985   4.430   0.735  10.683 -0.1919  0.1187  0.1944
   23SAPC  H11A 2986   4.451   0.626  10.684 -0.0002  0.1416 -0.4976
   23SAPC  H11B 2987   4.458   0.765  10.579  0.7831  1.8166  0.9114
   23SAPC     P 2988   4.207   0.862  10.647 -0.3611  0.2438  0.2900
   23SAPC   O13 2989   4.072   0.843  10.710 -0.3910 -0.0947  0.3772
   23SAPC   O14 2990   4.275   0.997  10.663 -0.4794  0.4305  0.0344
   23SAPC   O12 2991   4.291   0.742  10.714 -0.4427 -0.0376 -0.8876
   23SAPC   O11 2992   4.204   0.825  10.493 -0.9979 -0.0651 -0.2160
   23SAPC    C1 2993   4.227   0.692  10.449  0.3231  0.1507 -0.6974
   23SAPC    HA 2994   4.335   0.683  10.421  0.4048  1.2744 -0.8196
   23SAPC    HB 2995   4.212   0.615  10.527 -0.1208  0.6488 -0.2895
   23SAPC    C2 2996   4.138   0.648  10.325  0.4899 -0.2067  0.5550
   23SAPC    HS 2997   4.139   0.538  10.311 -0.5713 -0.1957  0.3266
   23SAPC   O21 2998   4.187   0.720  10.206 -0.6194 -0.0563 -0.4282
   23SAPC   C21 2999   4.283   0.655  10.142 -0.3159  0.9522  1.0836
   23SAPC   O22 3000   4.334   0.555  10.190  0.1071 -0.2273  0.1312
   23SAPC   C22 3001   4.309   0.714  10.008  0.1910 -1.0412 -0.2611
   23SAPC   H2R 3002   4.224   0.682   9.945 -1.1799 -1.0069  1.4909
   23SAPC   H2S 3003   4.296   0.825  10.006  0.9426 -0.8852  1.3691
   23SAPC    C3 3004   3.987   0.693  10.349  0.8055  0.2391 -0.3319
   23SAPC    HX 3005   3.979   0.803  10.363 -3.6887 -0.0861  1.1973
   23SAPC    HY 3006   3.950   0.662  10.449 -2.2517 -0.5578 -1.6148
   23SAPC   O31 3007   3.907   0.645  10.235  0.1707 -0.7938  0.4430
   23SAPC   C31 3008   3.777   0.667  10.249 -0.2486  0.1174 -0.0291
   23SAPC   O32 3009   3.729   0.730  10.344  0.6434 -0.1600  0.4440
   23SAPC   C32 3010   3.705   0.611  10.126 -0.2713 -0.5328  0.0738
   23SAPC   H2X 3011   3.657   0.516  10.158 -0.3727 -0.7344 -0.6434
   23SAPC   H2Y 3012   3.780   0.584  10.048  0.5390  0.4211  0.5050
   23SAPC   C23 3013   4.432   0.660   9.933  0.1037 -0.7159 -0.3794
   23SAPC   H3R 3014   4.448   0.552   9.955  1.5099 -0.5313 -0.4269
   23SAPC   H3S 3015   4.514   0.723   9.972 -2.7170  1.7924  1.9798
   23SAPC   C24 3016   4.417   0.682   9.778  0.7209 -0.3130 -0.7628
   23SAPC   H4R 3017   4.340   0.605   9.754 -1.3509  1.0922  0.9610
   23SAPC   H4S 3018   4.503   0.632   9.729  0.4622 -0.4577 -1.0678
   23SAPC   C25 3019   4.381   0.816   9.722  0.4632  0.8045  0.5446
   23SAPC   H5R 3020   4.282   0.845   9.760 -0.1104  0.2322 -0.4757
   23SAPC   C26 3021   4.444   0.888   9.621  0.1161  0.5963  0.0613
   23SAPC   H6R 3022   4.394   0.982   9.598  2.9563  2.4799  0.9858
   23SAPC   C27 3023   4.577   0.852   9.561  0.0666 -0.3754  0.4561
   23SAPC   H7R 3024   4.638   0.807   9.642  0.2219 -1.7771 -0.4139
   23SAPC   H7S 3025   4.627   0.942   9.519  0.6092 -1.6592 -1.7954
   23SAPC   C28 3026   4.566   0.752   9.451  0.2503  0.4633  0.7390
   23SAPC   H8R 3027   4.575   0.648   9.488  0.4437  0.2481  0.1072
   23SAPC   C29 3028   4.546   0.775   9.321  0.7799  0.7447  0.5015
   23SAPC   H9R 3029   4.542   0.696   9.244  1.9867  0.1337  1.0589
   23SAPC  C210 3030   4.543   0.913   9.262  0.5075  0.0971 -0.3446
   23SAPC  H10R 3031   4.639   0.915   9.207  0.2987 -1.0417 -0.7671
   23SAPC  H10S 3032   4.550   0.999   9.332 -2.2807  0.2621 -0.1551
   23SAPC  C211 3033   4.428   0.933   9.164  0.8273 -0.0648 -0.1713
   23SAPC  H11R 3034   4.337   0.871   9.170  0.5676  0.0032 -2.4670
   23SAPC  C212 3035   4.435   1.005   9.052  0.0691  0.1058  0.0070
   23SAPC  H12R 3036   4.355   0.990   8.978  1.7082 -0.9609 -1.6517
   23SAPC  C213 3037   4.562   1.087   9.020 -0.6702 -0.1413  0.7609
   23SAPC  H13R 3038   4.642   1.029   8.968 -0.3920 -1.4559  2.5398
   23SAPC  H13S 3039   4.614   1.119   9.113  0.4857  0.5079 -0.0831
   23SAPC  C214 3040   4.523   1.213   8.945 -0.0515  0.2401 -0.6220
   23SAPC  H14R 3041   4.441   1.262   9.001  1.7984 -1.3143  3.9634
   23SAPC  C215 3042   4.556   1.253   8.825  0.5093 -0.1021 -0.3502
   23SAPC  H15R 3043   4.510   1.344   8.784  0.0392 -0.7435 -1.2954
   23SAPC  C216 3044   4.663   1.182   8.737  0.3542 -0.9960 -0.1281
   23SAPC  H16R 3045   4.693   1.088   8.786  2.8523  0.6895  1.8310
   23SAPC  H16S 3046   4.753   1.248   8.735 -1.2842  1.3921 -0.0066
   23SAPC  C217 3047   4.619   1.180   8.589  0.8005 -0.1012  0.6240
   23SAPC  H17R 3048   4.701   1.136   8.527  1.0484 -0.0028  0.8817
   23SAPC  H17S 3049   4.604   1.284   8.551  0.0422 -0.9554 -1.5843
   23SAPC  C218 3050   4.489   1.107   8.559 -0.4545 -0.4411 -0.5292
   23SAPC  H18R 3051   4.464   1.119   8.452 -1.0182  1.2853 -0.2280
   23SAPC  H18S 3052   4.407   1.138   8.627  0.0166  1.1500 -0.6548
   23SAPC  C219 3053   4.498   0.949   8.573  0.2995 -0.3014 -0.3186
   23SAPC  H19R 3054   4.595   0.900   8.548  0.2500 -1.5111  1.6277
   23SAPC  H19S 3055   4.423   0.897   8.510 -1.1688 -0.3369  1.3611
   23SAPC  C220 3056   4.464   0.894   8.715  0.2896  0.3487 -0.1656
   23SAPC  H20R 3057   4.356   0.907   8.734 -0.0394  0.9019 -2.1742
   23SAPC  H20S 3058   4.535   0.936   8.790  0.8192 -2.2636  0.9061
   23SAPC  H20T 3059   4.481   0.785   8.729  0.0462  0.1568 -1.2728
   23SAPC   C33 3060   3.616   0.727  10.075  0.0114 -0.5311  0.3344
   23SAPC   H3X 3061   3.674   0.819  10.055  0.4845 -0.6670  1.0438
   23SAPC   H3Y 3062   3.541   0.755  10.151 -0.3143 -0.0091 -0.1736
   23SAPC   C34 3063   3.538   0.702   9.944 -0.4266  0.4342 -0.0289
   23SAPC   H4X 3064   3.472   0.789   9.922 -1.6516 -0.0741  1.4711
   23SAPC   H4Y 3065   3.463   0.621   9.948  1.2494 -1.2589 -1.0331
   23SAPC   C35 3066   3.628   0.674   9.825 -0.2522  0.5403  1.0377
   23SAPC   H5X 3067   3.653   0.566   9.835  0.8064  0.3185 -2.5507
   23SAPC   H5Y 3068   3.718   0.739   9.828 -1.2354  1.9469  1.0634
   23SAPC   C36 3069   3.562   0.697   9.686 -0.0960  0.7080 -1.1256
   23SAPC   H6X 3070   3.543   0.805   9.665 -1.5092  1.0879  1.6655
   23SAPC   H6Y 3071   3.466   0.643   9.686  1.5229 -2.5566  1.5857
   23SAPC   C37 3072   3.641   0.633   9.565 -0.6255 -0.2034  0.6621
   23SAPC   H7X 3073   3.747   0.645   9.596 -0.1098 -1.6400 -0.4117
   23SAPC   H7Y 3074   3.623   0.691   9.472  1.1999 -0.1428  0.2980
   23SAPC   C38 3075   3.615   0.484   9.558  0.4156 -0.6955  0.6628
   23SAPC   H8X 3076   3.509   0.463   9.530  0.8770 -1.1621 -0.8427
   23SAPC   H8Y 3077   3.637   0.446   9.660  2.7508  1.8599  1.2332
   23SAPC   C39 3078   3.699   0.399   9.469  0.2097 -0.3600 -0.5810
   23SAPC   H9X 3079   3.658   0.297   9.483  0.6410 -0.1421  3.0429
   23SAPC   H9Y 3080   3.799   0.379   9.512 -1.7095  0.9488  5.4172
   23SAPC  C310 3081   3.707   0.453   9.330 -0.2393  0.0520  0.7935
   23SAPC  H10X 3082   3.769   0.545   9.331 -0.2649  0.0704  1.9598
   23SAPC  H10Y 3083   3.606   0.476   9.289  0.7117  0.5458 -1.3998
   23SAPC  C311 3084   3.774   0.358   9.223  0.7310  0.3683 -0.2970
   23SAPC  H11X 3085   3.696   0.279   9.211  0.8572  0.3261 -0.8272
   23SAPC  H11Y 3086   3.866   0.316   9.270  1.9088  1.5972 -1.4196
   23SAPC  C312 3087   3.795   0.415   9.083 -0.1661 -0.6518  0.1278
   23SAPC  H12X 3088   3.873   0.494   9.086  1.0906 -1.8743  1.3122
   23SAPC  H12Y 3089   3.710   0.454   9.023 -0.3943  1.0744  1.5123
   23SAPC  C313 3090   3.864   0.310   8.989 -0.4726 -0.5126  0.8538
   23SAPC  H13X 3091   3.948   0.261   9.042 -0.9726 -1.2457  0.9789
   23SAPC  H13Y 3092   3.915   0.362   8.905 -1.1994 -1.7375 -0.3998
   23SAPC  C314 3093   3.760   0.211   8.928 -0.0001 -0.3930 -0.8800
   23SAPC  H14X 3094   3.681   0.271   8.878  1.1258  1.0808 -0.9477
   23SAPC  H14Y 3095   3.706   0.155   9.007 -0.8122  2.1265  0.4487
   23SAPC  C315 3096   3.819   0.132   8.810 -0.8832 -0.5187 -0.6004
   23SAPC  H15X 3097   3.736   0.071   8.770 -2.5875  1.0021  0.4813
   23SAPC  H15Y 3098   3.891   0.059   8.852 -0.6609  0.2322  0.3729
   23SAPC  C316 3099   3.886   0.216   8.705  0.6400  0.0401  0.1365
   23SAPC  H16X 3100   3.991   0.237   8.733  0.3517 -0.4949  1.7820
   23SAPC  H16Y 3101   3.822   0.307   8.703 -3.0112 -2.2966 -1.2639
   23SAPC  C317 3102   3.881   0.147   8.570  0.2899 -0.2044  0.2290
   23SAPC  H17X 3103   3.779   0.120   8.537 -1.0328  3.0728  1.2896
   23SAPC  H17Y 3104   3.936   0.050   8.571 -1.6930 -1.4023 -0.6280
   23SAPC  C318 3105   3.937   0.251   8.464  0.4070 -0.1357 -0.0482
   23SAPC  H18X 3106   3.881   0.346   8.472 -0.4405 -0.5441 -0.8947
   23SAPC  H18Y 3107   3.913   0.205   8.366 -1.9239 -0.1926  0.4936
   23SAPC  H18Z 3108   4.046   0.273   8.469  0.5103 -0.6019 -0.1442
   24SAPC     N 3109   0.977   6.550  11.246 -0.3334  0.4497 -0.2761
   24SAPC   C12 3110   0.982   6.648  11.127 -0.4885  0.2349  0.2406
   24SAPC  H12A 3111   1.032   6.738  11.161  1.5147 -0.4050 -0.8302
   24SAPC  H12B 3112   0.880   6.678  11.109 -0.5614 -0.0335  0.2110
   24SAPC   C13 3113   1.108   6.564  11.318  0.6827  0.0297  0.8771
   24SAPC  H13A 3114   1.189   6.535  11.253 -0.7814  1.8541 -1.9534
   24SAPC  H13B 3115   1.115   6.666  11.353 -1.8435 -0.3022  2.6245
   24SAPC  H13C 3116   1.102   6.503  11.408 -0.7624 -0.9561  0.1556
   24SAPC   C14 3117   0.864   6.589  11.333 -0.3671 -0.1661  0.2060
   24SAPC  H14A 3118   0.766   6.586  11.289 -0.1677  3.4726 -0.8324
   24SAPC  H14B 3119   0.860   6.521  11.417  1.5872  0.9062  1.2524
   24SAPC  H14C 3120   0.876   6.687  11.379  1.9062 -0.2753 -0.0339
   24SAPC   C15 3121   0.957   6.403  11.200  0.2636 -0.6387  0.5462
   24SAPC  H15A 3122   1.038   6.375  11.134 -1.8479 -1.0081 -2.0784
   24SAPC  H15B 3123   0.936   6.341  11.286 -0.4744 -0.8447  0.2304
   24SAPC  H15C 3124   0.866   6.404  11.141  1.2927 -0.9941 -1.1048
   24SAPC   C11 3125   1.058   6.607  10.998  0.1379 -0.0447 -0.6362
   24SAPC  H11A 3126   1.037   6.680  10.916 -0.6879 -2.6004 -2.8693
   24SAPC  H11B 3127   0.991   6.526  10.963 -2.0559  0.2207  2.5615
   24SAPC     P 3128   1.253   6.443  10.954  0.8128  0.2967 -0.4138
   24SAPC   O13 3129   1.398   6.450  10.976  0.0313  0.2186 -0.5490
   24SAPC   O14 3130   1.183   6.327  11.011 -0.3403 -0.3518 -0.1569
   24SAPC   O12 3131   1.195   6.572  11.024  0.2873  0.7057  0.4342
   24SAPC   O11 3132   1.212   6.471  10.803  0.8617 -0.2351  0.2761
   24SAPC    C1 3133   1.258   6.593  10.745  0.1074 -1.3355  0.3417
   24SAPC    HA 3134   1.173   6.661  10.724  2.3127  1.6233  0.3305
   24SAPC    HB 3135   1.322   6.656  10.811 -1.2568  1.6806 -1.0346
   24SAPC    C2 3136   1.349   6.576  10.611  0.3189  0.8103 -0.0854
   24SAPC    HS 3137   1.375   6.679  10.579  1.3736  0.7506  0.5150
   24SAPC   O21 3138   1.275   6.492  10.521 -0.0123  0.7603  0.5952
   24SAPC   C21 3139   1.182   6.566  10.449 -0.0764 -0.3745  0.8142
   24SAPC   O22 3140   1.163   6.684  10.477  0.2616  0.6486 -0.0257
   24SAPC   C22 3141   1.120   6.481  10.346 -0.4271  0.3102 -0.4955
   24SAPC   H2R 3142   1.191   6.451  10.267 -0.6065 -0.1477 -0.4836
   24SAPC   H2S 3143   1.070   6.390  10.386 -2.5099  1.5362 -0.1514
   24SAPC    C3 3144   1.482   6.510  10.648  0.4198  0.5729 -0.5824
   24SAPC    HX 3145   1.460   6.416  10.703  1.4443  0.7794  0.2144
   24SAPC    HY 3146   1.529   6.573  10.726  2.0568 -1.5446  0.2684
   24SAPC   O31 3147   1.551   6.482  10.521 -0.0044 -0.2665 -0.4357
   24SAPC   C31 3148   1.651   6.565  10.505  0.5776 -0.4249 -0.0143
   24SAPC   O32 3149   1.679   6.664  10.576  0.0550  0.3524  0.4238
   24SAPC   C32 3150   1.741   6.528  10.379 -0.0492 -0.1408  0.4134
   24SAPC   H2X 3151   1.820   6.474  10.436  0.8822  1.0642  0.2969
   24SAPC   H2Y 3152   1.788   6.620  10.339 -0.6355  0.5623  1.2969
   24SAPC   C23 3153   1.010   6.545  10.267  0.4587 -0.2824 -0.3012
   24SAPC   H3R 3154   1.033   6.654  10.267  1.0769 -0.4051 -0.9733
   24SAPC   H3S 3155   0.923   6.524  10.333  1.4578 -1.1674  0.7651
   24SAPC   C24 3156   0.986   6.507  10.120  0.0017  0.2822 -0.4300
   24SAPC   H4R 3157   1.076   6.522  10.057  0.4833  2.5630  0.6667
   24SAPC   H4S 3158   0.908   6.577  10.082 -1.3796 -1.1173 -0.2383
   24SAPC   C25 3159   0.926   6.368  10.101 -0.0103  0.2534  0.6084
   24SAPC   H5R 3160   0.907   6.306  10.190  0.3047  0.5426  0.8819
   24SAPC   C26 3161   0.876   6.314   9.986 -0.5681 -0.3339  0.0155
   24SAPC   H6R 3162   0.820   6.220   9.988 -2.1855  0.5917 -0.0165
   24SAPC   C27 3163   0.877   6.391   9.853 -0.2780 -0.1173 -0.5870
   24SAPC   H7R 3164   0.895   6.501   9.859  2.0472 -0.3695 -1.8078
   24SAPC   H7S 3165   0.779   6.383   9.801 -0.8256  3.3518 -0.3587
   24SAPC   C28 3166   0.983   6.333   9.769  0.5681  0.0853  0.0885
   24SAPC   H8R 3167   1.086   6.339   9.807 -0.5500  2.0240  3.1953
   24SAPC   C29 3168   0.964   6.283   9.644 -0.0460 -0.0780  0.0306
   24SAPC   H9R 3169   1.060   6.260   9.595  1.6150  4.1066  0.8766
   24SAPC  C210 3170   0.832   6.267   9.574  0.2684 -0.5888  0.7215
   24SAPC  H10R 3171   0.774   6.361   9.587 -1.1523 -1.3603  0.1744
   24SAPC  H10S 3172   0.773   6.188   9.625  1.0390 -1.0977  0.8434
   24SAPC  C211 3173   0.841   6.230   9.429 -0.0135  0.2370 -0.0560
   24SAPC  H11R 3174   0.788   6.300   9.363 -2.6779 -0.3088  1.4029
   24SAPC  C212 3175   0.903   6.120   9.375  0.3834 -0.4506  0.4429
   24SAPC  H12R 3176   0.924   6.119   9.267 -1.4787 -0.2875  0.0440
   24SAPC  C213 3177   0.983   6.021   9.451  0.0654 -0.8345 -0.2881
   24SAPC  H13R 3178   0.924   5.994   9.542  1.0650  0.0991  0.6647
   24SAPC  H13S 3179   1.070   6.068   9.502 -0.0699 -2.3183  1.4006
   24SAPC  C214 3180   1.012   5.898   9.370  0.4691 -0.3417 -0.0545
   24SAPC  H14R 3181   0.955   5.806   9.392 -1.5231  0.6756 -0.6840
   24SAPC  C215 3182   1.104   5.890   9.270 -0.3759  0.4944  0.2265
   24SAPC  H15R 3183   1.122   5.799   9.211  1.8792  1.2711 -0.3691
   24SAPC  C216 3184   1.203   5.996   9.230 -0.7839 -0.5182 -0.4530
   24SAPC  H16R 3185   1.312   5.974   9.229 -0.4264  1.0582 -2.5395
   24SAPC  H16S 3186   1.205   6.077   9.307 -0.5127 -2.2620  1.4664
   24SAPC  C217 3187   1.173   6.065   9.094 -0.6565  0.1622 -0.2587
   24SAPC  H17R 3188   1.232   6.159   9.085  0.9252 -0.6225  1.3350
   24SAPC  H17S 3189   1.066   6.096   9.095 -0.1996  1.8538  1.1615
   24SAPC  C218 3190   1.212   5.984   8.971 -0.2540  0.4509 -0.3901
   24SAPC  H18R 3191   1.143   5.896   8.969 -0.1567  0.3565  0.2559
   24SAPC  H18S 3192   1.318   5.952   8.979 -0.0570  1.4277  1.2038
   24SAPC  C219 3193   1.183   6.065   8.846 -0.7413  0.4650 -0.1440
   24SAPC  H19R 3194   1.224   6.011   8.758 -0.2003  1.6675 -0.6551
   24SAPC  H19S 3195   1.240   6.160   8.853 -1.3870  0.7502  2.1800
   24SAPC  C220 3196   1.043   6.108   8.820  0.6764  0.0114  0.3031
   24SAPC  H20R 3197   0.997   6.164   8.905 -0.5757 -1.0366  0.3370
   24SAPC  H20S 3198   0.983   6.020   8.790  0.1098  1.1761 -2.2482
   24SAPC  H20T 3199   1.047   6.181   8.736 -1.5233  0.2535  0.3438
   24SAPC   C33 3200   1.683   6.430  10.271 -0.0190 -0.4606  0.2112
   24SAPC   H3X 3201   1.595   6.476  10.221  2.5070  1.4879 -2.8183
   24SAPC   H3Y 3202   1.646   6.333  10.312 -3.3003  0.9884  1.0336
   24SAPC   C34 3203   1.774   6.413  10.151  0.0584 -0.4132  0.6496
   24SAPC   H4X 3204   1.743   6.323  10.094  2.2912 -1.5816  1.1581
   24SAPC   H4Y 3205   1.875   6.397  10.196  0.7145 -0.8048 -0.8954
   24SAPC   C35 3206   1.773   6.545  10.066  0.1767 -0.8135  0.6484
   24SAPC   H5X 3207   1.814   6.636  10.114 -2.2112  0.3245  0.6669
   24SAPC   H5Y 3208   1.672   6.574  10.028  0.3697 -0.1493  0.6317
   24SAPC   C36 3209   1.858   6.516   9.936 -0.1066 -1.0058 -0.4800
   24SAPC   H6X 3210   1.795   6.429   9.905 -3.1331  1.2359 -1.0602
   24SAPC   H6Y 3211   1.961   6.477   9.951  0.4528  1.2764  2.4544
   24SAPC   C37 3212   1.864   6.646   9.856  0.5976 -0.0335 -0.0858
   24SAPC   H7X 3213   1.957   6.701   9.881  0.0004  0.9375  0.0526
   24SAPC   H7Y 3214   1.770   6.703   9.868  0.5936  0.3133 -1.5245
   24SAPC   C38 3215   1.875   6.631   9.705  0.0402  0.7547  0.1840
   24SAPC   H8X 3216   1.864   6.726   9.649  2.8414 -1.0684 -3.9970
   24SAPC   H8Y 3217   1.804   6.554   9.668  1.5472  0.0580 -1.4014
   24SAPC   C39 3218   2.026   6.599   9.662 -0.9477 -0.7509 -0.0927
   24SAPC   H9X 3219   2.043   6.496   9.700 -1.5954 -1.1898 -0.9511
   24SAPC   H9Y 3220   2.100   6.671   9.702 -1.2751 -0.2774 -0.3168
   24SAPC  C310 3221   2.040   6.607   9.503 -0.5283  0.2978 -0.5071
   24SAPC  H10X 3222   2.025   6.714   9.477 -0.8093  0.3289 -0.2228
   24SAPC  H10Y 3223   1.967   6.536   9.460 -1.3111  0.5062  0.4181
   24SAPC  C311 3224   2.180   6.553   9.458  0.1868 -0.1951 -1.0510
   24SAPC  H11X 3225   2.184   6.446   9.488 -0.0751 -0.0902 -0.6286
   24SAPC  H11Y 3226   2.257   6.610   9.514 -0.9571 -0.2795  0.6818
   24SAPC  C312 3227   2.198   6.579   9.310 -0.3177  0.8258  0.3947
   24SAPC  H12X 3228   2.308   6.577   9.297 -0.3390 -1.3683  0.0886
   24SAPC  H12Y 3229   2.148   6.673   9.281 -2.1335 -0.2280 -0.0755
   24SAPC  C313 3230   2.131   6.477   9.209 -0.6629 -0.1542  0.1953
   24SAPC  H13X 3231   2.023   6.464   9.232 -0.2771 -0.2605  2.1126
   24SAPC  H13Y 3232   2.183   6.379   9.218  0.7653  0.5927  0.4125
   24SAPC  C314 3233   2.139   6.532   9.062 -0.4474 -0.1475 -0.2624
   24SAPC  H14X 3234   2.247   6.554   9.045  0.1070 -0.6553  2.2088
   24SAPC  H14Y 3235   2.072   6.619   9.046  1.2220  0.8216 -2.5715
   24SAPC  C315 3236   2.101   6.430   8.963  0.0986  0.4686  0.6184
   24SAPC  H15X 3237   1.991   6.415   8.978  0.5842 -2.4868  2.0908
   24SAPC  H15Y 3238   2.141   6.328   8.984 -1.4837 -0.6717 -1.4870
   24SAPC  C316 3239   2.131   6.473   8.822 -1.0113 -0.1718 -0.6848
   24SAPC  H16X 3240   2.111   6.582   8.807  1.4764  0.9021  2.4966
   24SAPC  H16Y 3241   2.063   6.422   8.751  0.0617 -0.2220 -1.7047
   24SAPC  C317 3242   2.272   6.454   8.765  0.0880  0.4580 -0.2869
   24SAPC  H17X 3243   2.343   6.503   8.834 -0.5871  0.0439  0.7133
   24SAPC  H17Y 3244   2.283   6.510   8.669 -0.6788  0.4942 -0.3615
   24SAPC  C318 3245   2.309   6.302   8.741 -0.3252 -0.1815  0.0663
   24SAPC  H18X 3246   2.309   6.252   8.840 -0.1102  2.1283  1.3148
   24SAPC  H18Y 3247   2.409   6.284   8.695 -0.8209  1.1798 -1.6724
   24SAPC  H18Z 3248   2.234   6.256   8.674  1.7802 -2.0802 -1.1200
   25SAPC     N 3249   0.281   4.208   6.320  0.0315 -0.0965  0.1456
   25SAPC   C12 3250   0.194   4.292   6.411 -0.4079  0.2196 -0.0186
   25SAPC  H12A 3251   0.163   4.239   6.500  2.9547 -2.4313 -0.1956
   25SAPC  H12B 3252   0.109   4.320   6.351  0.2588  0.3313 -0.9373
   25SAPC   C13 3253   0.407   4.173   6.392  0.7819 -0.1185 -0.3055
   25SAPC  H13A 3254   0.395   4.104   6.474 -0.4677  0.8743  0.3741
   25SAPC  H13B 3255   0.481   4.133   6.323  1.5763  0.2887  0.2845
   25SAPC  H13C 3256   0.452   4.258   6.442 -1.7239  0.1188  1.7432
   25SAPC   C14 3257   0.213   4.079   6.287  0.7830  0.0845  0.2624
   25SAPC  H14A 3258   0.161   4.040   6.373  0.4354  0.2642  0.1377
   25SAPC  H14B 3259   0.140   4.093   6.209  2.3459 -1.2531 -1.5490
   25SAPC  H14C 3260   0.279   4.006   6.241 -0.2179 -0.3344 -0.5683
   25SAPC   C15 3261   0.323   4.286   6.199 -0.5305 -0.7274 -0.2743
   25SAPC  H15A 3262   0.243   4.296   6.126 -0.5840  0.9524 -0.0162
   25SAPC  H15B 3263   0.353   4.386   6.225 -0.3365 -0.9157  0.2393
   25SAPC  H15C 3264   0.401   4.241   6.139  1.5210  2.1300  0.0559
   25SAPC   C11 3265   0.248   4.420   6.463  0.2528 -0.3618 -0.0614
   25SAPC  H11A 3266   0.340   4.410   6.525 -0.6249  1.6017  1.7079
   25SAPC  H11B 3267   0.172   4.456   6.537 -0.3242 -0.9852 -0.3422
   25SAPC     P 3268   0.139   4.579   6.287  0.0932  0.1235  0.5330
   25SAPC   O13 3269   0.163   4.682   6.185  0.0507  0.5851  0.5115
   25SAPC   O14 3270   0.040   4.470   6.255  0.1643  0.7628  0.6306
   25SAPC   O12 3271   0.270   4.522   6.363 -0.4147  0.4445 -0.2064
   25SAPC   O11 3272   0.085   4.662   6.406  0.2784 -0.5577 -0.0587
   25SAPC    C1 3273   0.166   4.769   6.455  0.0740 -0.5253 -0.6108
   25SAPC    HA 3274   0.275   4.757   6.437  0.4696  0.5197  0.9544
   25SAPC    HB 3275   0.148   4.864   6.400 -0.8661 -0.0028  0.5621
   25SAPC    C2 3276   0.157   4.783   6.618  0.0750 -0.4155 -0.3874
   25SAPC    HS 3277   0.205   4.880   6.644 -0.6061  0.2530 -1.5336
   25SAPC   O21 3278   0.217   4.668   6.678  0.2205 -0.3605  0.1821
   25SAPC   C21 3279   0.344   4.664   6.693  0.2707 -0.4802  0.0637
   25SAPC   O22 3280   0.424   4.740   6.648 -0.0479 -0.1956  0.2950
   25SAPC   C22 3281   0.396   4.563   6.792  1.0097 -1.1214 -0.3236
   25SAPC   H2R 3282   0.484   4.509   6.750  0.9019 -0.1956 -1.8082
   25SAPC   H2S 3283   0.420   4.627   6.879  2.0693  2.9721 -3.3296
   25SAPC    C3 3284  -0.001   4.805   6.659 -0.4423  0.5981  0.3570
   25SAPC    HX 3285  -0.046   4.704   6.653  2.8520 -1.0066 -0.0604
   25SAPC    HY 3286  -0.039   4.875   6.582 -0.6357 -0.4299 -0.4996
   25SAPC   O31 3287  -0.013   4.869   6.784  0.7868 -0.0079  0.0475
   25SAPC   C31 3288  -0.131   4.887   6.816  0.5479 -0.0703 -0.1853
   25SAPC   O32 3289  -0.236   4.844   6.763 -1.1225  0.0927 -0.3530
   25SAPC   C32 3290  -0.119   4.964   6.952 -0.2430  0.0037 -0.2515
   25SAPC   H2X 3291  -0.222   4.984   6.988 -0.5342 -1.6817 -0.0651
   25SAPC   H2Y 3292  -0.078   5.060   6.915 -0.5470  0.0990 -0.3417
   25SAPC   C23 3293   0.297   4.449   6.826 -0.9089  0.0273  0.1625
   25SAPC   H3R 3294   0.326   4.368   6.756  0.3463  0.4502  0.1711
   25SAPC   H3S 3295   0.192   4.483   6.811 -0.1341  1.7420 -1.8031
   25SAPC   C24 3296   0.328   4.409   6.967  0.5579  0.2519  0.0044
   25SAPC   H4R 3297   0.428   4.362   6.965 -1.0376 -3.4785 -1.1749
   25SAPC   H4S 3298   0.266   4.318   6.981 -2.7235  2.3016 -0.2331
   25SAPC   C25 3299   0.285   4.508   7.074  0.2230 -0.0569 -0.7316
   25SAPC   H5R 3300   0.235   4.599   7.040 -1.4479  0.0736  1.8143
   25SAPC   C26 3301   0.311   4.497   7.202  0.5984 -0.7378 -0.9864
   25SAPC   H6R 3302   0.277   4.581   7.265  1.3775 -0.4975 -0.8840
   25SAPC   C27 3303   0.385   4.382   7.268  0.4058  0.2625 -0.3334
   25SAPC   H7R 3304   0.461   4.430   7.333  1.0317  2.5940 -2.6042
   25SAPC   H7S 3305   0.449   4.323   7.198 -0.5275 -1.0271 -0.1301
   25SAPC   C28 3306   0.280   4.287   7.332  0.1705 -0.2305 -0.5099
   25SAPC   H8R 3307   0.250   4.207   7.262  1.8920 -0.4584 -1.0238
   25SAPC   C29 3308   0.233   4.285   7.451 -0.3538 -0.2791 -0.3908
   25SAPC   H9R 3309   0.155   4.211   7.471 -2.0474  1.4612 -0.2524
   25SAPC  C210 3310   0.263   4.392   7.563  0.2173 -0.2159  0.4123
   25SAPC  H10R 3311   0.168   4.393   7.621 -0.8553 -0.4430 -1.2648
   25SAPC  H10S 3312   0.273   4.488   7.508 -0.3046 -1.5642 -2.1622
   25SAPC  C211 3313   0.381   4.372   7.655  0.4886 -0.0974  0.4098
   25SAPC  H11R 3314   0.477   4.365   7.603 -0.3081 -0.4376 -1.0603
   25SAPC  C212 3315   0.383   4.376   7.790  0.0534 -0.1009 -0.9190
   25SAPC  H12R 3316   0.469   4.336   7.845 -1.3708 -0.1610  1.4244
   25SAPC  C213 3317   0.263   4.410   7.879  0.6410  0.1556  0.1488
   25SAPC  H13R 3318   0.204   4.486   7.823 -1.0412 -0.6901  0.7153
   25SAPC  H13S 3319   0.283   4.453   7.979 -2.9188 -0.8226  1.4539
   25SAPC  C214 3320   0.172   4.287   7.896  0.4006 -0.4541  0.2399
   25SAPC  H14R 3321   0.084   4.285   7.831  0.5949 -0.1278 -0.0353
   25SAPC  C215 3322   0.179   4.195   8.001  0.2080 -0.0566 -0.0205
   25SAPC  H15R 3323   0.118   4.104   8.003 -0.9247  0.5289 -2.8725
   25SAPC  C216 3324   0.293   4.202   8.096  0.8125 -0.2418  0.7411
   25SAPC  H16R 3325   0.382   4.247   8.047 -0.6589 -0.8281 -2.8476
   25SAPC  H16S 3326   0.319   4.096   8.117  0.4647 -0.5109 -0.1104
   25SAPC  C217 3327   0.251   4.254   8.233  0.8598  0.5192  0.5516
   25SAPC  H17R 3328   0.175   4.187   8.279  0.1881  0.8393 -0.0755
   25SAPC  H17S 3329   0.192   4.347   8.219 -2.8491 -2.0120 -3.1195
   25SAPC  C218 3330   0.370   4.285   8.324  0.9309 -0.4185  0.7269
   25SAPC  H18R 3331   0.426   4.370   8.280  2.1047 -1.6924 -0.3500
   25SAPC  H18S 3332   0.441   4.200   8.315  2.0598  0.3453  2.0568
   25SAPC  C219 3333   0.317   4.314   8.467  0.2445 -0.5566  0.4323
   25SAPC  H19R 3334   0.405   4.351   8.524 -0.2939  1.7193 -0.1067
   25SAPC  H19S 3335   0.286   4.224   8.523  0.3536  0.7194  2.6501
   25SAPC  C220 3336   0.212   4.425   8.471  0.3853 -0.1014  0.2022
   25SAPC  H20R 3337   0.107   4.399   8.447 -0.2016  0.8718  1.6247
   25SAPC  H20S 3338   0.250   4.515   8.419  1.3631  0.3800  1.6832
   25SAPC  H20T 3339   0.211   4.454   8.579 -0.7967 -2.4504  0.8937
   25SAPC   C33 3340  -0.040   4.891   7.065  0.3274 -0.2885  0.1018
   25SAPC   H3X 3341  -0.001   4.970   7.133 -0.3363  1.3666 -1.3536
   25SAPC   H3Y 3342   0.046   4.835   7.022 -0.3168 -1.5240  0.3816
   25SAPC   C34 3343  -0.124   4.797   7.152  0.0353 -0.3639 -0.4403
   25SAPC   H4X 3344  -0.172   4.728   7.081  0.4858 -2.4346  1.1608
   25SAPC   H4Y 3345  -0.205   4.863   7.190 -0.6314 -2.3339  1.7456
   25SAPC   C35 3346  -0.051   4.741   7.271 -0.5239 -0.7990 -0.0325
   25SAPC   H5X 3347   0.016   4.655   7.247  1.0825  0.0972  1.0160
   25SAPC   H5Y 3348  -0.122   4.719   7.353  0.9930  0.7660  1.7979
   25SAPC   C36 3349   0.042   4.837   7.340  0.2406 -0.3053 -0.5340
   25SAPC   H6X 3350  -0.014   4.933   7.349 -3.0257 -2.2031  1.2552
   25SAPC   H6Y 3351   0.130   4.855   7.274  0.5167  1.9294  0.3456
   25SAPC   C37 3352   0.100   4.786   7.473  0.6239 -0.0803  0.1364
   25SAPC   H7X 3353   0.140   4.683   7.465  0.3352 -0.0812 -1.9640
   25SAPC   H7Y 3354   0.014   4.779   7.543  1.3063  1.1412  1.1304
   25SAPC   C38 3355   0.200   4.888   7.529  0.2909  0.1216  0.2264
   25SAPC   H8X 3356   0.158   4.989   7.508  1.6139  0.5269 -0.5712
   25SAPC   H8Y 3357   0.291   4.875   7.466  0.6604 -1.7449  1.0754
   25SAPC   C39 3358   0.231   4.871   7.679 -0.3855 -0.5430  0.2986
   25SAPC   H9X 3359   0.321   4.934   7.699 -0.4688 -0.9956  2.3551
   25SAPC   H9Y 3360   0.258   4.766   7.702 -0.3860 -0.2478  1.7662
   25SAPC  C310 3361   0.132   4.937   7.771  1.0866  0.4822  0.0999
   25SAPC  H10X 3362   0.039   4.878   7.777 -0.2829  2.5619  0.7449
   25SAPC  H10Y 3363   0.113   5.035   7.722  0.9407  0.8856  0.9293
   25SAPC  C311 3364   0.186   4.942   7.914 -0.7769 -0.4240 -0.0034
   25SAPC  H11X 3365   0.106   4.977   7.983 -1.0657  2.9288 -1.8024
   25SAPC  H11Y 3366   0.273   5.011   7.906  1.7837 -3.2398  1.4917
   25SAPC  C312 3367   0.253   4.807   7.955 -0.0932  0.2631  0.2928
   25SAPC  H12X 3368   0.326   4.768   7.881 -0.0714 -1.1490  1.0160
   25SAPC  H12Y 3369   0.180   4.724   7.968  1.5062 -1.4536 -1.0840
   25SAPC  C313 3370   0.317   4.822   8.092  0.0392 -0.3908 -0.7419
   25SAPC  H13X 3371   0.244   4.834   8.175 -0.5108 -1.3382 -1.0693
   25SAPC  H13Y 3372   0.377   4.915   8.097  0.5965 -0.8298  2.0921
   25SAPC  C314 3373   0.416   4.708   8.129  0.0583 -0.2313  0.1608
   25SAPC  H14X 3374   0.467   4.696   8.031 -0.2357  3.4935 -0.5723
   25SAPC  H14Y 3375   0.353   4.619   8.150 -0.3390  0.1574  0.6584
   25SAPC  C315 3376   0.514   4.746   8.239 -0.2103 -0.1056  0.7352
   25SAPC  H15X 3377   0.563   4.844   8.219  0.4348 -0.2165  1.6973
   25SAPC  H15Y 3378   0.586   4.662   8.237 -1.4925 -1.2423  1.0208
   25SAPC  C316 3379   0.440   4.755   8.375 -0.1267 -1.0481 -0.1191
   25SAPC  H16X 3380   0.417   4.657   8.422  0.6608 -1.4894 -0.6338
   25SAPC  H16Y 3381   0.342   4.802   8.355  1.0602  1.4381 -0.4000
   25SAPC  C317 3382   0.530   4.831   8.481 -0.2836  0.0853  0.6427
   25SAPC  H17X 3383   0.467   4.885   8.555 -3.7884  0.0900 -2.1025
   25SAPC  H17Y 3384   0.585   4.919   8.441 -0.9318  0.8236  1.3482
   25SAPC  C318 3385   0.643   4.742   8.534  0.7286  0.0932  0.0216
   25SAPC  H18X 3386   0.719   4.720   8.456  0.6561 -0.7079  0.1627
   25SAPC  H18Y 3387   0.618   4.645   8.582 -1.3115  1.2290  1.3559
   25SAPC  H18Z 3388   0.696   4.798   8.614  0.2273  0.0849  0.3638
   26SAPC     N 3389   1.600   0.797   6.088  0.4909  0.3900  0.1617
   26SAPC   C12 3390   1.550   0.771   6.222  0.4175  0.0401  0.3842
   26SAPC  H12A 3391   1.448   0.737   6.224  0.0833  0.6524 -2.5849
   26SAPC  H12B 3392   1.559   0.864   6.277  0.2217  1.2185 -1.4997
   26SAPC   C13 3393   1.568   0.683   6.001 -0.5896 -0.2967 -0.0312
   26SAPC  H13A 3394   1.622   0.689   5.907 -0.4501 -0.4357  0.0389
   26SAPC  H13B 3395   1.598   0.592   6.050 -1.1861 -1.3879 -1.6023
   26SAPC  H13C 3396   1.464   0.665   5.978 -0.1683  0.7140 -3.2402
   26SAPC   C14 3397   1.531   0.919   6.021  0.1106  0.0555 -0.2102
   26SAPC  H14A 3398   1.425   0.910   6.043  0.4674 -2.2752  0.7684
   26SAPC  H14B 3399   1.575   1.007   6.065  1.6296 -1.0467  0.5416
   26SAPC  H14C 3400   1.539   0.909   5.913  0.4110 -1.0981 -0.0833
   26SAPC   C15 3401   1.749   0.817   6.080 -0.2085 -0.1308 -0.2478
   26SAPC  H15A 3402   1.785   0.891   6.150 -1.9779  1.0238 -0.5041
   26SAPC  H15B 3403   1.799   0.724   6.102  1.3392  1.1431  2.1312
   26SAPC  H15C 3404   1.789   0.837   5.982  0.9421  0.6967  0.3575
   26SAPC   C11 3405   1.625   0.667   6.309  1.2054 -0.3706  0.3085
   26SAPC  H11A 3406   1.567   0.664   6.404  0.5493  1.6824  0.0183
   26SAPC  H11B 3407   1.725   0.709   6.331  1.2208 -0.1289 -0.2132
   26SAPC     P 3408   1.510   0.432   6.276 -0.0476  0.0715 -0.5110
   26SAPC   O13 3409   1.373   0.482   6.241  0.2395 -0.0573  0.5350
   26SAPC   O14 3410   1.544   0.296   6.227  0.1214  0.6837 -0.7516
   26SAPC   O12 3411   1.618   0.537   6.242  0.3783 -0.5825 -0.7454
   26SAPC   O11 3412   1.518   0.432   6.435 -0.0828 -0.2942 -0.7330
   26SAPC    C1 3413   1.637   0.381   6.507 -0.0191  0.0547 -0.1638
   26SAPC    HA 3414   1.635   0.270   6.501 -3.6384  0.0599 -1.7006
   26SAPC    HB 3415   1.735   0.405   6.460  0.4593 -1.1629  0.1710
   26SAPC    C2 3416   1.654   0.434   6.652  0.1857  0.6214  0.0265
   26SAPC    HS 3417   1.549   0.444   6.687  0.3761 -1.5641  1.4609
   26SAPC   O21 3418   1.717   0.557   6.640  0.3090 -0.4341  1.0007
   26SAPC   C21 3419   1.675   0.657   6.713 -1.1657 -0.0314  0.5186
   26SAPC   O22 3420   1.574   0.659   6.782 -0.0876 -0.5804  0.7470
   26SAPC   C22 3421   1.754   0.778   6.676  0.5122 -0.1396  0.1414
   26SAPC   H2R 3422   1.820   0.760   6.588 -1.0391 -0.4098 -1.0150
   26SAPC   H2S 3423   1.687   0.858   6.636 -1.7512 -1.6013  0.8097
   26SAPC    C3 3424   1.735   0.349   6.745  0.0857  0.4705  0.2263
   26SAPC    HX 3425   1.833   0.351   6.692 -0.7724 -2.8171 -1.7817
   26SAPC    HY 3426   1.698   0.244   6.750 -3.3631  1.5991  3.8217
   26SAPC   O31 3427   1.745   0.404   6.878 -0.1402  0.3096 -0.0891
   26SAPC   C31 3428   1.644   0.367   6.968 -0.0819 -0.1118 -0.1731
   26SAPC   O32 3429   1.545   0.305   6.938 -0.1156  0.1183  0.5269
   26SAPC   C32 3430   1.696   0.408   7.114 -0.5117  0.4555  0.3916
   26SAPC   H2X 3431   1.724   0.516   7.106 -0.7088  0.3598 -2.2602
   26SAPC   H2Y 3432   1.778   0.336   7.137 -2.9512 -2.2309  1.2904
   26SAPC   C23 3433   1.854   0.835   6.780  0.4372 -0.0317 -0.2897
   26SAPC   H3R 3434   1.905   0.925   6.738  1.9063  0.3521  2.0766
   26SAPC   H3S 3435   1.937   0.767   6.808 -0.3472 -1.2458 -0.8526
   26SAPC   C24 3436   1.775   0.883   6.898 -0.2864  0.2130 -0.3645
   26SAPC   H4R 3437   1.713   0.804   6.946 -1.1189  0.4009 -1.1065
   26SAPC   H4S 3438   1.713   0.969   6.865 -0.1830 -0.4258 -2.3201
   26SAPC   C25 3439   1.873   0.935   6.994 -0.1736  0.3283 -0.7630
   26SAPC   H5R 3440   1.918   1.031   6.963  0.2178  1.0263  1.7193
   26SAPC   C26 3441   1.900   0.896   7.121  0.9620  0.2373  0.7509
   26SAPC   H6R 3442   1.980   0.944   7.179  1.5154 -0.1225  0.2952
   26SAPC   C27 3443   1.842   0.777   7.196 -0.2651 -0.5292 -0.3443
   26SAPC   H7R 3444   1.926   0.715   7.234 -0.1667  0.6606  1.4837
   26SAPC   H7S 3445   1.770   0.723   7.130 -0.7050 -0.6991  0.2633
   26SAPC   C28 3446   1.757   0.830   7.310  0.5397 -0.0617 -0.3031
   26SAPC   H8R 3447   1.687   0.906   7.273  0.0056  0.8126  2.3092
   26SAPC   C29 3448   1.759   0.798   7.437 -0.6203  0.6361  0.4308
   26SAPC   H9R 3449   1.694   0.859   7.501 -2.1641 -2.1247  1.7160
   26SAPC  C210 3450   1.837   0.693   7.515  0.2546  0.1392 -0.2457
   26SAPC  H10R 3451   1.857   0.607   7.448 -2.0323  1.8253 -3.3884
   26SAPC  H10S 3452   1.788   0.652   7.606 -0.1127 -1.2571 -1.0454
   26SAPC  C211 3453   1.976   0.746   7.548 -0.6745 -0.2052 -0.5632
   26SAPC  H11R 3454   2.034   0.745   7.454  0.0829 -1.1160 -0.0972
   26SAPC  C212 3455   2.034   0.770   7.672  0.3881  0.5978 -0.6406
   26SAPC  H12R 3456   2.135   0.813   7.676  0.3895  0.4903  0.7596
   26SAPC  C213 3457   1.961   0.761   7.804  0.6200 -0.2295  0.3333
   26SAPC  H13R 3458   1.975   0.656   7.835  1.4251 -0.0981  0.4300
   26SAPC  H13S 3459   1.850   0.772   7.803  0.5349 -1.0705 -0.1214
   26SAPC  C214 3460   2.012   0.869   7.900  0.0487  0.0540  0.6776
   26SAPC  H14R 3461   2.058   0.956   7.852  1.3907  0.2971  2.3110
   26SAPC  C215 3462   2.017   0.856   8.029 -0.0848  0.0085 -0.1526
   26SAPC  H15R 3463   2.054   0.932   8.099 -1.8885 -1.0692  2.1043
   26SAPC  C216 3464   1.974   0.737   8.120 -0.3466  0.1429  0.3345
   26SAPC  H16R 3465   2.071   0.690   8.150  0.0636 -0.4244 -1.6902
   26SAPC  H16S 3466   1.922   0.654   8.067  3.7853 -2.0989 -0.7230
   26SAPC  C217 3467   1.879   0.781   8.232 -0.6430 -0.0944  0.0195
   26SAPC  H17R 3468   1.780   0.818   8.196 -1.0415 -0.8025  0.3876
   26SAPC  H17S 3469   1.920   0.874   8.276 -1.8532  0.9641 -0.9823
   26SAPC  C218 3470   1.854   0.671   8.340 -0.3699  0.4757  0.2556
   26SAPC  H18R 3471   1.955   0.645   8.381 -0.1556 -0.9745 -1.1214
   26SAPC  H18S 3472   1.807   0.577   8.304 -1.0893  1.2023 -0.7341
   26SAPC  C219 3473   1.753   0.719   8.444 -0.2936  0.2081 -0.1872
   26SAPC  H19R 3474   1.672   0.782   8.402  0.1386 -0.9203 -2.8784
   26SAPC  H19S 3475   1.803   0.793   8.511 -1.6241 -0.8417  2.0954
   26SAPC  C220 3476   1.692   0.609   8.526 -0.6722  0.1518 -0.2720
   26SAPC  H20R 3477   1.629   0.532   8.476 -0.2452 -0.8811  0.7308
   26SAPC  H20S 3478   1.636   0.649   8.614 -0.8348 -0.6152 -0.0230
   26SAPC  H20T 3479   1.773   0.547   8.569 -1.2873  0.4720  1.4658
   26SAPC   C33 3480   1.591   0.378   7.226 -0.8707  0.6139  0.0446
   26SAPC   H3X 3481   1.546   0.277   7.223 -2.3161  1.2197 -3.4465
   26SAPC   H3Y 3482   1.500   0.442   7.223 -0.3722  1.4944  2.0768
   26SAPC   C34 3483   1.647   0.389   7.369  0.4280  0.1846  0.4934
   26SAPC   H4X 3484   1.701   0.485   7.384 -1.3677  0.9659  2.3059
   26SAPC   H4Y 3485   1.727   0.315   7.390 -1.0783 -1.3621  1.0070
   26SAPC   C35 3486   1.530   0.385   7.468  0.5632  0.3879 -0.1116
   26SAPC   H5X 3487   1.479   0.288   7.447  0.3570  0.5465 -0.3472
   26SAPC   H5Y 3488   1.458   0.466   7.445 -1.1097 -1.3353 -1.3534
   26SAPC   C36 3489   1.575   0.391   7.614 -0.0820 -0.0841 -0.0812
   26SAPC   H6X 3490   1.658   0.465   7.617 -0.9607  0.9146  0.7375
   26SAPC   H6Y 3491   1.623   0.294   7.639 -0.5803 -0.4126 -0.3804
   26SAPC   C37 3492   1.463   0.422   7.703 -0.2916 -0.0001  0.3696
   26SAPC   H7X 3493   1.371   0.364   7.685 -1.6984  0.9981  3.6333
   26SAPC   H7Y 3494   1.449   0.532   7.699  1.4852  0.2444 -3.4915
   26SAPC   C38 3495   1.503   0.400   7.842  0.9841 -0.2493  0.1504
   26SAPC   H8X 3496   1.540   0.296   7.849  0.1896 -0.4819  1.1383
   26SAPC   H8Y 3497   1.415   0.413   7.908  0.3179 -0.1832 -0.7398
   26SAPC   C39 3498   1.603   0.506   7.896 -0.2769  0.3871 -0.1989
   26SAPC   H9X 3499   1.549   0.603   7.885 -1.3357  0.0534  1.6350
   26SAPC   H9Y 3500   1.696   0.503   7.835 -0.5202  0.7166 -0.5966
   26SAPC  C310 3501   1.642   0.492   8.046  0.3951  0.4213  0.0641
   26SAPC  H10X 3502   1.720   0.566   8.076  0.2905 -0.5464  3.0179
   26SAPC  H10Y 3503   1.682   0.390   8.062 -0.0999 -0.0620 -1.5898
   26SAPC  C311 3504   1.532   0.505   8.146 -0.0949 -0.1438  0.0254
   26SAPC  H11X 3505   1.567   0.458   8.240  2.3264  0.4441 -0.5187
   26SAPC  H11Y 3506   1.443   0.452   8.107 -0.9264  0.3111  1.2384
   26SAPC  C312 3507   1.482   0.644   8.192  0.2370 -0.4311 -0.3596
   26SAPC  H12X 3508   1.440   0.704   8.108 -1.0624  0.0632  0.6165
   26SAPC  H12Y 3509   1.567   0.705   8.230 -1.1866  2.2535 -1.1941
   26SAPC  C313 3510   1.386   0.637   8.308  0.6252 -0.0546 -0.2180
   26SAPC  H13X 3511   1.433   0.580   8.391  2.2892 -0.3929 -1.3567
   26SAPC  H13Y 3512   1.299   0.579   8.270 -0.9059  2.4432 -0.8235
   26SAPC  C314 3513   1.361   0.785   8.351 -0.2651 -0.1957  0.1176
   26SAPC  H14X 3514   1.319   0.843   8.266 -0.7086 -0.9705 -0.2100
   26SAPC  H14Y 3515   1.457   0.834   8.378 -0.8724  0.9335  0.2769
   26SAPC  C315 3516   1.255   0.814   8.461  0.0741  0.3629 -0.0185
   26SAPC  H15X 3517   1.160   0.796   8.406 -0.9376  1.4737  1.2869
   26SAPC  H15Y 3518   1.280   0.919   8.490 -0.4728  1.0654 -1.9178
   26SAPC  C316 3519   1.252   0.711   8.574  0.3772 -0.5825 -0.3077
   26SAPC  H16X 3520   1.349   0.702   8.627  0.3973  1.2251  0.0140
   26SAPC  H16Y 3521   1.243   0.610   8.529  0.6206 -1.2611  1.1304
   26SAPC  C317 3522   1.138   0.747   8.680 -0.8272 -0.2064 -0.3556
   26SAPC  H17X 3523   1.170   0.828   8.748  0.0855 -1.3583  0.6383
   26SAPC  H17Y 3524   1.119   0.659   8.746 -2.0088  0.6570  0.5073
   26SAPC  C318 3525   1.005   0.771   8.625 -0.4200 -0.5846 -0.2993
   26SAPC  H18X 3526   0.975   0.691   8.555 -1.6055 -0.0143 -0.4638
   26SAPC  H18Y 3527   0.983   0.870   8.580  2.8071 -0.3114 -1.5280
   26SAPC  H18Z 3528   0.936   0.772   8.713  0.3632  2.0884  0.3963
   27SAPC     N 3529   6.533   5.965   6.454 -0.2945  0.1744 -0.1166
   27SAPC   C12 3530   6.431   6.025   6.548  0.3762 -0.2222  0.5010
   27SAPC  H12A 3531   6.349   6.065   6.490  2.9349  2.2562 -1.7100
   27SAPC  H12B 3532   6.488   6.103   6.595  0.5260  0.9831 -1.5590
   27SAPC   C13 3533   6.489   5.837   6.387 -0.4773  0.4126 -0.1385
   27SAPC  H13A 3534   6.558   5.804   6.310 -2.0285 -2.1863 -0.5484
   27SAPC  H13B 3535   6.465   5.748   6.444  1.5393  0.2535  0.5577
   27SAPC  H13C 3536   6.399   5.860   6.331 -1.5444  1.5405  1.9368
   27SAPC   C14 3537   6.559   6.071   6.350  0.6187 -0.5704  0.2491
   27SAPC  H14A 3538   6.470   6.100   6.296  1.1754 -3.2728 -2.4218
   27SAPC  H14B 3539   6.607   6.156   6.396 -1.1403  0.9408 -0.5638
   27SAPC  H14C 3540   6.640   6.040   6.286  1.1619  0.8628  0.2200
   27SAPC   C15 3541   6.656   5.949   6.531  0.0345  0.2364 -0.4764
   27SAPC  H15A 3542   6.655   5.870   6.604  1.1722 -1.0201 -1.7447
   27SAPC  H15B 3543   6.742   5.931   6.468 -1.3862  1.7783 -3.0196
   27SAPC  H15C 3544   6.679   6.033   6.594 -0.3306  1.2215 -1.6225
   27SAPC   C11 3545   6.378   5.933   6.651 -0.2071 -0.3672  0.2852
   27SAPC  H11A 3546   6.337   6.003   6.727 -0.5378 -0.5865  0.3116
   27SAPC  H11B 3547   6.466   5.888   6.701  0.3003  1.1710  0.8318
   27SAPC     P 3548   6.195   5.754   6.701  0.4626  0.0164  0.4115
   27SAPC   O13 3549   6.062   5.727   6.649  0.2846 -0.2677  0.9335
   27SAPC   O14 3550   6.281   5.640   6.741  0.3059 -0.0249 -0.1745
   27SAPC   O12 3551   6.278   5.844   6.603 -0.0286 -0.5738  0.4690
   27SAPC   O11 3552   6.172   5.834   6.832 -0.2168 -0.4947 -0.0346
   27SAPC    C1 3553   6.107   5.967   6.821 -0.5954  0.5105 -0.7010
   27SAPC    HA 3554   6.165   6.024   6.897 -1.2473  0.5174 -0.1987
   27SAPC    HB 3555   6.116   6.019   6.723  1.1324  2.8255  0.5931
   27SAPC    C2 3556   5.960   5.968   6.877  0.0055  0.7171 -0.8024
   27SAPC    HS 3557   5.901   5.910   6.803  0.4534 -1.8872  0.7612
   27SAPC   O21 3558   5.917   6.109   6.890 -1.0829  0.4930  0.4721
   27SAPC   C21 3559   5.787   6.127   6.907 -0.2297  0.3738  0.3544
   27SAPC   O22 3560   5.701   6.043   6.883  0.3173 -0.2565  0.0035
   27SAPC   C22 3561   5.761   6.274   6.945 -0.0801  0.4691  0.0143
   27SAPC   H2R 3562   5.822   6.294   7.036  1.9138  0.7941 -1.3335
   27SAPC   H2S 3563   5.801   6.333   6.860  0.2990  0.4184  0.1576
   27SAPC    C3 3564   5.956   5.889   7.018 -0.7685 -0.6664  0.2442
   27SAPC    HX 3565   6.012   5.957   7.086  1.0776  0.9414 -2.6779
   27SAPC    HY 3566   6.014   5.795   7.011 -0.3912 -0.3738 -0.7341
   27SAPC   O31 3567   5.834   5.862   7.072  0.1732 -0.0151  0.3408
   27SAPC   C31 3568   5.761   5.767   7.011 -0.1841  0.2569 -0.0499
   27SAPC   O32 3569   5.796   5.713   6.908 -0.2407 -0.3186  0.2754
   27SAPC   C32 3570   5.636   5.732   7.088  0.1012  0.1236 -0.5580
   27SAPC   H2X 3571   5.550   5.724   7.017 -2.0190  2.5239  1.5235
   27SAPC   H2Y 3572   5.626   5.824   7.149  0.2200 -0.1826 -0.0723
   27SAPC   C23 3573   5.615   6.308   6.985 -0.7956 -0.3024  0.6345
   27SAPC   H3R 3574   5.542   6.276   6.908  0.5092  1.1034 -1.2565
   27SAPC   H3S 3575   5.589   6.414   7.004  0.8967  0.1150  0.8405
   27SAPC   C24 3576   5.583   6.244   7.122 -0.5332  0.0952 -0.3453
   27SAPC   H4R 3577   5.571   6.331   7.191  3.6095  2.9745 -2.8058
   27SAPC   H4S 3578   5.665   6.182   7.164 -1.3005 -1.0219 -0.4426
   27SAPC   C25 3579   5.469   6.157   7.118  0.3175  0.1877 -0.0939
   27SAPC   H5R 3580   5.436   6.122   7.020 -1.6810  0.5186  0.4119
   27SAPC   C26 3581   5.410   6.122   7.232  0.5189  0.4981  0.3542
   27SAPC   H6R 3582   5.310   6.077   7.221  0.5496  0.1340  1.4963
   27SAPC   C27 3583   5.444   6.156   7.373  0.3581 -0.4383 -0.7044
   27SAPC   H7R 3584   5.408   6.259   7.396 -1.2962 -1.0340 -0.5453
   27SAPC   H7S 3585   5.555   6.157   7.381  0.2598 -1.2915  1.9173
   27SAPC   C28 3586   5.405   6.047   7.473 -0.0938  0.6469 -0.5745
   27SAPC   H8R 3587   5.389   5.947   7.430 -0.2123  1.2913 -2.0668
   27SAPC   C29 3588   5.384   6.074   7.606 -0.0566 -0.2118  0.2331
   27SAPC   H9R 3589   5.360   5.989   7.671  1.2289 -1.3248 -0.6709
   27SAPC  C210 3590   5.400   6.211   7.672 -0.8997  0.1102 -0.1134
   27SAPC  H10R 3591   5.410   6.293   7.598  0.4697  0.4074  0.3737
   27SAPC  H10S 3592   5.502   6.208   7.716  0.4690 -1.7962 -3.0890
   27SAPC  C211 3593   5.287   6.214   7.772  0.3657  0.2108 -0.7871
   27SAPC  H11R 3594   5.204   6.280   7.741 -0.8140  0.0965  1.9008
   27SAPC  C212 3595   5.278   6.164   7.897 -0.0462  0.6005  0.3254
   27SAPC  H12R 3596   5.178   6.159   7.943 -0.6071 -1.1619 -0.9524
   27SAPC  C213 3597   5.390   6.075   7.956 -0.8592  0.3407 -1.0601
   27SAPC  H13R 3598   5.422   6.108   8.057  0.8186  1.0937 -1.8009
   27SAPC  H13S 3599   5.488   6.074   7.903  0.0546  0.1651  0.5536
   27SAPC  C214 3600   5.346   5.932   7.966  0.1924  0.4635  0.6594
   27SAPC  H14R 3601   5.393   5.861   7.897  0.1893  0.6645  0.4487
   27SAPC  C215 3602   5.267   5.889   8.064 -0.0847 -0.0883 -0.2289
   27SAPC  H15R 3603   5.247   5.781   8.064  0.2076 -0.1480 -0.9503
   27SAPC  C216 3604   5.212   5.970   8.180  0.3298  0.0445  0.9658
   27SAPC  H16R 3605   5.120   5.920   8.218  0.4946 -1.7721 -0.9057
   27SAPC  H16S 3606   5.190   6.075   8.150 -1.0104  0.1055  2.0359
   27SAPC  C217 3607   5.320   5.976   8.289 -0.5815  0.7526  0.1312
   27SAPC  H17R 3608   5.422   6.008   8.258 -0.1518 -1.1078 -0.5009
   27SAPC  H17S 3609   5.329   5.871   8.325 -0.9250  0.7961  0.3497
   27SAPC  C218 3610   5.256   6.053   8.405 -0.3767  0.0704 -0.0707
   27SAPC  H18R 3611   5.182   5.981   8.447  0.0605 -1.1338 -1.2607
   27SAPC  H18S 3612   5.204   6.144   8.370 -0.8466 -0.9250 -2.1461
   27SAPC  C219 3613   5.346   6.093   8.523 -0.4602 -0.4793 -0.1332
   27SAPC  H19R 3614   5.360   6.001   8.585 -2.7593 -0.4736  0.4717
   27SAPC  H19S 3615   5.291   6.163   8.590  1.9373  0.5960  0.8127
   27SAPC  C220 3616   5.478   6.161   8.484 -0.4294 -0.3362 -0.4796
   27SAPC  H20R 3617   5.537   6.086   8.427 -0.3897  0.7290 -1.8870
   27SAPC  H20S 3618   5.544   6.180   8.571 -1.3615 -0.0190  0.1808
   27SAPC  H20T 3619   5.463   6.258   8.431  0.0489 -0.4745 -0.8697
   27SAPC   C33 3620   5.642   5.600   7.160  0.1227 -0.2950  0.0424
   27SAPC   H3X 3621   5.721   5.603   7.238  0.6842 -0.6228 -0.5042
   27SAPC   H3Y 3622   5.660   5.520   7.086 -0.7600  0.6760 -1.2624
   27SAPC   C34 3623   5.512   5.569   7.232  0.7759  0.4468 -0.3068
   27SAPC   H4X 3624   5.504   5.469   7.278  0.2607  0.6855  0.1373
   27SAPC   H4Y 3625   5.422   5.560   7.167  0.7424 -2.3654  0.0307
   27SAPC   C35 3626   5.482   5.655   7.357 -0.4131 -1.0286  0.1433
   27SAPC   H5X 3627   5.405   5.595   7.410  0.0603  0.1030  2.2536
   27SAPC   H5Y 3628   5.433   5.753   7.337  2.1949  0.1564 -0.9348
   27SAPC   C36 3629   5.597   5.681   7.449  0.3641  0.2455  0.3586
   27SAPC   H6X 3630   5.566   5.747   7.532  0.4955 -1.6456  1.9987
   27SAPC   H6Y 3631   5.679   5.737   7.399  0.2278  0.3075  0.2006
   27SAPC   C37 3632   5.652   5.559   7.522  0.7071 -0.2152  0.0711
   27SAPC   H7X 3633   5.718   5.500   7.455  0.1295  2.0179 -2.6661
   27SAPC   H7Y 3634   5.567   5.499   7.562 -0.8639  0.7001 -1.7381
   27SAPC   C38 3635   5.748   5.596   7.639 -0.2044  0.1690 -0.1614
   27SAPC   H8X 3636   5.696   5.666   7.709 -1.3977 -1.9839  1.2093
   27SAPC   H8Y 3637   5.824   5.660   7.589 -0.6725 -0.7805 -2.2059
   27SAPC   C39 3638   5.803   5.483   7.725  0.3818  0.7095  0.4826
   27SAPC   H9X 3639   5.838   5.405   7.654 -2.0938  0.0167 -0.0847
   27SAPC   H9Y 3640   5.710   5.433   7.760  0.3454 -0.2296 -0.9236
   27SAPC  C310 3641   5.899   5.527   7.830 -0.5089  0.2850 -0.0612
   27SAPC  H10X 3642   5.862   5.623   7.873 -0.0315  0.4259  0.0441
   27SAPC  H10Y 3643   6.002   5.538   7.790 -0.8255 -3.0958 -2.1673
   27SAPC  C311 3644   5.899   5.428   7.950  0.8592  0.6392 -0.8817
   27SAPC  H11X 3645   5.996   5.429   8.005  0.8733  0.7040 -0.9066
   27SAPC  H11Y 3646   5.879   5.327   7.909  1.6451  0.5472 -1.0533
   27SAPC  C312 3647   5.788   5.460   8.054 -0.2407 -0.4931  1.1063
   27SAPC  H12X 3648   5.692   5.447   7.999 -1.1661  2.5324  1.7968
   27SAPC  H12Y 3649   5.784   5.563   8.096 -0.0129 -0.2460  0.5204
   27SAPC  C313 3650   5.799   5.372   8.184  0.0860 -0.0323 -0.3273
   27SAPC  H13X 3651   5.900   5.388   8.226 -1.4066  0.9574  3.2900
   27SAPC  H13Y 3652   5.803   5.267   8.146 -0.4472 -0.5594  1.0360
   27SAPC  C314 3653   5.688   5.379   8.287  0.7398  0.4967 -0.3724
   27SAPC  H14X 3654   5.724   5.302   8.358  1.7177  1.1702 -0.1126
   27SAPC  H14Y 3655   5.589   5.349   8.247  0.2370  0.7255  0.6655
   27SAPC  C315 3656   5.692   5.518   8.353  0.0385 -0.2166  0.3796
   27SAPC  H15X 3657   5.667   5.585   8.268 -1.4527  3.3631  3.3638
   27SAPC  H15Y 3658   5.792   5.556   8.382 -0.1819  1.4001 -0.8653
   27SAPC  C316 3659   5.590   5.530   8.466 -0.6242 -0.0763 -0.8057
   27SAPC  H16X 3660   5.618   5.466   8.552  0.1811  0.4930 -0.6407
   27SAPC  H16Y 3661   5.491   5.494   8.428  0.0038 -0.0646 -2.5205
   27SAPC  C317 3662   5.563   5.674   8.520 -0.1888  0.2344 -0.3942
   27SAPC  H17X 3663   5.523   5.736   8.437  0.5042  2.5122  0.8914
   27SAPC  H17Y 3664   5.660   5.721   8.544  0.1973 -0.3705 -0.7422
   27SAPC  C318 3665   5.472   5.687   8.637  0.2872  0.0643  0.1398
   27SAPC  H18X 3666   5.449   5.792   8.666  0.2194  0.1984 -0.3934
   27SAPC  H18Y 3667   5.508   5.650   8.735 -2.4396 -1.0089  0.8144
   27SAPC  H18Z 3668   5.373   5.644   8.610 -0.2938  0.8027  1.0255
   28SAPC     N 3669   3.627   0.918   6.153 -0.2841  0.2838 -0.6449
   28SAPC   C12 3670   3.654   0.787   6.230  0.6226 -0.0480 -0.0725
   28SAPC  H12A 3671   3.723   0.731   6.169  0.3292 -1.8936  1.1905
   28SAPC  H12B 3672   3.561   0.732   6.230  0.5138  0.1312  0.6876
   28SAPC   C13 3673   3.611   0.897   6.009  0.5650  0.0468 -0.2329
   28SAPC  H13A 3674   3.708   0.873   5.968  0.6150 -0.9169  0.3975
   28SAPC  H13B 3675   3.535   0.825   5.984 -0.5876  1.0738  0.1982
   28SAPC  H13C 3676   3.591   0.994   5.965 -1.4554  0.3408  1.1892
   28SAPC   C14 3677   3.505   0.982   6.208 -0.8214  0.1095 -0.2142
   28SAPC  H14A 3678   3.520   1.004   6.312  2.0608 -1.8930 -0.1104
   28SAPC  H14B 3679   3.484   1.072   6.151 -0.6992 -0.1458 -0.6626
   28SAPC  H14C 3680   3.424   0.911   6.199  0.0361 -1.5855  3.6483
   28SAPC   C15 3681   3.748   1.013   6.170  0.1570 -0.3579  0.1201
   28SAPC  H15A 3682   3.796   0.993   6.265 -0.2162 -0.5733  0.2637
   28SAPC  H15B 3683   3.818   0.990   6.091  0.5681 -1.3174  0.7387
   28SAPC  H15C 3684   3.732   1.120   6.166 -0.6171 -0.3898  1.5647
   28SAPC   C11 3685   3.703   0.809   6.380 -0.5810  0.1505  0.1184
   28SAPC  H11A 3686   3.666   0.720   6.435 -2.2912  2.4729  2.9979
   28SAPC  H11B 3687   3.646   0.889   6.430 -0.9653  1.9016 -2.8743
   28SAPC     P 3688   3.943   0.717   6.369  0.3287  0.4211  0.1734
   28SAPC   O13 3689   3.866   0.593   6.338 -0.2622 -0.3628 -0.4485
   28SAPC   O14 3690   4.037   0.767   6.270  0.1297 -0.9229  0.0135
   28SAPC   O12 3691   3.841   0.828   6.399  0.2566 -0.5158 -0.0171
   28SAPC   O11 3692   4.019   0.692   6.505  0.3647  0.2741 -0.2492
   28SAPC    C1 3693   3.978   0.754   6.631  0.6272 -0.0803  0.5166
   28SAPC    HA 3694   4.024   0.854   6.643 -0.9416  0.7654 -0.2266
   28SAPC    HB 3695   3.867   0.745   6.637  0.5371  1.3780  1.5673
   28SAPC    C2 3696   4.029   0.680   6.754  0.2918 -0.2309 -0.3486
   28SAPC    HS 3697   4.052   0.577   6.719 -1.2927  0.2433 -3.1033
   28SAPC   O21 3698   3.930   0.689   6.857  0.6167 -0.0580  0.1667
   28SAPC   C21 3699   3.842   0.584   6.851 -0.3959 -0.2326 -0.4760
   28SAPC   O22 3700   3.831   0.506   6.766  0.6501  0.3185 -0.4264
   28SAPC   C22 3701   3.752   0.597   6.980  0.0102 -0.2805 -0.0826
   28SAPC   H2R 3702   3.716   0.702   6.983  1.0154  0.0981 -0.6649
   28SAPC   H2S 3703   3.670   0.523   6.966  0.5038 -0.8952  0.1884
   28SAPC    C3 3704   4.169   0.731   6.803  0.0845  0.0954 -0.5261
   28SAPC    HX 3705   4.145   0.833   6.841  1.9065 -0.0552  1.2026
   28SAPC    HY 3706   4.248   0.739   6.726  0.0277  0.0424 -0.5892
   28SAPC   O31 3707   4.228   0.655   6.919  0.3622  0.4138 -0.1318
   28SAPC   C31 3708   4.284   0.541   6.884 -0.1946  0.1235 -0.1788
   28SAPC   O32 3709   4.295   0.495   6.772  0.4883 -0.2312  0.9032
   28SAPC   C32 3710   4.349   0.474   7.010  0.1575  0.5123  0.4454
   28SAPC   H2X 3711   4.303   0.526   7.097  0.0983  0.3851  0.4909
   28SAPC   H2Y 3712   4.458   0.494   7.014  0.7402 -2.1562 -0.2804
   28SAPC   C23 3713   3.827   0.543   7.100  0.1975  0.8377 -0.0033
   28SAPC   H3R 3714   3.903   0.470   7.065 -0.2537  1.8946 -3.5379
   28SAPC   H3S 3715   3.754   0.487   7.163 -1.6836  1.3110 -1.6366
   28SAPC   C24 3716   3.882   0.657   7.183 -0.9105  0.0809  0.1275
   28SAPC   H4R 3717   3.917   0.598   7.270 -2.3369  1.2520  1.5831
   28SAPC   H4S 3718   3.963   0.708   7.127  1.4664 -0.1727  3.0993
   28SAPC   C25 3719   3.779   0.757   7.238 -0.6745  0.7858 -0.2510
   28SAPC   H5R 3720   3.757   0.837   7.166 -3.2682  1.0559  0.7311
   28SAPC   C26 3721   3.716   0.747   7.358 -0.2601  0.1535  0.4035
   28SAPC   H6R 3722   3.641   0.824   7.384  1.0069  0.9201  1.9444
   28SAPC   C27 3723   3.720   0.639   7.461 -0.1958  0.6746  0.1801
   28SAPC   H7R 3724   3.716   0.539   7.412 -0.4851  0.3527  0.8490
   28SAPC   H7S 3725   3.632   0.653   7.527 -0.0193  1.1025  0.3287
   28SAPC   C28 3726   3.853   0.636   7.535 -0.7653 -0.4900  0.4149
   28SAPC   H8R 3727   3.942   0.661   7.475 -0.1669 -0.0728  1.4527
   28SAPC   C29 3728   3.876   0.630   7.668 -0.0101  0.3554 -0.3293
   28SAPC   H9R 3729   3.980   0.634   7.706 -0.2253  0.7947  0.2372
   28SAPC  C210 3730   3.782   0.627   7.778 -0.2765 -0.1576  0.2029
   28SAPC  H10R 3731   3.782   0.528   7.829 -0.4550  0.8401  2.2474
   28SAPC  H10S 3732   3.681   0.639   7.732 -0.5919  2.6549  1.4209
   28SAPC  C211 3733   3.802   0.726   7.893  0.4715  0.9355  0.6865
   28SAPC  H11R 3734   3.879   0.802   7.873  3.3144 -1.3887  1.9979
   28SAPC  C212 3735   3.774   0.718   8.026 -0.2367  0.4394  0.9728
   28SAPC  H12R 3736   3.797   0.805   8.089  2.3356  0.5851 -0.0454
   28SAPC  C213 3737   3.703   0.605   8.093  0.1163 -0.2374 -0.2797
   28SAPC  H13R 3738   3.681   0.529   8.015  0.4941 -1.7608  1.0456
   28SAPC  H13S 3739   3.606   0.645   8.132  0.0223 -0.5496 -0.1937
   28SAPC  C214 3740   3.777   0.547   8.209  0.4756  0.2205 -0.0489
   28SAPC  H14R 3741   3.825   0.453   8.178 -1.1322 -0.8209  0.4968
   28SAPC  C215 3742   3.802   0.597   8.335  0.3938  0.3787  0.1008
   28SAPC  H15R 3743   3.857   0.528   8.400 -1.2847 -2.1529 -0.9810
   28SAPC  C216 3744   3.747   0.731   8.389 -0.6331  0.1326  0.1946
   28SAPC  H16R 3745   3.695   0.786   8.307 -2.7449 -0.4515  1.0882
   28SAPC  H16S 3746   3.828   0.803   8.411 -1.1789  0.1062  2.5143
   28SAPC  C217 3747   3.653   0.720   8.504  0.0979  0.1545 -0.2893
   28SAPC  H17R 3748   3.709   0.675   8.589  1.8289  1.0319 -0.9165
   28SAPC  H17S 3749   3.566   0.658   8.473  1.5613 -1.4713 -1.3143
   28SAPC  C218 3750   3.600   0.856   8.539 -0.0444 -0.4527 -0.1228
   28SAPC  H18R 3751   3.547   0.887   8.447  1.5849  3.7752  0.1352
   28SAPC  H18S 3752   3.684   0.928   8.548 -1.1460  1.1368 -1.8772
   28SAPC  C219 3753   3.504   0.870   8.662  0.5036  0.2332  0.3800
   28SAPC  H19R 3754   3.562   0.823   8.745 -0.2030 -1.9750 -0.2983
   28SAPC  H19S 3755   3.418   0.800   8.649  1.7319 -1.4048  0.7344
   28SAPC  C220 3756   3.451   1.007   8.690  0.3588 -0.3377 -0.8009
   28SAPC  H20R 3757   3.354   1.015   8.637  2.2654  2.2424 -4.3464
   28SAPC  H20S 3758   3.514   1.092   8.655 -0.6701  0.9432  0.3634
   28SAPC  H20T 3759   3.438   1.024   8.799  2.2411  0.0179 -0.5958
   28SAPC   C33 3760   4.334   0.322   7.027 -0.6537  0.0688 -0.4873
   28SAPC   H3X 3761   4.429   0.275   6.993 -1.2880 -0.8189 -1.0863
   28SAPC   H3Y 3762   4.248   0.282   6.970 -0.0261 -0.2171 -1.2628
   28SAPC   C34 3763   4.319   0.285   7.180 -0.3064  0.4757  0.0291
   28SAPC   H4X 3764   4.232   0.343   7.218  0.3898  1.8042 -0.3524
   28SAPC   H4Y 3765   4.409   0.331   7.225  0.5167  0.5676 -1.6342
   28SAPC   C35 3766   4.289   0.137   7.217 -0.1096  0.3744 -0.0922
   28SAPC   H5X 3767   4.338   0.072   7.142  0.2084 -1.0723  1.3021
   28SAPC   H5Y 3768   4.180   0.118   7.204 -1.3389  6.2452 -0.8678
   28SAPC   C36 3769   4.356   0.094   7.350 -0.4251  0.0727  0.5721
   28SAPC   H6X 3770   4.462   0.127   7.342  0.6925 -3.0154  0.9231
   28SAPC   H6Y 3771   4.365  -0.016   7.364  0.3785  0.0842  0.2138
   28SAPC   C37 3772   4.289   0.151   7.479 -0.2705  0.0474  0.1415
   28SAPC   H7X 3773   4.190   0.100   7.483  1.2269 -3.0207  1.2907
   28SAPC   H7Y 3774   4.276   0.261   7.471  2.7578  0.4885  0.3687
   28SAPC   C38 3775   4.356   0.123   7.617 -0.4145 -0.3314  0.7150
   28SAPC   H8X 3776   4.450   0.184   7.620  0.1693 -1.2554  2.4018
   28SAPC   H8Y 3777   4.361   0.014   7.636 -2.6492 -0.4038  1.0942
   28SAPC   C39 3778   4.273   0.199   7.723  0.4959  0.7872  0.0802
   28SAPC   H9X 3779   4.182   0.136   7.726  0.8952 -0.0168 -2.3528
   28SAPC   H9Y 3780   4.248   0.299   7.682 -0.4012  0.5203 -0.0344
   28SAPC  C310 3781   4.350   0.199   7.856 -0.1628 -0.0693 -0.1493
   28SAPC  H10X 3782   4.450   0.245   7.844  0.5381 -1.3555  0.5770
   28SAPC  H10Y 3783   4.359   0.089   7.871 -0.1879 -0.3071 -1.7627
   28SAPC  C311 3784   4.265   0.255   7.975  0.5745  0.9408 -0.3591
   28SAPC  H11X 3785   4.294   0.220   8.077 -2.4735  2.5482  1.2110
   28SAPC  H11Y 3786   4.164   0.210   7.966 -0.1669  2.2401  1.0520
   28SAPC  C312 3787   4.263   0.408   7.979 -0.3375 -0.5085 -0.0488
   28SAPC  H12X 3788   4.205   0.446   7.893 -1.0720  1.0708  1.0811
   28SAPC  H12Y 3789   4.361   0.459   7.984 -1.0236  0.9136 -0.5765
   28SAPC  C313 3790   4.184   0.453   8.107  1.0006 -0.8024  0.2408
   28SAPC  H13X 3791   4.219   0.412   8.204  0.2384  0.1662  0.9469
   28SAPC  H13Y 3792   4.082   0.411   8.098  0.3321  0.2644  2.2675
   28SAPC  C314 3793   4.166   0.599   8.117 -1.1515 -0.5980 -0.6945
   28SAPC  H14X 3794   4.103   0.628   8.204 -0.2818  0.0530 -0.2634
   28SAPC  H14Y 3795   4.109   0.625   8.025 -3.9964 -3.1563  0.1927
   28SAPC  C315 3796   4.294   0.686   8.122 -0.0069  0.0737  0.5793
   28SAPC  H15X 3797   4.360   0.652   8.039 -1.1051  0.0348 -0.3097
   28SAPC  H15Y 3798   4.345   0.652   8.215 -0.2607 -0.7547  0.4193
   28SAPC  C316 3799   4.258   0.836   8.126  0.1498  0.0962 -0.4897
   28SAPC  H16X 3800   4.349   0.887   8.163 -0.8770 -0.7460  3.7894
   28SAPC  H16Y 3801   4.175   0.867   8.193  0.8681  2.7445 -0.7258
   28SAPC  C317 3802   4.223   0.880   7.984  0.5326 -0.2052  0.0981
   28SAPC  H17X 3803   4.123   0.845   7.951  1.1713 -1.1721 -0.8861
   28SAPC  H17Y 3804   4.310   0.844   7.925  0.3267 -4.0808  1.8696
   28SAPC  C318 3805   4.206   1.030   7.975  0.7407  0.0465  0.6324
   28SAPC  H18X 3806   4.188   1.064   7.871 -0.9924 -3.2519 -0.2917
   28SAPC  H18Y 3807   4.296   1.084   8.013  1.2273 -1.3955  1.6254
   28SAPC  H18Z 3808   4.110   1.066   8.017  0.4920  0.2388 -0.1000
   29SAPC     N 3809   0.530   5.367   6.432  0.1674 -0.3161  0.5587
   29SAPC   C12 3810   0.659   5.446   6.426 -0.2153 -0.6142  0.4993
   29SAPC  H12A 3811   0.740   5.379   6.452  0.6822  0.1187 -0.3223
   29SAPC  H12B 3812   0.668   5.519   6.504 -2.7546  1.3827 -0.9252
   29SAPC   C13 3813   0.411   5.450   6.403 -0.1228 -0.3621 -0.8337
   29SAPC  H13A 3814   0.385   5.518   6.483  1.6281  0.1485 -0.6331
   29SAPC  H13B 3815   0.419   5.514   6.316 -0.1689  1.5945  0.5347
   29SAPC  H13C 3816   0.335   5.375   6.392  0.2332 -0.7699 -0.5214
   29SAPC   C14 3817   0.528   5.266   6.321  0.1849  0.4607 -0.4370
   29SAPC  H14A 3818   0.434   5.214   6.333  0.4941  0.5417  3.7880
   29SAPC  H14B 3819   0.531   5.316   6.225 -1.2191 -0.0688 -0.7894
   29SAPC  H14C 3820   0.609   5.196   6.332  0.2470  0.4868 -0.7401
   29SAPC   C15 3821   0.512   5.300   6.571 -0.1407  0.1893 -0.4575
   29SAPC  H15A 3822   0.599   5.240   6.593 -1.0979 -0.9005  0.5246
   29SAPC  H15B 3823   0.501   5.368   6.654 -0.7395  1.8575 -1.8612
   29SAPC  H15C 3824   0.426   5.235   6.572  0.5131 -0.6957  0.7250
   29SAPC   C11 3825   0.697   5.508   6.292  0.5201 -0.3203 -0.5043
   29SAPC  H11A 3826   0.686   5.434   6.209  1.0361 -1.9315  0.8098
   29SAPC  H11B 3827   0.804   5.540   6.291  0.9977 -1.6295 -3.7565
   29SAPC     P 3828   0.645   5.765   6.340 -0.4156 -0.2680  0.0523
   29SAPC   O13 3829   0.764   5.826   6.279 -0.8243 -0.1023  0.3638
   29SAPC   O14 3830   0.527   5.854   6.340  0.4304  0.4626 -0.1329
   29SAPC   O12 3831   0.619   5.625   6.279  0.4727  0.3629 -0.1118
   29SAPC   O11 3832   0.689   5.729   6.484  0.4264  0.6842 -0.0263
   29SAPC    C1 3833   0.588   5.722   6.588 -0.5439  0.0260 -0.3280
   29SAPC    HA 3834   0.485   5.704   6.550 -0.9560  1.5290  0.0085
   29SAPC    HB 3835   0.607   5.636   6.657 -3.3918 -1.4960 -1.2830
   29SAPC    C2 3836   0.596   5.853   6.683 -0.3644  0.1601 -0.8159
   29SAPC    HS 3837   0.570   5.945   6.625 -0.0814  2.3204  2.2415
   29SAPC   O21 3838   0.726   5.865   6.744 -0.3530 -0.0938 -0.0280
   29SAPC   C21 3839   0.783   5.984   6.742 -0.3994 -0.7581 -0.5464
   29SAPC   O22 3840   0.751   6.079   6.672  0.1518  0.2053  0.2710
   29SAPC   C22 3841   0.910   5.983   6.820 -0.5087 -0.6615 -0.3743
   29SAPC   H2R 3842   0.928   5.886   6.871  1.9818  1.2602  2.8021
   29SAPC   H2S 3843   0.984   6.004   6.739  0.5839  0.9399  0.9594
   29SAPC    C3 3844   0.495   5.829   6.796  0.5382 -1.0952 -0.5034
   29SAPC    HX 3845   0.529   5.753   6.870 -2.0143 -0.4840  1.4376
   29SAPC    HY 3846   0.404   5.782   6.752 -0.7952  1.7045 -0.9510
   29SAPC   O31 3847   0.456   5.955   6.862 -0.2772 -0.1696 -0.0376
   29SAPC   C31 3848   0.388   5.950   6.975  0.4307  0.6090 -0.0923
   29SAPC   O32 3849   0.347   5.843   7.022 -0.2139 -0.0067  0.3395
   29SAPC   C32 3850   0.384   6.082   7.049 -0.5287  0.5670 -0.1886
   29SAPC   H2X 3851   0.333   6.154   6.981  0.5799  0.9132 -0.6706
   29SAPC   H2Y 3852   0.493   6.104   7.048  0.3053 -2.9750 -1.4053
   29SAPC   C23 3853   0.912   6.086   6.932  0.3393  0.1247  0.0728
   29SAPC   H3R 3854   0.923   6.188   6.889 -2.0014  0.8994  1.1463
   29SAPC   H3S 3855   0.999   6.064   6.998  0.5064  0.3701 -0.0634
   29SAPC   C24 3856   0.769   6.096   7.015 -0.9958 -0.2743 -0.0797
   29SAPC   H4R 3857   0.756   5.989   7.043 -0.4645 -0.2208  0.3772
   29SAPC   H4S 3858   0.695   6.126   6.937  0.2651 -1.9069 -2.0173
   29SAPC   C25 3859   0.770   6.184   7.138  0.0618 -0.3012  0.4244
   29SAPC   H5R 3860   0.805   6.287   7.129 -1.3118  0.1808  0.3876
   29SAPC   C26 3861   0.729   6.148   7.262  0.8604 -0.0518 -0.1476
   29SAPC   H6R 3862   0.739   6.217   7.348 -1.8565 -2.3421  2.2486
   29SAPC   C27 3863   0.679   6.008   7.301 -0.3797  0.0182  0.3326
   29SAPC   H7R 3864   0.632   5.963   7.212  1.8613  0.3255 -1.0964
   29SAPC   H7S 3865   0.600   6.021   7.378 -0.9059  0.8136 -0.3265
   29SAPC   C28 3866   0.793   5.934   7.362 -0.2102  0.1835  0.1073
   29SAPC   H8R 3867   0.835   5.860   7.292 -0.1517 -0.4037  0.7488
   29SAPC   C29 3868   0.855   5.949   7.482  0.6278  0.2143 -0.2649
   29SAPC   H9R 3869   0.934   5.874   7.496  0.6190  0.2014 -0.2861
   29SAPC  C210 3870   0.820   6.044   7.597  0.1190  0.5858 -0.3498
   29SAPC  H10R 3871   0.786   6.143   7.561  2.2456  1.1886 -0.8620
   29SAPC  H10S 3872   0.912   6.067   7.655  1.3106 -1.8390 -1.1069
   29SAPC  C211 3873   0.711   5.971   7.685 -0.3395 -0.4390  0.1562
   29SAPC  H11R 3874   0.633   5.938   7.614  0.7032 -2.2684 -0.2064
   29SAPC  C212 3875   0.706   5.963   7.824  0.5513 -0.3781  0.6719
   29SAPC  H12R 3876   0.617   5.922   7.875 -0.2879 -0.4974 -0.8449
   29SAPC  C213 3877   0.820   6.011   7.910  0.2060 -0.4801  0.0077
   29SAPC  H13R 3878   0.904   6.059   7.856  0.6892 -1.3150 -0.0137
   29SAPC  H13S 3879   0.865   5.915   7.946 -0.2860 -0.2776  1.2336
   29SAPC  C214 3880   0.786   6.103   8.026 -0.2778 -0.0179  0.5231
   29SAPC  H14R 3881   0.684   6.143   8.032  0.5758  2.2269  1.1038
   29SAPC  C215 3882   0.875   6.134   8.121 -0.1489  1.2800 -0.5606
   29SAPC  H15R 3883   0.855   6.209   8.198  1.2664 -2.5637  4.0265
   29SAPC  C216 3884   1.022   6.089   8.117  0.3792 -0.0128  0.1147
   29SAPC  H16R 3885   1.070   6.162   8.048 -1.5431  1.3391  0.1220
   29SAPC  H16S 3886   1.031   5.992   8.064 -3.2368 -0.8221  0.7045
   29SAPC  C217 3887   1.086   6.103   8.258 -0.2994 -0.6834 -0.7056
   29SAPC  H17R 3888   1.071   6.202   8.306 -0.7153 -1.6887  1.3409
   29SAPC  H17S 3889   1.195   6.107   8.241  0.0593  2.6220  1.5575
   29SAPC  C218 3890   1.039   5.979   8.334 -0.2144  0.3022  0.0441
   29SAPC  H18R 3891   1.055   5.897   8.261  1.5461  0.1531  0.5521
   29SAPC  H18S 3892   0.934   5.978   8.369 -0.3372  0.6697 -0.3024
   29SAPC  C219 3893   1.117   5.955   8.468  0.2590 -0.2238  0.1031
   29SAPC  H19R 3894   1.086   5.854   8.502 -0.0343  1.1661  4.6912
   29SAPC  H19S 3895   1.077   6.024   8.545 -0.3501 -0.9168  0.4200
   29SAPC  C220 3896   1.267   5.948   8.457 -0.6483 -0.3024  0.3130
   29SAPC  H20R 3897   1.306   6.043   8.413 -1.4272 -0.1578 -0.0699
   29SAPC  H20S 3898   1.288   5.861   8.391  1.0559 -1.1626  1.9029
   29SAPC  H20T 3899   1.302   5.907   8.554 -2.4020 -4.3192 -0.5672
   29SAPC   C33 3900   0.328   6.087   7.191  0.7779 -0.3746 -0.7433
   29SAPC   H3X 3901   0.385   6.011   7.248  1.4369  1.1341  0.6647
   29SAPC   H3Y 3902   0.224   6.049   7.194 -0.1004  1.9233 -0.6532
   29SAPC   C34 3903   0.333   6.230   7.243 -0.1784  0.5814  0.3854
   29SAPC   H4X 3904   0.262   6.296   7.190 -1.4348 -1.1258 -0.1606
   29SAPC   H4Y 3905   0.433   6.275   7.223 -0.1734 -0.4322 -2.2586
   29SAPC   C35 3906   0.328   6.242   7.401 -0.3299  0.0258 -0.5287
   29SAPC   H5X 3907   0.424   6.209   7.446  0.7988  3.0383 -0.4666
   29SAPC   H5Y 3908   0.254   6.171   7.442  1.1811 -1.5319 -0.3820
   29SAPC   C36 3909   0.285   6.383   7.446 -0.3921 -0.1549 -0.2272
   29SAPC   H6X 3910   0.184   6.407   7.405 -0.2611  1.7058  0.4790
   29SAPC   H6Y 3911   0.357   6.458   7.408  0.5116 -0.8053  0.1547
   29SAPC   C37 3912   0.273   6.399   7.595  0.2604  0.0404 -0.2117
   29SAPC   H7X 3913   0.194   6.328   7.628  4.5096 -4.6742  0.9311
   29SAPC   H7Y 3914   0.235   6.502   7.613 -0.1960 -0.0429 -0.6484
   29SAPC   C38 3915   0.395   6.389   7.678 -0.4999 -0.6305  0.6897
   29SAPC   H8X 3916   0.460   6.478   7.662 -1.3341  0.2629  2.0129
   29SAPC   H8Y 3917   0.456   6.304   7.641 -1.2486 -0.0350 -2.2247
   29SAPC   C39 3918   0.359   6.386   7.829 -0.1519  0.1086 -0.6255
   29SAPC   H9X 3919   0.317   6.287   7.856 -2.3036  1.0971 -0.1434
   29SAPC   H9Y 3920   0.271   6.452   7.843  0.3252  0.7842 -0.7916
   29SAPC  C310 3921   0.469   6.416   7.931 -0.5254 -0.4489 -0.4795
   29SAPC  H10X 3922   0.522   6.511   7.909  0.3322 -0.4430  1.4153
   29SAPC  H10Y 3923   0.550   6.340   7.928  1.4856  1.5716 -0.2748
   29SAPC  C311 3924   0.421   6.425   8.084  0.3359  0.4950  0.9107
   29SAPC  H11X 3925   0.336   6.354   8.093 -0.0616  0.7613 -0.6362
   29SAPC  H11Y 3926   0.373   6.525   8.086 -0.7550  0.1424 -2.2546
   29SAPC  C312 3927   0.542   6.396   8.176 -0.9521 -0.3942 -0.0266
   29SAPC  H12X 3928   0.631   6.462   8.169 -0.8438 -0.6121 -0.7627
   29SAPC  H12Y 3929   0.572   6.292   8.152  1.7214  0.5085 -1.0276
   29SAPC  C313 3930   0.495   6.398   8.327  0.2538  0.9391  0.3283
   29SAPC  H13X 3931   0.394   6.353   8.316  1.4136 -1.4807 -1.4081
   29SAPC  H13Y 3932   0.496   6.503   8.361  0.1954  2.0436 -2.8014
   29SAPC  C314 3933   0.579   6.305   8.420 -0.3265  0.5885  0.0696
   29SAPC  H14X 3934   0.689   6.313   8.409 -0.2459 -0.5910 -0.1236
   29SAPC  H14Y 3935   0.548   6.200   8.405  1.0107  0.5426 -3.3328
   29SAPC  C315 3936   0.567   6.336   8.567  0.9348  0.1129  0.0183
   29SAPC  H15X 3937   0.461   6.358   8.593  0.7698 -1.3667  0.7133
   29SAPC  H15Y 3938   0.628   6.425   8.595  0.5939  0.4101 -0.1701
   29SAPC  C316 3939   0.602   6.209   8.647 -0.0313  0.6976 -0.7340
   29SAPC  H16X 3940   0.706   6.182   8.620  0.0097 -2.6846  2.0466
   29SAPC  H16Y 3941   0.541   6.121   8.619  1.3845 -0.5723  0.0405
   29SAPC  C317 3942   0.591   6.235   8.803  0.8451 -0.1485  0.5679
   29SAPC  H17X 3943   0.676   6.303   8.825  1.9736 -0.8372 -1.4335
   29SAPC  H17Y 3944   0.615   6.136   8.847 -0.5577 -1.6142 -1.7574
   29SAPC  C318 3945   0.462   6.287   8.868 -0.0115 -0.1577 -0.2180
   29SAPC  H18X 3946   0.378   6.214   8.867 -1.2415  1.1537  0.8757
   29SAPC  H18Y 3947   0.425   6.377   8.813 -1.2324  0.1628  1.0459
   29SAPC  H18Z 3948   0.486   6.319   8.972  1.4003 -1.5133 -0.1027
   30SAPC     N 3949   1.712   3.950   5.979 -0.3228  0.4985 -0.7375
   30SAPC   C12 3950   1.566   3.977   6.015 -0.0763  0.3579 -0.4585
   30SAPC  H12A 3951   1.558   3.968   6.123  1.0925 -0.4702 -0.4141
   30SAPC  H12B 3952   1.500   3.906   5.967 -2.2699  2.0358 -0.0394
   30SAPC   C13 3953   1.767   3.824   6.019 -0.4805  0.1398  0.0278
   30SAPC  H13A 3954   1.875   3.820   6.023 -0.5246 -1.5092  0.1315
   30SAPC  H13B 3955   1.732   3.800   6.118  0.8112  0.2888  0.5409
   30SAPC  H13C 3956   1.743   3.752   5.942  1.5005  0.4769 -0.9788
   30SAPC   C14 3957   1.739   3.963   5.840  0.3197  0.4541 -0.8375
   30SAPC  H14A 3958   1.707   4.061   5.806 -1.0966 -0.1037 -1.1684
   30SAPC  H14B 3959   1.842   3.936   5.821 -0.0773 -1.9034  0.0016
   30SAPC  H14C 3960   1.684   3.888   5.784  0.6483 -1.1349  0.8813
   30SAPC   C15 3961   1.807   4.051   6.044 -0.5130 -0.1153  0.0202
   30SAPC  H15A 3962   1.816   4.031   6.149 -1.0941  0.1303  0.1210
   30SAPC  H15B 3963   1.903   4.048   5.993 -0.6659  1.2181 -0.3965
   30SAPC  H15C 3964   1.765   4.150   6.035 -0.5188 -0.1953 -0.9306
   30SAPC   C11 3965   1.488   4.106   5.981 -0.0036  0.6250  0.0706
   30SAPC  H11A 3966   1.387   4.095   6.026  0.3355 -0.3485  0.6335
   30SAPC  H11B 3967   1.483   4.100   5.871 -1.4682 -1.4009  0.1827
   30SAPC     P 3968   1.542   4.263   6.187  0.4049 -0.3629  0.6075
   30SAPC   O13 3969   1.673   4.236   6.247  0.1197  0.3650 -0.6802
   30SAPC   O14 3970   1.504   4.405   6.202  0.2707 -0.0608 -0.8936
   30SAPC   O12 3971   1.539   4.230   6.032  0.3079 -0.5246 -0.2706
   30SAPC   O11 3972   1.429   4.180   6.256  0.5022 -0.0214 -0.2061
   30SAPC    C1 3973   1.466   4.089   6.358 -0.1105 -0.0560  0.2178
   30SAPC    HA 3974   1.385   4.015   6.375 -0.9314 -0.0357 -2.9759
   30SAPC    HB 3975   1.562   4.034   6.348 -0.4523 -0.5656 -0.3601
   30SAPC    C2 3976   1.469   4.175   6.489 -0.3268  0.0314 -0.4218
   30SAPC    HS 3977   1.550   4.250   6.487  1.0606 -1.2653  2.0103
   30SAPC   O21 3978   1.492   4.078   6.595  0.1104  0.2418 -0.0147
   30SAPC   C21 3979   1.597   4.103   6.661 -0.4510  0.3432  0.5693
   30SAPC   O22 3980   1.674   4.200   6.660 -0.1927 -0.4630  0.1520
   30SAPC   C22 3981   1.633   3.976   6.742 -0.5466  0.1611 -0.4470
   30SAPC   H2R 3982   1.711   3.916   6.691  0.9502  1.0947  0.6449
   30SAPC   H2S 3983   1.674   4.013   6.839  0.5746 -2.2463  0.0810
   30SAPC    C3 3984   1.329   4.247   6.511 -0.7682 -0.0724 -0.0161
   30SAPC    HX 3985   1.257   4.171   6.474  0.3657 -1.0852 -0.1971
   30SAPC    HY 3986   1.331   4.340   6.451  0.0256 -1.2119 -1.8472
   30SAPC   O31 3987   1.288   4.276   6.648 -0.0258  0.2544  0.1873
   30SAPC   C31 3988   1.362   4.380   6.702 -0.5078  0.3711 -0.2433
   30SAPC   O32 3989   1.444   4.443   6.640  0.0612 -0.1275  0.3475
   30SAPC   C32 3990   1.334   4.390   6.844  0.4225 -0.0593 -0.6681
   30SAPC   H2X 3991   1.237   4.343   6.871  0.3236  1.2422  1.4616
   30SAPC   H2Y 3992   1.336   4.494   6.881  1.3976 -0.1528 -0.4159
   30SAPC   C23 3993   1.508   3.898   6.773  0.7184 -0.1682  0.1246
   30SAPC   H3R 3994   1.487   3.841   6.679  1.3181 -0.3892  0.1183
   30SAPC   H3S 3995   1.420   3.957   6.803  1.7687  0.7632  1.4995
   30SAPC   C24 3996   1.539   3.804   6.894  0.0441 -0.1742 -0.1426
   30SAPC   H4R 3997   1.549   3.862   6.988  0.8034 -0.5304  0.0089
   30SAPC   H4S 3998   1.635   3.751   6.874  0.2219  0.1374 -0.1308
   30SAPC   C25 3999   1.422   3.712   6.894  0.0993 -0.5414 -0.5967
   30SAPC   H5R 4000   1.397   3.661   6.800 -0.9332 -2.0558  0.4389
   30SAPC   C26 4001   1.351   3.681   7.007 -0.2066 -0.1347 -0.5210
   30SAPC   H6R 4002   1.271   3.607   6.999 -0.1191 -0.1184 -1.6642
   30SAPC   C27 4003   1.377   3.722   7.153 -1.4259 -0.4898  0.8878
   30SAPC   H7R 4004   1.297   3.788   7.195  0.6925  3.2840 -0.5529
   30SAPC   H7S 4005   1.467   3.787   7.158 -0.7276 -1.1257 -1.9398
   30SAPC   C28 4006   1.403   3.598   7.232  0.0222 -0.3917  1.1484
   30SAPC   H8R 4007   1.425   3.511   7.169 -0.2220  0.2779  0.1162
   30SAPC   C29 4008   1.406   3.592   7.367  0.1297  0.4304 -0.2823
   30SAPC   H9R 4009   1.437   3.498   7.415  0.7089  0.5016 -0.5125
   30SAPC  C210 4010   1.384   3.698   7.466  0.4711 -0.4413 -0.0506
   30SAPC  H10R 4011   1.293   3.675   7.524  0.3327 -1.2771 -0.5804
   30SAPC  H10S 4012   1.360   3.793   7.412 -1.4907  0.7106  2.6371
   30SAPC  C211 4013   1.508   3.707   7.555  0.1159  0.1776  0.0374
   30SAPC  H11R 4014   1.595   3.687   7.489 -1.4358  0.5104 -2.2272
   30SAPC  C212 4015   1.523   3.712   7.689 -0.5049  0.1566  0.6322
   30SAPC  H12R 4016   1.619   3.709   7.742 -0.5588 -2.4257  0.6723
   30SAPC  C213 4017   1.407   3.723   7.789 -0.0366  0.0603  0.5528
   30SAPC  H13R 4018   1.403   3.637   7.859  0.6665  0.4633  1.0993
   30SAPC  H13S 4019   1.314   3.727   7.729 -2.3080  1.3450  3.8963
   30SAPC  C214 4020   1.409   3.856   7.856  0.3251 -0.0400 -0.3588
   30SAPC  H14R 4021   1.373   3.938   7.791 -0.1068 -0.5990 -0.8360
   30SAPC  C215 4022   1.431   3.887   7.979 -0.4511 -0.0554  0.0934
   30SAPC  H15R 4023   1.408   3.990   8.009 -0.4492 -0.0865  0.2046
   30SAPC  C216 4024   1.472   3.784   8.093  0.2775 -0.2275 -0.3669
   30SAPC  H16R 4025   1.467   3.680   8.053 -1.5886 -0.8039  1.2421
   30SAPC  H16S 4026   1.411   3.793   8.185 -0.0682  0.9229 -0.6988
   30SAPC  C217 4027   1.619   3.817   8.135  0.1751  0.3495 -0.0206
   30SAPC  H17R 4028   1.639   3.759   8.227  0.8953  0.6440  0.0113
   30SAPC  H17S 4029   1.632   3.925   8.157 -0.9199  0.2783  1.0492
   30SAPC  C218 4030   1.729   3.780   8.028 -0.1876  0.0564 -0.8356
   30SAPC  H18R 4031   1.716   3.859   7.951  0.2599  1.1785  0.2140
   30SAPC  H18S 4032   1.720   3.676   7.989 -0.9054 -0.9905  1.8941
   30SAPC  C219 4033   1.864   3.791   8.105  0.4929  0.1609  0.9567
   30SAPC  H19R 4034   1.864   3.709   8.180 -0.2176  0.6644  1.5202
   30SAPC  H19S 4035   1.863   3.883   8.168 -2.8009 -0.3829  1.8832
   30SAPC  C220 4036   1.991   3.780   8.018  0.3441  1.1034  0.3085
   30SAPC  H20R 4037   1.989   3.693   7.949  0.5946  0.3191  1.2679
   30SAPC  H20S 4038   2.082   3.770   8.081 -0.3320 -1.2141  1.0155
   30SAPC  H20T 4039   2.006   3.866   7.950  1.6983 -1.5751 -3.0882
   30SAPC   C33 4040   1.447   4.314   6.920  0.5495  0.0776 -0.9736
   30SAPC   H3X 4041   1.542   4.347   6.873  0.5721  1.2599 -0.1452
   30SAPC   H3Y 4042   1.431   4.205   6.907  2.3645 -0.2034 -0.9975
   30SAPC   C34 4043   1.456   4.348   7.074  0.4235 -0.9504  0.3233
   30SAPC   H4X 4044   1.367   4.307   7.125  0.8825 -1.1258  0.9902
   30SAPC   H4Y 4045   1.457   4.458   7.086 -0.0928 -0.5581 -2.4843
   30SAPC   C35 4046   1.594   4.288   7.124 -0.3741  0.1254  0.2693
   30SAPC   H5X 4047   1.682   4.295   7.057 -0.6238 -2.7790 -0.5170
   30SAPC   H5Y 4048   1.580   4.179   7.141  1.7699 -0.5104 -1.5755
   30SAPC   C36 4049   1.630   4.350   7.258 -0.1870 -0.5680  0.7212
   30SAPC   H6X 4050   1.542   4.381   7.319 -0.9709  1.2019 -1.1814
   30SAPC   H6Y 4051   1.681   4.447   7.238 -0.4749 -0.8357 -1.6657
   30SAPC   C37 4052   1.721   4.259   7.342  0.5183  0.0146  0.4026
   30SAPC   H7X 4053   1.822   4.246   7.297 -0.2483 -0.7164 -1.1831
   30SAPC   H7Y 4054   1.680   4.157   7.355  0.4514 -0.0206 -0.0519
   30SAPC   C38 4055   1.755   4.325   7.474  0.1790 -1.4410 -0.1786
   30SAPC   H8X 4056   1.759   4.435   7.462 -1.7010 -1.4259 -1.0256
   30SAPC   H8Y 4057   1.855   4.285   7.502  0.8685  1.3113  1.6664
   30SAPC   C39 4058   1.663   4.278   7.594  0.6024  0.3405 -0.0755
   30SAPC   H9X 4059   1.681   4.171   7.618  0.6482  0.3835  0.0882
   30SAPC   H9Y 4060   1.554   4.273   7.574  0.5986 -3.5057  0.2824
   30SAPC  C310 4061   1.678   4.365   7.721 -0.5335 -0.1753  0.4921
   30SAPC  H10X 4062   1.591   4.335   7.784 -1.3581 -0.5467 -0.7768
   30SAPC  H10Y 4063   1.652   4.470   7.694  0.7998  0.2776  0.8818
   30SAPC  C311 4064   1.811   4.344   7.799 -0.1189 -0.8968  0.8069
   30SAPC  H11X 4065   1.809   4.420   7.880 -0.4974  0.5229 -0.4733
   30SAPC  H11Y 4066   1.894   4.363   7.727  1.0958 -1.1966  2.0856
   30SAPC  C312 4067   1.834   4.206   7.858 -0.0640 -0.2519 -0.7372
   30SAPC  H12X 4068   1.825   4.126   7.782 -1.5903  0.2422 -1.1188
   30SAPC  H12Y 4069   1.760   4.182   7.937 -0.7478  0.5224 -1.1253
   30SAPC  C313 4070   1.973   4.190   7.923 -0.4514  0.6154 -0.1040
   30SAPC  H13X 4071   2.052   4.252   7.875  1.2263  0.9861  2.8369
   30SAPC  H13Y 4072   2.007   4.085   7.912  1.8758  1.2288  0.6578
   30SAPC  C314 4073   1.981   4.227   8.066  1.3289 -0.2446 -0.3175
   30SAPC  H14X 4074   1.915   4.153   8.116  2.5925 -0.7246  0.6932
   30SAPC  H14Y 4075   1.946   4.328   8.096 -1.5367 -1.9363  2.5806
   30SAPC  C315 4076   2.126   4.205   8.117 -0.0278  0.4521 -1.1825
   30SAPC  H15X 4077   2.196   4.263   8.054 -1.1812  1.5251 -1.5173
   30SAPC  H15Y 4078   2.169   4.103   8.113  3.4377  1.5595  2.2223
   30SAPC  C316 4079   2.138   4.238   8.267  0.0978 -0.1676  0.1271
   30SAPC  H16X 4080   2.048   4.198   8.319  0.2431 -2.3179 -1.1545
   30SAPC  H16Y 4081   2.112   4.346   8.275 -2.2041 -0.5526 -1.2425
   30SAPC  C317 4082   2.260   4.187   8.339  0.0738  0.0433  0.2280
   30SAPC  H17X 4083   2.324   4.275   8.362 -1.7669  0.9939  2.0663
   30SAPC  H17Y 4084   2.313   4.128   8.261 -2.8189 -1.2763 -0.8898
   30SAPC  C318 4085   2.248   4.097   8.462 -0.2549 -0.2612  0.4456
   30SAPC  H18X 4086   2.347   4.095   8.514 -0.0115 -0.7212 -0.0278
   30SAPC  H18Y 4087   2.212   3.994   8.441 -0.5209 -0.3229  1.1960
   30SAPC  H18Z 4088   2.173   4.143   8.530 -0.1070  2.3391 -0.9945
   31SAPC     N 4089   3.077   3.704   6.022  0.3820 -0.0454  0.4005
   31SAPC   C12 4090   2.995   3.785   6.123  0.5948  0.1615  0.5058
   31SAPC  H12A 4091   2.961   3.722   6.204  2.3659 -1.6309 -0.0631
   31SAPC  H12B 4092   2.910   3.804   6.060 -0.4077 -0.4544  1.6299
   31SAPC   C13 4093   3.002   3.578   5.994 -0.5226 -0.5963  0.4211
   31SAPC  H13A 4094   2.992   3.516   6.082  0.6303 -0.6199  0.5475
   31SAPC  H13B 4095   2.901   3.604   5.963  0.5703  2.5021 -0.9323
   31SAPC  H13C 4096   3.040   3.519   5.912 -0.8748  1.0657 -1.0078
   31SAPC   C14 4097   3.082   3.769   5.887 -0.1587  0.4895  0.0344
   31SAPC  H14A 4098   3.162   3.719   5.834 -0.2663  1.1400 -0.7621
   31SAPC  H14B 4099   2.988   3.760   5.834 -0.7007 -0.3833  1.0867
   31SAPC  H14C 4100   3.119   3.870   5.899  1.5082 -0.2078  1.1876
   31SAPC   C15 4101   3.214   3.672   6.062  0.1789  0.5693 -0.2557
   31SAPC  H15A 4102   3.209   3.615   6.154  1.7875  0.9417  0.0993
   31SAPC  H15B 4103   3.276   3.631   5.985  1.6283 -0.9475  1.6122
   31SAPC  H15C 4104   3.263   3.766   6.085  0.1570  0.2810  1.0368
   31SAPC   C11 4105   3.058   3.912   6.171 -0.8969  0.2496  0.1829
   31SAPC  H11A 4106   3.165   3.898   6.197 -0.3158  3.2705 -0.2717
   31SAPC  H11B 4107   3.008   3.954   6.260 -1.2672 -0.4821  0.3349
   31SAPC     P 4108   3.139   4.135   6.057  0.3908 -0.1213  0.3709
   31SAPC   O13 4109   3.266   4.093   5.998  0.0772 -0.0247 -0.0932
   31SAPC   O14 4110   3.068   4.245   5.985  0.1575  0.4276 -0.3459
   31SAPC   O12 4111   3.050   4.004   6.062  0.5235  0.2012 -0.0420
   31SAPC   O11 4112   3.155   4.177   6.204  0.4440 -0.6412  0.1247
   31SAPC    C1 4113   3.046   4.247   6.270  0.3479  0.2567  0.5090
   31SAPC    HA 4114   2.949   4.238   6.217 -0.1627 -4.1669  1.7856
   31SAPC    HB 4115   3.018   4.188   6.359 -0.5878  1.1955  0.8584
   31SAPC    C2 4116   3.086   4.390   6.303  0.0871 -0.6574  0.8607
   31SAPC    HS 4117   3.148   4.433   6.222  0.0397 -1.1346  0.5654
   31SAPC   O21 4118   3.154   4.393   6.426 -0.1540 -0.1947 -0.0909
   31SAPC   C21 4119   3.234   4.494   6.443 -0.6334  0.0859 -0.1525
   31SAPC   O22 4120   3.288   4.559   6.353 -0.5193  0.2576 -0.1658
   31SAPC   C22 4121   3.261   4.507   6.592 -1.3960 -0.1544 -0.6684
   31SAPC   H2R 4122   3.192   4.586   6.630 -2.5409 -0.8205 -1.3223
   31SAPC   H2S 4123   3.243   4.408   6.640  2.0891 -0.2361  0.8116
   31SAPC    C3 4124   2.952   4.468   6.317  0.1875 -0.4142  0.3106
   31SAPC    HX 4125   2.901   4.455   6.219 -0.1527  0.5197  0.3563
   31SAPC    HY 4126   2.971   4.576   6.330  0.7544 -0.0286 -2.8312
   31SAPC   O31 4127   2.871   4.412   6.422  0.1469 -0.4607 -0.1104
   31SAPC   C31 4128   2.888   4.455   6.544 -0.3860 -0.9404 -0.5023
   31SAPC   O32 4129   2.949   4.559   6.574 -0.2736 -0.3811  0.6404
   31SAPC   C32 4130   2.836   4.353   6.642 -0.0575 -0.7127 -0.6173
   31SAPC   H2X 4131   2.877   4.251   6.627  0.2102 -0.8209  0.6905
   31SAPC   H2Y 4132   2.725   4.355   6.635 -0.0152  1.0080 -1.3962
   31SAPC   C23 4133   3.405   4.549   6.636 -0.2319 -0.3602  0.2134
   31SAPC   H3R 4134   3.439   4.637   6.577  0.4767 -1.9961 -1.9696
   31SAPC   H3S 4135   3.471   4.462   6.615  2.3705  1.6097 -0.1429
   31SAPC   C24 4136   3.420   4.582   6.783 -0.5968  0.2975 -0.2534
   31SAPC   H4R 4137   3.380   4.491   6.832 -0.3594  1.2782  1.8892
   31SAPC   H4S 4138   3.360   4.671   6.813 -0.4375  0.4124 -0.2758
   31SAPC   C25 4139   3.567   4.603   6.808 -0.3350 -0.2586  0.4413
   31SAPC   H5R 4140   3.595   4.708   6.789  1.8113 -0.7487  0.5821
   31SAPC   C26 4141   3.665   4.522   6.857  0.8945  0.1490 -0.0163
   31SAPC   H6R 4142   3.765   4.567   6.866  1.4770 -0.9638 -0.6507
   31SAPC   C27 4143   3.644   4.383   6.918 -0.2391  0.0790 -0.3442
   31SAPC   H7R 4144   3.731   4.318   6.893  1.7766  1.4560  2.4687
   31SAPC   H7S 4145   3.550   4.340   6.878  0.1254 -2.2492  1.1771
   31SAPC   C28 4146   3.624   4.399   7.064 -0.7711  0.4494 -0.4105
   31SAPC   H8R 4147   3.517   4.407   7.089 -1.0035 -1.4099 -0.6876
   31SAPC   C29 4148   3.723   4.387   7.156 -0.5104  0.0000  0.6372
   31SAPC   H9R 4149   3.698   4.399   7.263 -1.7863 -1.5116  0.5504
   31SAPC  C210 4150   3.869   4.364   7.123  0.8227  0.0049  0.1529
   31SAPC  H10R 4151   3.938   4.422   7.188 -1.5799  3.1853  0.1290
   31SAPC  H10S 4152   3.899   4.407   7.025  1.5128 -1.2589 -0.2114
   31SAPC  C211 4153   3.894   4.217   7.111 -0.4349  0.0496 -0.6239
   31SAPC  H11R 4154   3.826   4.159   7.047  1.0821 -2.7296  0.1123
   31SAPC  C212 4155   3.974   4.148   7.194  0.2231  0.3145  0.0938
   31SAPC  H12R 4156   3.974   4.038   7.185  0.0328  0.0966  2.3320
   31SAPC  C213 4157   4.059   4.195   7.308  0.4184 -0.7657  0.0543
   31SAPC  H13R 4158   4.097   4.299   7.298 -3.6780  0.9344  0.1464
   31SAPC  H13S 4159   4.155   4.140   7.309  0.6573 -0.3416  0.4554
   31SAPC  C214 4160   3.989   4.178   7.443  0.3131  0.1029 -0.5059
   31SAPC  H14R 4161   3.885   4.143   7.439  0.1186  0.6470 -0.3003
   31SAPC  C215 4162   4.054   4.204   7.561 -0.0339  0.0132 -0.0460
   31SAPC  H15R 4163   4.004   4.179   7.656  0.2297  1.5150  0.5172
   31SAPC  C216 4164   4.188   4.253   7.570  0.0337 -0.0583  0.1966
   31SAPC  H16R 4165   4.187   4.354   7.615  1.8081 -0.3547  0.9681
   31SAPC  H16S 4166   4.231   4.283   7.472 -1.2701  1.0465 -0.0691
   31SAPC  C217 4167   4.291   4.168   7.638  0.3193 -0.3191 -0.4610
   31SAPC  H17R 4168   4.391   4.213   7.628  0.2369 -0.2090 -0.7831
   31SAPC  H17S 4169   4.301   4.075   7.577  0.8520 -1.9048  1.8882
   31SAPC  C218 4170   4.262   4.136   7.783  0.2090  0.0634  0.0585
   31SAPC  H18R 4171   4.155   4.140   7.812  0.5661  0.4430  1.4178
   31SAPC  H18S 4172   4.321   4.199   7.854 -0.6862 -0.1952  1.0519
   31SAPC  C219 4173   4.313   3.994   7.827 -0.0988  0.0162  0.1956
   31SAPC  H19R 4174   4.385   3.955   7.752 -1.4310 -1.8063 -0.2423
   31SAPC  H19S 4175   4.233   3.917   7.839 -0.5900  0.5601  0.4628
   31SAPC  C220 4176   4.385   3.999   7.955 -0.9491  0.2939 -0.6308
   31SAPC  H20R 4177   4.469   4.072   7.954  0.0519 -0.8253 -0.0401
   31SAPC  H20S 4178   4.430   3.898   7.966  1.7745  1.4021 -0.8650
   31SAPC  H20T 4179   4.313   4.026   8.036 -1.6432  0.5607 -1.3275
   31SAPC   C33 4180   2.871   4.401   6.789 -0.1480 -0.5312  0.1131
   31SAPC   H3X 4181   2.832   4.502   6.812 -0.6039 -0.9278  1.1390
   31SAPC   H3Y 4182   2.981   4.416   6.789 -0.5190  2.9645  0.0140
   31SAPC   C34 4183   2.846   4.292   6.899  0.4722  0.4246  0.3414
   31SAPC   H4X 4184   2.914   4.208   6.874  0.5613  1.3822 -3.1770
   31SAPC   H4Y 4185   2.740   4.262   6.883  0.6279  0.9287 -1.9397
   31SAPC   C35 4186   2.865   4.345   7.037 -0.0464 -0.3431 -0.3008
   31SAPC   H5X 4187   2.828   4.448   7.054  0.1455 -0.3177 -0.0264
   31SAPC   H5Y 4188   2.976   4.338   7.047 -0.1531 -1.7934  0.0667
   31SAPC   C36 4189   2.802   4.243   7.138 -0.0688 -0.0630  0.2193
   31SAPC   H6X 4190   2.813   4.135   7.116  0.8999  0.4142 -1.8642
   31SAPC   H6Y 4191   2.699   4.274   7.166  0.6060 -0.6643  3.9935
   31SAPC   C37 4192   2.879   4.261   7.271 -0.4021  0.2300 -0.4825
   31SAPC   H7X 4193   2.890   4.371   7.287 -0.2904  0.2509 -0.6982
   31SAPC   H7Y 4194   2.983   4.225   7.257  0.3047  1.2190  1.7924
   31SAPC   C38 4195   2.797   4.202   7.390  0.2370  0.5892  0.3086
   31SAPC   H8X 4196   2.773   4.096   7.367 -2.0021  0.9709  0.6587
   31SAPC   H8Y 4197   2.698   4.252   7.379 -1.7381 -2.9630  0.2503
   31SAPC   C39 4198   2.863   4.214   7.529  0.1828 -0.4863  0.3477
   31SAPC   H9X 4199   2.860   4.323   7.549 -0.7616 -0.4551  0.0613
   31SAPC   H9Y 4200   2.971   4.186   7.533  0.7247  1.4833  1.5776
   31SAPC  C310 4201   2.792   4.139   7.644 -0.5644 -0.4838 -0.2829
   31SAPC  H10X 4202   2.814   4.031   7.628 -0.6283 -0.3384 -1.5201
   31SAPC  H10Y 4203   2.681   4.142   7.638 -0.6332 -1.8239  0.0511
   31SAPC  C311 4204   2.848   4.186   7.780 -0.9844 -0.0862 -0.0700
   31SAPC  H11X 4205   2.821   4.294   7.788 -0.8711 -0.1061  0.6516
   31SAPC  H11Y 4206   2.959   4.194   7.780 -1.0254  1.3804 -2.2929
   31SAPC  C312 4207   2.819   4.099   7.909 -0.2703  0.4469  0.1219
   31SAPC  H12X 4208   2.840   3.991   7.892 -1.9691  0.3630 -1.7209
   31SAPC  H12Y 4209   2.711   4.105   7.933 -0.3701 -1.4418  0.3120
   31SAPC  C313 4210   2.901   4.144   8.031  0.4061  0.1487 -0.2265
   31SAPC  H13X 4211   2.857   4.242   8.060  1.1486  0.0276  1.3984
   31SAPC  H13Y 4212   3.009   4.150   8.006  0.6469  0.2994  0.8078
   31SAPC  C314 4213   2.887   4.044   8.144 -0.2152  0.3106 -0.8811
   31SAPC  H14X 4214   2.938   3.946   8.125  1.1395  0.8413 -0.1626
   31SAPC  H14Y 4215   2.778   4.025   8.154 -0.2473 -1.2375 -3.3384
   31SAPC  C315 4216   2.947   4.098   8.275  0.8639  0.3891  0.9422
   31SAPC  H15X 4217   2.890   4.189   8.302 -0.4852 -0.7152  1.9651
   31SAPC  H15Y 4218   3.054   4.125   8.256  0.2976  2.4614  0.4355
   31SAPC  C316 4219   2.922   3.996   8.389 -0.4994  0.1038 -0.1669
   31SAPC  H16X 4220   2.949   3.896   8.349  0.2171  0.2945 -0.1811
   31SAPC  H16Y 4221   2.814   3.993   8.413  0.3511 -0.2919  4.3740
   31SAPC  C317 4222   3.002   4.030   8.515  0.0196  0.0892 -0.2646
   31SAPC  H17X 4223   2.932   4.081   8.586 -2.2931 -0.4692 -2.0171
   31SAPC  H17Y 4224   3.091   4.094   8.495 -0.2303  0.5921  0.1911
   31SAPC  C318 4225   3.036   3.899   8.592 -0.0538  0.3589 -0.7174
   31SAPC  H18X 4226   3.132   3.859   8.555  0.1392 -0.9893  1.0781
   31SAPC  H18Y 4227   2.947   3.833   8.585 -1.8320  2.0767  2.7080
   31SAPC  H18Z 4228   3.056   3.925   8.699 -0.9544 -2.0226  0.0933
   32SAPC     N 4229   4.977   1.755   5.962  0.3815  0.4759  0.6577
   32SAPC   C12 4230   5.045   1.830   6.070 -0.0537  0.6422 -0.0917
   32SAPC  H12A 4231   5.133   1.873   6.023  0.5533 -0.1500  0.2944
   32SAPC  H12B 4232   5.081   1.764   6.147  1.0264 -0.6378 -1.6189
   32SAPC   C13 4233   4.873   1.662   6.014  0.6726 -0.5060 -0.2697
   32SAPC  H13A 4234   4.785   1.712   6.053  1.2041  0.1037  0.1655
   32SAPC  H13B 4235   4.849   1.577   5.952 -2.3401 -1.4423  1.9449
   32SAPC  H13C 4236   4.912   1.630   6.109  0.3978  1.3230  0.5110
   32SAPC   C14 4237   4.916   1.846   5.859  0.3540 -0.5739 -0.4155
   32SAPC  H14A 4238   4.855   1.787   5.792 -2.8873  1.3312  0.6393
   32SAPC  H14B 4239   4.849   1.917   5.905 -1.0671 -0.4382 -2.5221
   32SAPC  H14C 4240   4.984   1.896   5.791 -0.6132 -0.1868 -1.1334
   32SAPC   C15 4241   5.075   1.665   5.892 -0.1233  0.2895  0.3305
   32SAPC  H15A 4242   5.103   1.579   5.951 -1.7694 -0.2695  0.3373
   32SAPC  H15B 4243   5.038   1.620   5.801  2.3515  0.6800 -0.9550
   32SAPC  H15C 4244   5.162   1.724   5.866 -0.5029  1.2178  1.1104
   32SAPC   C11 4245   4.963   1.935   6.158 -0.4281  0.3943 -0.9079
   32SAPC  H11A 4246   4.894   1.872   6.219  1.0915 -1.1596 -0.7181
   32SAPC  H11B 4247   4.891   2.001   6.106 -0.1184  1.6693  0.2358
   32SAPC     P 4248   5.171   2.093   6.184  0.3823  0.2761 -0.0057
   32SAPC   O13 4249   5.284   2.009   6.142 -0.1791 -0.2908  0.4596
   32SAPC   O14 4250   5.125   2.203   6.094  0.4513  0.0954  0.6318
   32SAPC   O12 4251   5.053   2.010   6.241 -0.1592 -0.1048  0.0070
   32SAPC   O11 4252   5.221   2.169   6.312  0.2801 -0.8060  0.3480
   32SAPC    C1 4253   5.201   2.114   6.443 -0.6708  0.4980  0.8132
   32SAPC    HA 4254   5.226   2.193   6.518 -0.4701  0.3394  0.9143
   32SAPC    HB 4255   5.093   2.092   6.455 -0.5960  0.0972  0.7468
   32SAPC    C2 4256   5.281   1.988   6.474 -0.0325  0.7166 -0.3469
   32SAPC    HS 4257   5.316   1.939   6.380 -0.0387 -1.6762  0.8407
   32SAPC   O21 4258   5.187   1.894   6.531 -0.6535 -0.1296  0.1525
   32SAPC   C21 4259   5.232   1.781   6.592  0.9347 -0.0723 -0.3374
   32SAPC   O22 4260   5.342   1.735   6.589 -0.0420  0.0483  0.4419
   32SAPC   C22 4261   5.110   1.723   6.672  0.4350 -0.3326 -0.1953
   32SAPC   H2R 4262   5.037   1.692   6.594  1.7420 -0.1300 -1.5487
   32SAPC   H2S 4263   5.147   1.632   6.723  0.0782 -1.3457 -1.6828
   32SAPC    C3 4264   5.416   2.017   6.543 -0.2404 -0.3485 -0.2886
   32SAPC    HX 4265   5.464   2.093   6.478 -0.9717  0.7140  0.3768
   32SAPC    HY 4266   5.482   1.929   6.549 -1.1781 -1.0664 -0.2623
   32SAPC   O31 4267   5.391   2.082   6.673 -0.4551  0.5852 -0.1807
   32SAPC   C31 4268   5.490   2.167   6.712 -0.5955  0.2365 -0.2564
   32SAPC   O32 4269   5.599   2.177   6.660  0.4136  0.2742  0.1525
   32SAPC   C32 4270   5.447   2.232   6.837 -0.2292  0.3254 -0.0518
   32SAPC   H2X 4271   5.346   2.274   6.816 -0.6517 -1.4393 -1.8363
   32SAPC   H2Y 4272   5.511   2.323   6.848  1.3092 -0.5746 -1.1356
   32SAPC   C23 4273   5.044   1.828   6.772 -0.3954  0.8887  0.6542
   32SAPC   H3R 4274   4.944   1.785   6.797 -1.4010  0.1267 -3.7805
   32SAPC   H3S 4275   5.037   1.925   6.719  2.1545 -0.2189 -1.9597
   32SAPC   C24 4276   5.133   1.848   6.899 -0.3314  0.5660  0.2709
   32SAPC   H4R 4277   5.225   1.892   6.857  0.7152 -0.0563  1.8106
   32SAPC   H4S 4278   5.163   1.750   6.944  1.0512  0.8489  0.0125
   32SAPC   C25 4279   5.070   1.947   6.988  0.1879 -0.1699  0.0684
   32SAPC   H5R 4280   5.063   2.045   6.937 -0.0077 -1.7597 -3.2290
   32SAPC   C26 4281   5.007   1.917   7.104  0.5526  0.3706 -0.2929
   32SAPC   H6R 4282   4.959   1.994   7.166 -1.4653 -0.1932 -1.0744
   32SAPC   C27 4283   5.008   1.784   7.170 -0.0710  0.6276 -0.3097
   32SAPC   H7R 4284   5.040   1.706   7.097 -0.2831  2.6968 -2.7825
   32SAPC   H7S 4285   4.900   1.765   7.189 -0.5802  3.3088 -0.1163
   32SAPC   C28 4286   5.107   1.777   7.293  0.5827 -0.4416  0.2014
   32SAPC   H8R 4287   5.209   1.807   7.268  0.3452 -0.3906 -0.7466
   32SAPC   C29 4288   5.074   1.733   7.417  1.1863 -0.1079  0.2613
   32SAPC   H9R 4289   5.155   1.720   7.490  0.5481 -1.4252  0.7609
   32SAPC  C210 4290   4.936   1.699   7.475 -0.3983 -0.0554  0.7062
   32SAPC  H10R 4291   4.854   1.764   7.437  0.2609  0.9393  0.9466
   32SAPC  H10S 4292   4.929   1.744   7.576 -2.3162  1.5845 -0.0795
   32SAPC  C211 4293   4.895   1.554   7.469  0.0858 -0.0017  0.4181
   32SAPC  H11R 4294   4.952   1.497   7.395  1.2629  2.6904 -0.8985
   32SAPC  C212 4295   4.814   1.489   7.558  0.4456  0.2564  0.3534
   32SAPC  H12R 4296   4.793   1.388   7.522  2.3753  0.1314 -0.5591
   32SAPC  C213 4297   4.732   1.542   7.674  0.0981  0.0925  0.2039
   32SAPC  H13R 4298   4.627   1.516   7.647  1.0034 -2.7411 -1.0186
   32SAPC  H13S 4299   4.727   1.652   7.684  0.2292  0.1988 -0.7926
   32SAPC  C214 4300   4.788   1.491   7.804  0.3767  0.1978  0.4443
   32SAPC  H14R 4301   4.887   1.536   7.820  1.0152 -0.6249 -0.9872
   32SAPC  C215 4302   4.730   1.416   7.891  0.6322  0.1124 -0.4726
   32SAPC  H15R 4303   4.779   1.394   7.987 -1.1165  1.2451  0.7476
   32SAPC  C216 4304   4.592   1.357   7.887  0.5277  0.1692  0.3632
   32SAPC  H16R 4305   4.597   1.249   7.913  1.9915 -0.2344 -1.3990
   32SAPC  H16S 4306   4.560   1.358   7.781 -0.0005 -0.1521  0.5145
   32SAPC  C217 4307   4.489   1.413   7.981  0.5338  0.2244 -0.2903
   32SAPC  H17R 4308   4.384   1.381   7.964  0.9808 -0.2748 -2.2636
   32SAPC  H17S 4309   4.473   1.523   7.975 -1.1577  0.0203 -0.2382
   32SAPC  C218 4310   4.507   1.395   8.134  0.1931 -0.2066  0.8523
   32SAPC  H18R 4311   4.604   1.446   8.154  1.3356 -1.9346 -0.0027
   32SAPC  H18S 4312   4.523   1.288   8.159  2.7549 -0.0312  0.2516
   32SAPC  C219 4313   4.391   1.447   8.218 -0.4057  0.3471 -0.2186
   32SAPC  H19R 4314   4.308   1.375   8.204  0.5487 -0.6296 -0.9790
   32SAPC  H19S 4315   4.384   1.552   8.182  0.4205  0.3840 -0.2883
   32SAPC  C220 4316   4.429   1.440   8.368  0.2326  0.5544 -0.0037
   32SAPC  H20R 4317   4.497   1.522   8.401  2.5538 -1.5792  0.8300
   32SAPC  H20S 4318   4.480   1.343   8.388 -1.0915 -0.2596 -0.4650
   32SAPC  H20T 4319   4.341   1.440   8.435  0.1472 -2.0489 -0.0378
   32SAPC   C33 4320   5.433   2.150   6.963  0.1047 -0.4151  0.5434
   32SAPC   H3X 4321   5.532   2.114   6.999  1.0354  0.0556 -1.3784
   32SAPC   H3Y 4322   5.373   2.060   6.938  0.1451 -0.2797 -0.0769
   32SAPC   C34 4323   5.354   2.233   7.062 -0.1352 -0.2258  0.7186
   32SAPC   H4X 4324   5.248   2.242   7.031  0.5953 -1.4909 -2.4712
   32SAPC   H4Y 4325   5.395   2.337   7.063  1.4693 -0.7970 -0.8606
   32SAPC   C35 4326   5.351   2.176   7.203  0.2088  0.8224 -0.9718
   32SAPC   H5X 4327   5.445   2.208   7.253 -0.1769 -0.2754  0.5307
   32SAPC   H5Y 4328   5.353   2.065   7.199  2.1875  0.7255  0.8042
   32SAPC   C36 4329   5.230   2.237   7.281  1.0242 -0.1599 -0.1816
   32SAPC   H6X 4330   5.137   2.221   7.223  0.0777  0.3853  1.1423
   32SAPC   H6Y 4331   5.240   2.347   7.292 -0.6170 -0.0439  0.4606
   32SAPC   C37 4332   5.213   2.177   7.416  0.0669 -0.3683 -0.2864
   32SAPC   H7X 4333   5.310   2.173   7.470 -0.7172  1.4428  1.4152
   32SAPC   H7Y 4334   5.176   2.072   7.410 -1.6809  0.1353  0.8086
   32SAPC   C38 4335   5.118   2.265   7.500 -0.3327  0.4915 -0.0269
   32SAPC   H8X 4336   5.026   2.289   7.443 -0.0722  1.8185  0.0747
   32SAPC   H8Y 4337   5.178   2.355   7.528  0.1948 -0.4235  1.9930
   32SAPC   C39 4338   5.093   2.193   7.632 -0.0848 -0.8287  0.5710
   32SAPC   H9X 4339   5.192   2.159   7.668  0.6978 -2.7212 -2.9192
   32SAPC   H9Y 4340   5.032   2.105   7.601 -0.4689 -0.0050 -1.1531
   32SAPC  C310 4341   5.026   2.275   7.729  0.2521 -0.1249 -0.0573
   32SAPC  H10X 4342   4.927   2.312   7.696 -1.0755 -1.3482  2.2801
   32SAPC  H10Y 4343   5.090   2.366   7.731  1.5611 -1.0109 -0.5522
   32SAPC  C311 4344   5.009   2.198   7.860  0.2532 -0.0432 -0.0953
   32SAPC  H11X 4345   5.108   2.149   7.871  1.3267  1.4562 -2.3219
   32SAPC  H11Y 4346   4.944   2.109   7.847 -0.4836  0.6072 -0.9670
   32SAPC  C312 4347   4.964   2.278   7.978 -0.5354 -0.1502 -0.1569
   32SAPC  H12X 4348   4.856   2.304   7.973 -1.1869 -2.2969  1.4443
   32SAPC  H12Y 4349   5.020   2.373   7.984 -3.0861  1.5563 -1.4798
   32SAPC  C313 4350   4.997   2.189   8.106 -0.3030  0.0102 -0.0723
   32SAPC  H13X 4351   5.100   2.148   8.104  0.1604  1.0204  1.2292
   32SAPC  H13Y 4352   4.930   2.101   8.103  2.6076 -2.3057 -1.2366
   32SAPC  C314 4353   4.974   2.271   8.235  0.1273 -0.6495 -0.5527
   32SAPC  H14X 4354   4.870   2.312   8.234 -0.0012 -0.8865  0.7877
   32SAPC  H14Y 4355   5.042   2.359   8.237 -2.5077  1.5376 -0.0827
   32SAPC  C315 4356   4.987   2.198   8.373 -1.0315  0.2263  1.1382
   32SAPC  H15X 4357   5.082   2.139   8.369 -0.4519  1.1051  1.6300
   32SAPC  H15Y 4358   4.899   2.131   8.378 -0.2351 -1.2106 -1.6346
   32SAPC  C316 4359   4.979   2.276   8.504  0.0363  0.0209  0.7097
   32SAPC  H16X 4360   4.986   2.195   8.580 -1.6546 -0.0255  0.8471
   32SAPC  H16Y 4361   4.882   2.329   8.516 -0.0211  1.0835 -3.1072
   32SAPC  C317 4362   5.082   2.380   8.535  0.1171  0.9149 -0.1164
   32SAPC  H17X 4363   5.050   2.471   8.480  0.5011 -0.4320 -2.6940
   32SAPC  H17Y 4364   5.178   2.352   8.486 -0.2711 -0.3194 -0.1954
   32SAPC  C318 4365   5.106   2.406   8.680 -0.5524  0.5279 -0.7475
   32SAPC  H18X 4366   5.185   2.483   8.688  0.4754 -0.2256 -2.8385
   32SAPC  H18Y 4367   5.148   2.315   8.729  1.2427 -0.2959 -3.5756
   32SAPC  H18Z 4368   5.020   2.440   8.742  1.7683  2.9280  1.3635
   33POPC     N 4369   3.766   2.335  10.983  0.5929 -0.2066  0.1551
   33POPC   C12 4370   3.685   2.339  10.858  0.1925 -0.7652  0.0712
   33POPC  H12A 4371   3.589   2.376  10.890 -0.8756 -3.4086  0.2182
   33POPC  H12B 4372   3.668   2.240  10.817  2.1902 -1.2172  0.2336
   33POPC   C13 4373   3.703   2.240  11.079 -0.4285 -1.0688  0.0793
   33POPC  H13A 4374   3.751   2.232  11.176 -2.3745  0.9936  1.3220
   33POPC  H13B 4375   3.603   2.272  11.106  0.2862 -0.2915  1.9995
   33POPC  H13C 4376   3.695   2.146  11.028  1.7519 -0.3977 -1.6804
   33POPC   C14 4377   3.903   2.290  10.953 -0.3818 -0.5170  0.0177
   33POPC  H14A 4378   3.959   2.356  10.889 -1.6931  1.1305  0.4819
   33POPC  H14B 4379   3.963   2.279  11.042 -0.8830 -1.1126  0.2904
   33POPC  H14C 4380   3.896   2.196  10.900 -1.6922 -0.3395 -0.1594
   33POPC   C15 4381   3.775   2.470  11.052  0.2534 -0.2544  0.3060
   33POPC  H15A 4382   3.788   2.547  10.978  0.4551  0.6313  1.2475
   33POPC  H15B 4383   3.851   2.480  11.128 -0.7417 -1.2280  1.4907
   33POPC  H15C 4384   3.680   2.489  11.100  0.7218 -0.1996  1.2428
   33POPC   C11 4385   3.734   2.428  10.747 -0.3902 -0.6241  0.4207
   33POPC  H11A 4386   3.672   2.407  10.657 -0.6184  1.1431  0.1126
   33POPC  H11B 4387   3.842   2.405  10.733 -0.1469  0.2818  0.6944
   33POPC     P 4388   3.574   2.638  10.754 -0.0701 -0.3074 -0.1105
   33POPC   O13 4389   3.582   2.780  10.788  0.1655 -0.2625  0.2948
   33POPC   O14 4390   3.471   2.566  10.832 -0.2794  0.4385  0.1046
   33POPC   O12 4391   3.713   2.566  10.777 -0.2238  0.3053  0.2597
   33POPC   O11 4392   3.547   2.632  10.598 -0.2305 -0.2254 -0.3773
   33POPC    C1 4393   3.664   2.662  10.512 -0.6560 -0.7557 -0.2203
   33POPC    HA 4394   3.656   2.771  10.493 -2.4605 -0.8580 -0.1546
   33POPC    HB 4395   3.764   2.641  10.557 -0.7727 -0.9663 -0.0595
   33POPC    C2 4396   3.650   2.589  10.380 -0.2758  0.8082 -0.1480
   33POPC    HS 4397   3.546   2.584  10.343 -0.0835  1.7788 -0.8499
   33POPC   O21 4398   3.707   2.452  10.397 -0.1126 -0.4352  0.2171
   33POPC   C21 4399   3.633   2.349  10.352 -0.1728 -0.2716  0.1091
   33POPC   O22 4400   3.519   2.360  10.313 -0.1948  0.2512 -0.5684
   33POPC   C22 4401   3.711   2.219  10.377 -0.0721 -0.6872  0.9656
   33POPC   H2R 4402   3.694   2.178  10.478  2.1518 -3.8182  0.2197
   33POPC   H2S 4403   3.819   2.241  10.369  0.6718 -4.2851 -0.9104
   33POPC    C3 4404   3.715   2.665  10.258  0.0634  0.4204  0.3843
   33POPC    HX 4405   3.820   2.696  10.272  0.0973  1.4115 -1.6105
   33POPC    HY 4406   3.660   2.761  10.252 -4.2952 -1.7932  0.5372
   33POPC   O31 4407   3.697   2.575  10.143 -0.2959 -0.6334  0.2352
   33POPC   C31 4408   3.668   2.640  10.035 -0.0409 -0.8521  0.1353
   33POPC   O32 4409   3.675   2.762  10.017 -0.1350 -0.2348  0.4463
   33POPC   C32 4410   3.641   2.544   9.918  0.5265  0.5088  0.0306
   33POPC   H2X 4411   3.538   2.505   9.932  0.6645  0.4497  0.9232
   33POPC   H2Y 4412   3.711   2.457   9.923 -3.1150 -2.5942  2.7021
   33POPC   C23 4413   3.675   2.118  10.263 -0.0666 -0.0957  0.1394
   33POPC   H3R 4414   3.573   2.073  10.266  0.9814 -2.7974  4.3873
   33POPC   H3S 4415   3.751   2.038  10.274  0.5148  0.4655  0.2740
   33POPC   C24 4416   3.699   2.173  10.118 -0.2339 -0.4526  0.3110
   33POPC   H4R 4417   3.806   2.204  10.107 -0.6001  0.5556 -0.5151
   33POPC   H4S 4418   3.640   2.263  10.090 -0.1947  0.1846  2.1019
   33POPC   C25 4419   3.687   2.064  10.010 -0.0686 -0.6595  0.1919
   33POPC   H5R 4420   3.583   2.033   9.984 -0.3825  0.9858 -0.6613
   33POPC   H5S 4421   3.755   1.987  10.050  1.9217  0.1318 -1.4945
   33POPC   C26 4422   3.737   2.107   9.870  0.1920 -0.1184 -0.7564
   33POPC   H6R 4423   3.826   2.171   9.886 -1.1929  1.8469 -0.5300
   33POPC   H6S 4424   3.658   2.167   9.820  1.4324 -0.0337 -2.6847
   33POPC   C27 4425   3.748   1.989   9.770  0.2302  0.3844  0.2675
   33POPC   H7R 4426   3.647   1.950   9.748 -0.0163  0.7811  0.6811
   33POPC   H7S 4427   3.813   1.912   9.817  0.5065  0.4753  0.0353
   33POPC   C28 4428   3.821   2.023   9.634 -0.0541  0.1977  0.5839
   33POPC   H8R 4429   3.833   1.927   9.579 -2.3385  1.6009 -2.6497
   33POPC   H8S 4430   3.919   2.066   9.662  0.0299  0.8950 -0.7019
   33POPC   C29 4431   3.743   2.117   9.547  0.8323 -0.3339 -0.3144
   33POPC   H91 4432   3.722   2.216   9.591 -1.8733  0.7736 -3.6758
   33POPC  C210 4433   3.696   2.105   9.420 -0.3363 -0.1235  0.3515
   33POPC  H101 4434   3.642   2.192   9.379  0.8911 -0.2019 -1.5635
   33POPC  C211 4435   3.700   1.991   9.318 -0.1544 -0.2208  0.3690
   33POPC  H11R 4436   3.714   1.899   9.378 -2.1031  0.1869  1.5281
   33POPC  H11S 4437   3.780   2.015   9.244 -0.1226 -1.7471 -0.1268
   33POPC  C212 4438   3.566   1.972   9.254  0.2458  0.5094 -0.2449
   33POPC  H12R 4439   3.552   2.066   9.196 -1.8791 -0.2138 -1.0106
   33POPC  H12S 4440   3.496   1.947   9.336  0.9760 -0.6744  0.0375
   33POPC  C213 4441   3.566   1.866   9.138  0.4955 -0.2116 -0.0205
   33POPC  H13R 4442   3.470   1.872   9.082 -0.0117 -1.5572  0.6738
   33POPC  H13S 4443   3.578   1.773   9.197  1.3290 -0.5384 -0.6838
   33POPC  C214 4444   3.691   1.860   9.046  0.6293 -0.1002 -0.3114
   33POPC  H14R 4445   3.782   1.847   9.109  1.5268  1.8425 -1.0915
   33POPC  H14S 4446   3.693   1.958   8.993  1.8594 -1.1123 -2.2693
   33POPC  C215 4447   3.683   1.758   8.933 -0.1037 -0.2901  0.9214
   33POPC  H15R 4448   3.578   1.756   8.895  0.7532 -1.3266 -1.5384
   33POPC  H15S 4449   3.697   1.655   8.972 -1.1054 -1.1518 -0.8745
   33POPC  C216 4450   3.772   1.783   8.819 -0.2169 -0.2873 -0.1196
   33POPC  H16R 4451   3.782   1.689   8.761 -0.3580  0.7446 -1.8893
   33POPC  H16S 4452   3.868   1.832   8.845 -1.4856  3.8130 -2.2695
   33POPC  C217 4453   3.700   1.886   8.719 -0.0362 -0.1356  0.2917
   33POPC  H17R 4454   3.786   1.925   8.662 -0.1129 -0.6556 -0.1841
   33POPC  H17S 4455   3.642   1.962   8.776  0.7688  0.7307 -0.0361
   33POPC  C218 4456   3.610   1.809   8.630 -0.0504  0.1138  0.1190
   33POPC  H18R 4457   3.656   1.718   8.586  0.9529  0.9842 -0.6727
   33POPC  H18S 4458   3.568   1.871   8.549 -1.8167 -1.0119  0.1078
   33POPC  H18T 4459   3.522   1.776   8.690  0.4935 -0.4379  0.6300
   33POPC   C33 4460   3.636   2.612   9.778 -0.3805  0.1488 -0.0069
   33POPC   H3X 4461   3.743   2.641   9.762 -0.5441  0.0874 -1.3127
   33POPC   H3Y 4462   3.578   2.707   9.779  2.5374  2.1337  2.8919
   33POPC   C34 4463   3.597   2.522   9.659  0.0242  0.5100 -0.7620
   33POPC   H4X 4464   3.493   2.491   9.680  1.0299 -1.5953  1.8469
   33POPC   H4Y 4465   3.645   2.422   9.662 -0.6932  0.0052 -3.6604
   33POPC   C35 4466   3.624   2.596   9.528  0.1599 -0.2801 -0.0757
   33POPC   H5X 4467   3.735   2.600   9.526  0.2018 -0.6465  0.9249
   33POPC   H5Y 4468   3.579   2.698   9.528  2.1802  0.6855 -1.2705
   33POPC   C36 4469   3.567   2.516   9.415 -0.8831 -0.0706  0.1918
   33POPC   H6X 4470   3.459   2.502   9.436 -0.9773 -0.2233 -0.3841
   33POPC   H6Y 4471   3.616   2.416   9.421  0.6233  0.7149  2.8983
   33POPC   C37 4472   3.580   2.584   9.278  0.2363 -0.3216 -0.0226
   33POPC   H7X 4473   3.690   2.574   9.264  0.0369 -0.2668 -1.8414
   33POPC   H7Y 4474   3.546   2.690   9.273  1.3594  0.2744  2.7710
   33POPC   C38 4475   3.516   2.502   9.168  0.5092  0.1088 -0.4355
   33POPC   H8X 4476   3.416   2.472   9.208  1.2189  0.7491  1.9738
   33POPC   H8Y 4477   3.573   2.408   9.154 -1.1589 -0.7615 -1.8541
   33POPC   C39 4478   3.506   2.578   9.038  0.4171 -0.0691  0.4251
   33POPC   H9X 4479   3.602   2.576   8.982  0.3558 -1.5529  0.3430
   33POPC   H9Y 4480   3.488   2.687   9.049 -0.0904  0.1041 -1.7123
   33POPC  C310 4481   3.405   2.519   8.940 -1.3942  0.3189  0.0365
   33POPC  H10X 4482   3.303   2.514   8.983 -1.2195  1.1981  0.5792
   33POPC  H10Y 4483   3.453   2.419   8.926  0.8725  1.4000 -0.3539
   33POPC  C311 4484   3.407   2.599   8.809  0.6028  0.0460 -0.2562
   33POPC  H11X 4485   3.515   2.597   8.782  0.6097  0.6156 -0.2838
   33POPC  H11Y 4486   3.388   2.707   8.827  0.7383 -0.1385  1.1543
   33POPC  C312 4487   3.328   2.549   8.691  0.0540  0.3466 -0.4278
   33POPC  H12X 4488   3.362   2.587   8.592  0.7792  1.1834  0.1253
   33POPC  H12Y 4489   3.224   2.580   8.712  0.5186  1.5275  0.2498
   33POPC  C313 4490   3.335   2.395   8.672  0.2665 -0.0511 -1.4067
   33POPC  H13X 4491   3.254   2.360   8.604 -1.8908  0.9383  0.5350
   33POPC  H13Y 4492   3.293   2.345   8.761 -2.5304 -0.1795 -2.6802
   33POPC  C314 4493   3.469   2.322   8.636 -0.4393  0.4457  0.9246
   33POPC  H14X 4494   3.444   2.217   8.612 -0.5187  1.0961 -2.2844
   33POPC  H14Y 4495   3.529   2.325   8.730 -0.5509 -1.5613  1.1079
   33POPC  C315 4496   3.559   2.384   8.524  0.0848  0.9941 -1.1643
   33POPC  H15X 4497   3.592   2.482   8.564  0.2119  0.7055 -0.5452
   33POPC  H15Y 4498   3.502   2.397   8.430 -0.4383 -0.7752 -1.1309
   33POPC  C316 4499   3.688   2.305   8.498 -0.1465  0.2299  1.0839
   33POPC  H16X 4500   3.687   2.213   8.435  0.8554  3.1719 -3.7559
   33POPC  H16Y 4501   3.731   2.272   8.594  2.0837 -2.6390 -0.7433
   33POPC  H16Z 4502   3.759   2.373   8.447 -2.0013  2.0154  0.7158
   34POPC     N 4503   1.992   5.526  10.862 -0.0973 -0.5424  0.1452
   34POPC   C12 4504   2.041   5.402  10.805  0.6894  0.5685  0.2568
   34POPC  H12A 4505   1.955   5.339  10.787  0.1624  0.6441  2.3360
   34POPC  H12B 4506   2.114   5.350  10.866 -1.7708 -4.4036 -0.4845
   34POPC   C13 4507   1.911   5.486  10.980 -0.0292  0.0595  0.7764
   34POPC  H13A 4508   1.872   5.573  11.030 -1.6813  1.2751 -2.3414
   34POPC  H13B 4509   1.838   5.416  10.942 -1.4567  2.3686 -1.0178
   34POPC  H13C 4510   1.977   5.437  11.050 -0.4037 -2.3859 -0.4769
   34POPC   C14 4511   2.107   5.619  10.900  0.2809  0.6084 -1.1355
   34POPC  H14A 4512   2.067   5.705  10.952 -1.2610  0.2496 -1.6759
   34POPC  H14B 4513   2.172   5.565  10.966 -0.6662  0.0327 -0.6511
   34POPC  H14C 4514   2.158   5.656  10.812  1.9393  0.2622 -0.3385
   34POPC   C15 4515   1.901   5.598  10.767  0.4167  0.0757  0.2314
   34POPC  H15A 4516   1.948   5.613  10.671  1.2880 -0.4658  0.5643
   34POPC  H15B 4517   1.850   5.687  10.801 -0.8406 -1.2096  1.9162
   34POPC  H15C 4518   1.814   5.537  10.748  0.6783  0.1152 -1.1825
   34POPC   C11 4519   2.107   5.414  10.664  0.3759 -0.5067 -0.1892
   34POPC  H11A 4520   2.035   5.437  10.584  0.5982 -2.4209 -0.9909
   34POPC  H11B 4521   2.139   5.314  10.627 -2.1996 -1.0508 -1.0999
   34POPC     P 4522   2.362   5.475  10.679 -0.4573  0.0011 -0.2856
   34POPC   O13 4523   2.362   5.342  10.741  0.1447 -0.0706 -0.5408
   34POPC   O14 4524   2.437   5.581  10.739 -0.9359  0.2874 -0.5383
   34POPC   O12 4525   2.213   5.518  10.651  0.3306  0.8235  0.0323
   34POPC   O11 4526   2.409   5.438  10.535  0.6822  0.9786 -0.0653
   34POPC    C1 4527   2.406   5.530  10.424  0.7586 -0.0896  0.3127
   34POPC    HA 4528   2.406   5.636  10.457 -1.8570 -0.2060  0.9031
   34POPC    HB 4529   2.309   5.524  10.371 -0.5680 -0.0183  2.5946
   34POPC    C2 4530   2.518   5.514  10.308 -0.0888 -0.3677  0.1911
   34POPC    HS 4531   2.495   5.575  10.218 -1.9951 -1.8571 -0.4015
   34POPC   O21 4532   2.526   5.375  10.271 -1.0667 -0.3869  0.0752
   34POPC   C21 4533   2.435   5.332  10.175 -0.9067  0.5263  0.0116
   34POPC   O22 4534   2.343   5.394  10.129 -0.2240 -0.4059 -1.0370
   34POPC   C22 4535   2.480   5.187  10.145  0.0808 -0.0121  0.3811
   34POPC   H2R 4536   2.391   5.123  10.128  0.4706 -0.5956  0.5046
   34POPC   H2S 4537   2.524   5.145  10.238 -2.0862  1.1372  2.0062
   34POPC    C3 4538   2.644   5.571  10.367 -0.1980 -0.2001 -0.2211
   34POPC    HX 4539   2.658   5.528  10.469  0.6853 -0.6335 -0.5169
   34POPC    HY 4540   2.631   5.681  10.378  2.4255  0.1631 -0.0101
   34POPC   O31 4541   2.751   5.527  10.289  0.5093  0.3421 -0.6473
   34POPC   C31 4542   2.870   5.577  10.313  0.2974  0.6430  0.4187
   34POPC   O32 4543   2.890   5.660  10.400 -0.5629 -0.8351 -0.4864
   34POPC   C32 4544   2.968   5.518  10.212  0.2983  0.2628 -0.1667
   34POPC   H2X 4545   2.943   5.410  10.215  0.8290  0.1466  2.2304
   34POPC   H2Y 4546   3.069   5.521  10.258 -0.5549  0.0792  1.8045
   34POPC   C23 4547   2.571   5.172  10.019 -0.4635 -0.2266  0.1550
   34POPC   H3R 4548   2.537   5.217   9.923 -1.1319 -0.5348  0.2402
   34POPC   H3S 4549   2.565   5.064   9.998  0.5233 -0.1018 -0.8743
   34POPC   C24 4550   2.719   5.201  10.046  0.0864  0.0640 -0.0100
   34POPC   H4R 4551   2.758   5.120  10.110 -1.6349  0.4840  1.6661
   34POPC   H4S 4552   2.737   5.299  10.095  1.1046 -0.1218  0.0071
   34POPC   C25 4553   2.799   5.199   9.913  0.4951  0.3887  0.4467
   34POPC   H5R 4554   2.903   5.197   9.951  0.0549 -0.4650  1.6734
   34POPC   H5S 4555   2.792   5.297   9.862  2.2921  0.1618 -0.3031
   34POPC   C26 4556   2.779   5.077   9.823 -0.3617  0.8902  0.1159
   34POPC   H6R 4557   2.679   5.066   9.776  0.4111 -0.4403 -1.2981
   34POPC   H6S 4558   2.801   4.986   9.883 -2.1710  0.6318  0.4352
   34POPC   C27 4559   2.883   5.084   9.714 -0.2045 -0.3855  0.0648
   34POPC   H7R 4560   2.986   5.120   9.737 -0.8892  1.8527 -0.0953
   34POPC   H7S 4561   2.842   5.155   9.639  0.5034  0.2244  0.2371
   34POPC   C28 4562   2.892   4.955   9.631  0.2175  0.0812 -0.1825
   34POPC   H8R 4563   2.789   4.923   9.602 -0.5696 -0.9187  3.2432
   34POPC   H8S 4564   2.926   4.868   9.691 -1.1096  0.2235  0.8431
   34POPC   C29 4565   2.986   4.971   9.507  0.0397 -0.1017 -0.2537
   34POPC   H91 4566   3.091   4.994   9.530  0.0602 -0.4072 -0.0371
   34POPC  C210 4567   2.942   4.961   9.377 -0.5767 -0.4404 -0.1232
   34POPC  H101 4568   3.016   4.983   9.299 -1.4332  1.6564 -0.4276
   34POPC  C211 4569   2.804   4.929   9.329 -0.0139  0.1364  0.1695
   34POPC  H11R 4570   2.724   4.969   9.395 -0.6561 -1.8025  0.6307
   34POPC  H11S 4571   2.789   4.823   9.360  1.8000 -0.2033  0.0316
   34POPC  C212 4572   2.765   4.969   9.186 -0.3567  0.5661  0.6006
   34POPC  H12R 4573   2.787   5.075   9.161 -1.2359  0.7114  0.4286
   34POPC  H12S 4574   2.655   4.959   9.180 -0.4361 -0.3679  2.7000
   34POPC  C213 4575   2.840   4.886   9.079  0.3646 -0.0042 -0.0350
   34POPC  H13R 4576   2.838   4.779   9.109 -1.0243 -0.7335 -2.4839
   34POPC  H13S 4577   2.949   4.910   9.085  0.1485  0.7827  1.0585
   34POPC  C214 4578   2.787   4.890   8.936 -0.1968 -0.3461  0.0985
   34POPC  H14R 4579   2.874   4.855   8.877  0.0053 -0.0493  0.2172
   34POPC  H14S 4580   2.771   4.998   8.914  0.7549 -0.1229  0.4258
   34POPC  C215 4581   2.661   4.812   8.909  0.5329 -0.5707 -0.5479
   34POPC  H15R 4582   2.582   4.844   8.980  1.3947  0.2669  0.0504
   34POPC  H15S 4583   2.684   4.704   8.918 -2.1871 -1.1100  1.3465
   34POPC  C216 4584   2.601   4.843   8.767  0.1503 -0.2067  0.4660
   34POPC  H16R 4585   2.590   4.953   8.756 -0.8582 -0.3305  0.2115
   34POPC  H16S 4586   2.503   4.793   8.753  0.6915 -1.1507 -0.0572
   34POPC  C217 4587   2.685   4.780   8.653  0.1670  0.1160  0.3140
   34POPC  H17R 4588   2.696   4.670   8.666 -0.4527  0.0608  0.4079
   34POPC  H17S 4589   2.787   4.824   8.652 -0.0749  0.8452 -2.5026
   34POPC  C218 4590   2.622   4.813   8.512 -0.9069 -0.3065 -0.0620
   34POPC  H18R 4591   2.671   4.761   8.427  0.6275 -1.9296  1.7081
   34POPC  H18S 4592   2.614   4.923   8.503  1.8305  0.1688  1.8951
   34POPC  H18T 4593   2.517   4.779   8.503 -1.0059 -0.0397  0.0706
   34POPC   C33 4594   2.947   5.552  10.064 -0.1226  0.0635  0.0174
   34POPC   H3X 4595   2.948   5.662  10.051 -0.4839 -0.1474 -2.0661
   34POPC   H3Y 4596   2.839   5.530  10.054 -0.3641  1.1939  0.0018
   34POPC   C34 4597   3.044   5.487   9.966  0.8563 -0.2174  0.2976
   34POPC   H4X 4598   3.026   5.379   9.945  0.7061  0.2878 -2.6453
   34POPC   H4Y 4599   3.145   5.487  10.012  0.8968 -3.0371  0.3939
   34POPC   C35 4600   3.049   5.559   9.826  0.0481  0.4200  0.3466
   34POPC   H5X 4601   3.111   5.650   9.843  0.1570  0.0920  1.8191
   34POPC   H5Y 4602   2.944   5.584   9.799  0.4410  2.0272  0.2118
   34POPC   C36 4603   3.118   5.470   9.727 -0.2645  0.0012 -1.0002
   34POPC   H6X 4604   3.095   5.364   9.750  0.2164  0.1314  0.1523
   34POPC   H6Y 4605   3.226   5.474   9.752 -0.1650 -0.1769 -1.4077
   34POPC   C37 4606   3.111   5.521   9.586  0.4673 -0.5155 -0.2135
   34POPC   H7X 4607   3.153   5.624   9.582 -2.1552  0.6031 -3.1854
   34POPC   H7Y 4608   3.008   5.542   9.552  1.1532 -0.6223 -2.5563
   34POPC   C38 4609   3.176   5.424   9.493  0.1483  0.7239 -0.6195
   34POPC   H8X 4610   3.104   5.339   9.495  1.6393 -0.5764  1.4074
   34POPC   H8Y 4611   3.270   5.390   9.541 -0.0732  0.6664 -0.2187
   34POPC   C39 4612   3.212   5.485   9.354 -0.2236  0.2414  0.0340
   34POPC   H9X 4613   3.295   5.557   9.368 -0.1743  1.1277 -3.7472
   34POPC   H9Y 4614   3.135   5.543   9.299  0.0802 -0.1766 -0.8422
   34POPC  C310 4615   3.281   5.393   9.249  0.6744 -0.3929  0.3442
   34POPC  H10X 4616   3.211   5.320   9.204 -0.0242  1.1263 -1.1504
   34POPC  H10Y 4617   3.368   5.346   9.299  1.2037 -1.0731 -1.1569
   34POPC  C311 4618   3.323   5.474   9.127  0.4874  0.7267 -0.3472
   34POPC  H11X 4619   3.381   5.561   9.164 -0.5753  1.0372  0.6433
   34POPC  H11Y 4620   3.238   5.514   9.068  0.7490  0.3181 -1.0094
   34POPC  C312 4621   3.409   5.387   9.031  0.2521  0.3194 -0.2502
   34POPC  H12X 4622   3.362   5.293   8.998 -0.9228  0.5852  0.5992
   34POPC  H12Y 4623   3.499   5.363   9.091 -0.0789  2.4552  1.2532
   34POPC  C313 4624   3.444   5.469   8.904  0.2850 -0.4298  0.1369
   34POPC  H13X 4625   3.505   5.557   8.935 -1.1113 -0.0691  2.0501
   34POPC  H13Y 4626   3.352   5.520   8.867  0.1714 -0.3434  0.5426
   34POPC  C314 4627   3.508   5.387   8.785 -0.4206 -0.6443 -0.6148
   34POPC  H14X 4628   3.604   5.346   8.823  0.0489  0.4989 -0.5109
   34POPC  H14Y 4629   3.524   5.451   8.695 -0.6069 -0.3589 -0.4483
   34POPC  C315 4630   3.428   5.266   8.738 -0.3149  0.9515 -0.0232
   34POPC  H15X 4631   3.420   5.203   8.829  3.2777  1.1533  0.5908
   34POPC  H15Y 4632   3.492   5.210   8.667 -2.2986  1.9132 -2.7631
   34POPC  C316 4633   3.287   5.297   8.684  0.0731  0.4058 -0.1059
   34POPC  H16X 4634   3.222   5.208   8.674 -0.4757  0.8575 -0.6265
   34POPC  H16Y 4635   3.291   5.348   8.585  2.6342 -1.4604 -1.1150
   34POPC  H16Z 4636   3.230   5.371   8.744 -0.6429 -0.4834  0.3265
   35POPC     N 4637   5.589   2.676  11.526 -0.0878 -0.1888 -0.2718
   35POPC   C12 4638   5.641   2.698  11.387 -0.6224 -0.2431 -0.2661
   35POPC  H12A 4639   5.608   2.618  11.322  1.9501 -0.0823 -1.8954
   35POPC  H12B 4640   5.748   2.702  11.382 -0.3622 -2.8935  1.4576
   35POPC   C13 4641   5.666   2.565  11.591 -0.1731 -0.2454  0.3424
   35POPC  H13A 4642   5.771   2.582  11.606  0.0308 -0.8663 -0.3188
   35POPC  H13B 4643   5.611   2.525  11.675 -1.3942  2.7488  1.0905
   35POPC  H13C 4644   5.679   2.483  11.522  1.6068 -0.9596  1.4586
   35POPC   C14 4645   5.615   2.801  11.610 -0.3388  0.0539  0.1706
   35POPC  H14A 4646   5.599   2.789  11.716  0.9351  2.0017  0.6339
   35POPC  H14B 4647   5.721   2.818  11.598 -0.4347  0.6354  0.0845
   35POPC  H14C 4648   5.562   2.883  11.562  1.6376  1.5788  0.4422
   35POPC   C15 4649   5.440   2.645  11.523  0.7870 -0.3635  0.1913
   35POPC  H15A 4650   5.408   2.561  11.464 -0.6886 -0.7307  1.4515
   35POPC  H15B 4651   5.383   2.731  11.490  1.5599  0.4405  0.8763
   35POPC  H15C 4652   5.406   2.614  11.621 -1.6073 -3.3099 -1.4115
   35POPC   C11 4653   5.595   2.821  11.302  0.1451 -0.1428  0.1629
   35POPC  H11A 4654   5.656   2.837  11.210 -1.2125  1.4539 -0.5033
   35POPC  H11B 4655   5.609   2.911  11.365  1.4774 -0.0414 -0.2327
   35POPC     P 4656   5.394   2.720  11.166 -0.4205  0.0275 -0.3015
   35POPC   O13 4657   5.248   2.708  11.184  0.1308 -0.1412 -0.1729
   35POPC   O14 4658   5.475   2.596  11.165 -0.1264  0.0278 -0.5215
   35POPC   O12 4659   5.457   2.814  11.278  0.2514 -0.1001 -0.2411
   35POPC   O11 4660   5.425   2.799  11.026  0.6709  0.4773 -0.3014
   35POPC    C1 4661   5.325   2.828  10.928 -1.6799  0.2980 -0.7982
   35POPC    HA 4662   5.346   2.929  10.885 -2.5471 -0.0232 -2.0156
   35POPC    HB 4663   5.224   2.835  10.974 -1.2186 -0.3131  0.3516
   35POPC    C2 4664   5.322   2.738  10.805  0.0659  0.1942 -0.5790
   35POPC    HS 4665   5.271   2.643  10.834 -0.2470  1.2526  2.8770
   35POPC   O21 4666   5.459   2.719  10.760  0.4137 -0.8160  0.4042
   35POPC   C21 4667   5.505   2.597  10.758 -0.4005 -0.6765  0.2491
   35POPC   O22 4668   5.443   2.498  10.791 -0.1841 -0.0979  0.3537
   35POPC   C22 4669   5.653   2.597  10.706 -0.3230 -0.0103  0.0898
   35POPC   H2R 4670   5.673   2.493  10.673 -1.0214 -0.4333  0.9402
   35POPC   H2S 4671   5.715   2.634  10.790  0.8857 -1.4510 -0.1217
   35POPC    C3 4672   5.228   2.800  10.695 -0.8361 -0.0188 -0.2477
   35POPC    HX 4673   5.279   2.894  10.664 -0.6784  0.0932  0.3297
   35POPC    HY 4674   5.126   2.827  10.729 -0.4535 -0.5743  1.4515
   35POPC   O31 4675   5.230   2.705  10.577  0.1175  0.0936  0.2722
   35POPC   C31 4676   5.145   2.604  10.599  0.0725 -0.3158  0.9307
   35POPC   O32 4677   5.074   2.592  10.699 -0.1872 -0.5892 -0.2371
   35POPC   C32 4678   5.154   2.511  10.475 -0.7765 -0.2930  0.0424
   35POPC   H2X 4679   5.146   2.573  10.383 -2.0294  1.5911  1.3285
   35POPC   H2Y 4680   5.068   2.441  10.479 -0.5547 -0.5267  1.0583
   35POPC   C23 4681   5.683   2.702  10.596 -0.1167  1.1524 -0.4941
   35POPC   H3R 4682   5.791   2.698  10.571  0.4618 -2.0909  1.8899
   35POPC   H3S 4683   5.667   2.807  10.628  0.5546  0.9001  0.7120
   35POPC   C24 4684   5.616   2.670  10.459  0.2289  0.0869 -0.2390
   35POPC   H4R 4685   5.530   2.739  10.443 -2.4900 -3.3743 -2.0465
   35POPC   H4S 4686   5.581   2.564  10.458  1.7389 -0.4403  0.3108
   35POPC   C25 4687   5.715   2.674  10.341  0.0875  0.0978  0.6643
   35POPC   H5R 4688   5.795   2.598  10.342  1.6142  1.6133 -0.0347
   35POPC   H5S 4689   5.761   2.776  10.349 -0.2981  0.3397 -0.1233
   35POPC   C26 4690   5.647   2.668  10.202 -0.7665 -0.2093  1.1004
   35POPC   H6R 4691   5.541   2.697  10.217 -0.9482 -0.3596  0.1975
   35POPC   H6S 4692   5.656   2.567  10.157 -0.5802 -0.8569  2.5304
   35POPC   C27 4693   5.713   2.765  10.103  0.1081 -0.3327  0.0623
   35POPC   H7R 4694   5.823   2.746  10.107 -0.0238 -1.0641  3.1515
   35POPC   H7S 4695   5.693   2.870  10.131  1.6614 -0.2129  0.8337
   35POPC   C28 4696   5.660   2.721   9.966  0.3873 -0.0210 -0.8924
   35POPC   H8R 4697   5.668   2.612   9.951 -1.5020 -0.0014 -2.5747
   35POPC   H8S 4698   5.732   2.760   9.891 -0.0606 -0.6713 -1.6722
   35POPC   C29 4699   5.514   2.762   9.948 -0.1898 -1.6048  0.1875
   35POPC   H91 4700   5.454   2.704  10.019 -2.3313  0.3630  0.0785
   35POPC  C210 4701   5.463   2.854   9.860  0.6687 -0.3364 -0.0510
   35POPC  H101 4702   5.355   2.871   9.846  0.7341  0.8072  0.7158
   35POPC  C211 4703   5.555   2.948   9.776  0.0058 -0.5858  0.7960
   35POPC  H11R 4704   5.660   2.950   9.814 -0.7862  0.8260  3.0918
   35POPC  H11S 4705   5.517   3.051   9.786 -2.1380 -1.2396 -0.0846
   35POPC  C212 4706   5.544   2.925   9.626  0.0672 -0.8012 -0.0802
   35POPC  H12R 4707   5.572   3.018   9.573  2.0279 -0.8371  0.8148
   35POPC  H12S 4708   5.440   2.903   9.591 -0.9682  0.4277  2.0665
   35POPC  C213 4709   5.631   2.809   9.577 -0.2346 -0.7933 -0.0682
   35POPC  H13R 4710   5.608   2.734   9.655 -4.5869  1.2919  0.9381
   35POPC  H13S 4711   5.737   2.844   9.583 -0.7766  0.6704  2.2851
   35POPC  C214 4712   5.600   2.771   9.433  0.3812  0.3208 -0.6104
   35POPC  H14R 4713   5.491   2.776   9.414  0.1276 -0.6014  0.5047
   35POPC  H14S 4714   5.641   2.669   9.422 -0.1990 -0.1370  1.0872
   35POPC  C215 4715   5.655   2.874   9.333  0.5694 -1.3334  0.3531
   35POPC  H15R 4716   5.763   2.891   9.349  0.5345  1.3802 -1.6464
   35POPC  H15S 4717   5.607   2.970   9.360  2.0135  0.1096 -1.8829
   35POPC  C216 4718   5.623   2.840   9.189 -0.5952 -0.1529 -0.4565
   35POPC  H16R 4719   5.519   2.801   9.180 -0.3489 -1.2461  0.9900
   35POPC  H16S 4720   5.684   2.748   9.184  1.1651  1.0300 -1.8988
   35POPC  C217 4721   5.683   2.944   9.095 -0.5182  0.4489 -0.2002
   35POPC  H17R 4722   5.792   2.936   9.112 -0.6106  1.3078  0.9088
   35POPC  H17S 4723   5.652   3.048   9.118 -2.8600 -0.6931  2.2656
   35POPC  C218 4724   5.658   2.911   8.946 -0.5139  0.3181  0.5535
   35POPC  H18R 4725   5.549   2.923   8.928 -0.2700 -0.3614 -1.7158
   35POPC  H18S 4726   5.695   2.809   8.920  1.0142  0.7901  0.8164
   35POPC  H18T 4727   5.717   2.976   8.878 -1.8601  0.5261 -0.4705
   35POPC   C33 4728   5.285   2.421  10.478 -0.2360  0.6845 -0.5534
   35POPC   H3X 4729   5.267   2.348  10.560  0.9082 -0.6237 -1.4024
   35POPC   H3Y 4730   5.369   2.489  10.505  0.4558  0.2425 -1.5378
   35POPC   C34 4731   5.313   2.359  10.340 -0.5888  1.2033  0.0072
   35POPC   H4X 4732   5.309   2.419  10.247  0.0646 -0.0222 -0.8340
   35POPC   H4Y 4733   5.235   2.280  10.330 -2.5070  2.9494  0.3512
   35POPC   C35 4734   5.455   2.300  10.332 -1.2735  0.3480 -0.1989
   35POPC   H5X 4735   5.480   2.215  10.398  1.9622 -0.1978 -1.9305
   35POPC   H5Y 4736   5.530   2.381  10.340  0.2875 -0.8759 -1.5497
   35POPC   C36 4737   5.478   2.227  10.197 -0.6222 -0.0575 -0.3243
   35POPC   H6X 4738   5.397   2.162  10.158  0.5505 -2.2126  0.6727
   35POPC   H6Y 4739   5.565   2.160  10.215 -0.5713 -0.8856 -3.1217
   35POPC   C37 4740   5.516   2.325  10.086  0.1331  0.0456  0.3531
   35POPC   H7X 4741   5.617   2.371  10.089 -0.7918  2.6876 -2.7081
   35POPC   H7Y 4742   5.441   2.407  10.094 -2.0587 -2.0491  3.7752
   35POPC   C38 4743   5.481   2.260   9.947  0.4383 -0.1890  0.1056
   35POPC   H8X 4744   5.372   2.241   9.953  0.3806  0.0170 -0.2312
   35POPC   H8Y 4745   5.535   2.164   9.937 -0.1481 -0.7548  1.9131
   35POPC   C39 4746   5.500   2.338   9.816  0.3264  0.1606 -0.6688
   35POPC   H9X 4747   5.609   2.349   9.797  0.7661 -0.3153  1.3554
   35POPC   H9Y 4748   5.455   2.438   9.833  0.8948  0.4486 -0.8375
   35POPC  C310 4749   5.438   2.264   9.700  0.0437  0.0447 -0.1366
   35POPC  H10X 4750   5.333   2.262   9.736 -0.6281  0.8625 -1.9407
   35POPC  H10Y 4751   5.471   2.160   9.679 -0.6233  0.0065 -1.0490
   35POPC  C311 4752   5.440   2.343   9.566 -0.1744  0.7024  0.4073
   35POPC  H11X 4753   5.545   2.364   9.537 -0.0739  0.8676  0.8842
   35POPC  H11Y 4754   5.389   2.436   9.601 -2.9396 -0.6560  0.2877
   35POPC  C312 4755   5.363   2.272   9.454 -0.1270  0.0301  0.3206
   35POPC  H12X 4756   5.259   2.302   9.477  0.1947  0.1133  1.7324
   35POPC  H12Y 4757   5.380   2.162   9.466  1.8225  0.0285 -1.7768
   35POPC  C313 4758   5.404   2.318   9.313  0.1463  0.0445 -1.0591
   35POPC  H13X 4759   5.515   2.315   9.309  0.1692  1.6586 -2.7243
   35POPC  H13Y 4760   5.376   2.426   9.313 -0.7073 -0.1619 -0.3187
   35POPC  C314 4761   5.339   2.251   9.198  0.8488  0.3096 -0.1761
   35POPC  H14X 4762   5.230   2.263   9.215  0.5204 -0.6819 -1.4754
   35POPC  H14Y 4763   5.372   2.146   9.213  0.6624  0.1562 -0.8022
   35POPC  C315 4764   5.373   2.320   9.065 -0.4396 -0.1097  0.6317
   35POPC  H15X 4765   5.484   2.315   9.055 -0.7231 -2.0243 -3.0345
   35POPC  H15Y 4766   5.351   2.427   9.088  1.7329  0.2168  1.5119
   35POPC  C316 4767   5.308   2.273   8.937  0.0973 -0.1082  0.1141
   35POPC  H16X 4768   5.200   2.293   8.955  0.0703 -0.0126 -0.1416
   35POPC  H16Y 4769   5.313   2.162   8.929 -1.2381 -0.1097 -1.4595
   35POPC  H16Z 4770   5.332   2.332   8.846 -0.4206  0.6411  0.4522
   36POPC     N 4771   6.626   6.818  10.895  0.2171  0.2121  0.6131
   36POPC   C12 4772   6.754   6.741  10.853  0.6599  0.1044  0.7060
   36POPC  H12A 4773   6.773   6.670  10.933  0.5484  2.3736  2.8773
   36POPC  H12B 4774   6.843   6.800  10.863  0.0896  1.2331 -0.5970
   36POPC   C13 4775   6.594   6.925  10.796  0.2709  0.0568 -0.5327
   36POPC  H13A 4776   6.597   6.883  10.696 -1.0636 -2.9311  0.5711
   36POPC  H13B 4777   6.494   6.959  10.820 -0.2863 -0.4930 -1.9845
   36POPC  H13C 4778   6.664   7.007  10.803 -0.0601  0.3469 -0.5763
   36POPC   C14 4779   6.509   6.725  10.892 -0.4407  0.0875 -0.4635
   36POPC  H14A 4780   6.527   6.642  10.959  0.9553 -0.0916 -1.0202
   36POPC  H14B 4781   6.421   6.785  10.912 -1.5648 -1.8771  0.8248
   36POPC  H14C 4782   6.494   6.677  10.796  0.5461 -0.6432 -0.2624
   36POPC   C15 4783   6.622   6.874  11.032  0.0636 -0.4627 -1.0087
   36POPC  H15A 4784   6.618   6.790  11.099  0.1021 -0.1437 -0.6037
   36POPC  H15B 4785   6.541   6.943  11.047  0.7888  0.2535 -0.3016
   36POPC  H15C 4786   6.708   6.937  11.049 -0.2984 -0.0178 -0.8326
   36POPC   C11 4787   6.761   6.674  10.717  0.3806  0.1927 -0.0806
   36POPC  H11A 4788   6.728   6.735  10.630 -0.7413 -0.9963 -0.5249
   36POPC  H11B 4789   6.706   6.577  10.711  1.1464 -0.3230  0.9159
   36POPC     P 4790   6.959   6.512  10.764  0.1086  0.0556  0.2913
   36POPC   O13 4791   6.956   6.400  10.673 -0.6930 -0.2798  0.1474
   36POPC   O14 4792   6.886   6.484  10.893  0.6253 -0.1348 -0.6311
   36POPC   O12 4793   6.898   6.647  10.699  0.3465  0.0359  0.2020
   36POPC   O11 4794   7.109   6.541  10.796 -0.4119 -0.2588 -0.7417
   36POPC    C1 4795   7.149   6.674  10.850  0.1969  0.3564  0.4873
   36POPC    HA 4796   7.189   6.669  10.954 -3.0243  2.3494  1.9478
   36POPC    HB 4797   7.062   6.741  10.863 -1.5469 -1.8172  0.7129
   36POPC    C2 4798   7.265   6.736  10.764  0.3604  0.5768 -0.6504
   36POPC    HS 4799   7.303   6.831  10.805  2.5368 -0.5311  0.0707
   36POPC   O21 4800   7.224   6.751  10.630  0.0929  0.1012 -0.3977
   36POPC   C21 4801   7.117   6.820  10.606 -0.1272 -0.1230  0.3883
   36POPC   O22 4802   7.065   6.895  10.687 -0.0691 -0.3829  0.1691
   36POPC   C22 4803   7.065   6.789  10.461  0.0646 -0.3468 -0.0804
   36POPC   H2R 4804   6.992   6.706  10.457 -0.7130  0.3601 -1.9507
   36POPC   H2S 4805   7.151   6.755  10.399  1.3498  1.4013  0.6569
   36POPC    C3 4806   7.389   6.646  10.773 -0.3718  0.1622 -0.1738
   36POPC    HX 4807   7.347   6.543  10.774 -0.1473  0.0332 -1.7635
   36POPC    HY 4808   7.434   6.668  10.872  0.7100  0.5163 -0.7337
   36POPC   O31 4809   7.474   6.667  10.664  0.0152 -0.6891  0.4582
   36POPC   C31 4810   7.559   6.767  10.673 -0.0166 -0.2330  0.4130
   36POPC   O32 4811   7.571   6.839  10.774 -0.0901 -0.3303  0.6334
   36POPC   C32 4812   7.643   6.784  10.548 -0.1034  0.7737 -0.3915
   36POPC   H2X 4813   7.690   6.688  10.516 -2.5175 -0.4856 -0.3721
   36POPC   H2Y 4814   7.714   6.867  10.569 -1.1328  1.2859  1.2502
   36POPC   C23 4815   6.989   6.915  10.410  0.5043 -0.3069 -0.5716
   36POPC   H3R 4816   7.058   7.002  10.399 -1.6757  1.3359 -2.3842
   36POPC   H3S 4817   6.915   6.952  10.484 -0.5615 -2.2113 -0.6460
   36POPC   C24 4818   6.926   6.899  10.274  0.0884 -0.1632 -0.1601
   36POPC   H4R 4819   6.868   6.990  10.248  0.2358 -0.5709 -2.1285
   36POPC   H4S 4820   6.855   6.814  10.278  1.2928 -1.1395  1.9962
   36POPC   C25 4821   7.031   6.878  10.159 -0.1602  0.3151 -0.0194
   36POPC   H5R 4822   7.092   6.786  10.172  1.1622  1.2337  0.5102
   36POPC   H5S 4823   7.100   6.966  10.157  0.7211 -0.3646 -0.7342
   36POPC   C26 4824   6.964   6.867  10.021  0.4799 -0.1719  0.3869
   36POPC   H6R 4825   6.941   6.972   9.992  0.9503  0.2473  1.4716
   36POPC   H6S 4826   6.871   6.810  10.043  0.8230 -0.9301 -0.0758
   36POPC   C27 4827   7.038   6.802   9.904  0.0578 -0.0600 -1.0390
   36POPC   H7R 4828   7.045   6.695   9.936 -1.7116  0.2554  0.5419
   36POPC   H7S 4829   7.141   6.844   9.907 -0.3927  1.0554  2.0989
   36POPC   C28 4830   6.988   6.805   9.758  0.1103 -0.2237 -0.1137
   36POPC   H8R 4831   7.066   6.746   9.706 -0.6885 -2.1673  0.8007
   36POPC   H8S 4832   6.986   6.914   9.734  0.6292 -0.1513  0.1703
   36POPC   C29 4833   6.855   6.735   9.740  1.0798  0.1177  0.3966
   36POPC   H91 4834   6.823   6.675   9.826  0.4909 -0.4259 -0.1947
   36POPC  C210 4835   6.773   6.748   9.635 -0.1436 -0.2163 -0.2625
   36POPC  H101 4836   6.684   6.683   9.632 -0.0716 -0.2930 -0.7908
   36POPC  C211 4837   6.802   6.835   9.513  0.1587 -0.6408  0.4183
   36POPC  H11R 4838   6.841   6.934   9.546  1.0700 -0.8549  0.0086
   36POPC  H11S 4839   6.704   6.862   9.468  0.2886  1.2168  1.1548
   36POPC  C212 4840   6.891   6.774   9.400 -0.1215  1.0358  0.1927
   36POPC  H12R 4841   6.967   6.707   9.445  1.6493  3.3578  0.8464
   36POPC  H12S 4842   6.955   6.850   9.350  0.2522  0.2647 -0.5215
   36POPC  C213 4843   6.804   6.700   9.300  0.5288 -0.2982 -0.0226
   36POPC  H13R 4844   6.726   6.774   9.275  1.2687 -0.3571 -2.7821
   36POPC  H13S 4845   6.746   6.626   9.360  1.8568 -1.4228 -0.0533
   36POPC  C214 4846   6.871   6.634   9.185  0.2482  0.3999  0.1377
   36POPC  H14R 4847   6.814   6.577   9.109  1.6531  1.2015 -1.6124
   36POPC  H14S 4848   6.928   6.558   9.243 -1.5189 -0.9258  0.2000
   36POPC  C215 4849   6.972   6.715   9.102 -0.1830  0.7043  0.0664
   36POPC  H15R 4850   7.032   6.636   9.052  1.2653  1.9459 -0.2316
   36POPC  H15S 4851   7.032   6.761   9.183 -2.6493 -0.1067  2.5375
   36POPC  C216 4852   6.910   6.829   9.024 -0.3105 -0.1293 -0.3233
   36POPC  H16R 4853   6.978   6.870   8.947 -0.0518  0.6967  0.3273
   36POPC  H16S 4854   6.881   6.912   9.093 -3.3877 -1.4681  0.1692
   36POPC  C217 4855   6.774   6.789   8.955 -0.3222 -0.0777 -0.0068
   36POPC  H17R 4856   6.709   6.746   9.034 -1.0867 -2.2162 -1.7085
   36POPC  H17S 4857   6.797   6.709   8.881  0.3680 -0.2622  0.3971
   36POPC  C218 4858   6.718   6.902   8.876  0.3302 -0.3569 -0.3184
   36POPC  H18R 4859   6.717   6.995   8.936 -0.1939  1.0676 -2.4554
   36POPC  H18S 4860   6.611   6.884   8.854  0.1481 -1.1780  1.1112
   36POPC  H18T 4861   6.767   6.934   8.782 -0.6208  2.1370 -0.0458
   36POPC   C33 4862   7.557   6.830  10.425  0.5132 -0.1182  0.3619
   36POPC   H3X 4863   7.499   6.921  10.450 -1.3853 -0.7092 -1.5694
   36POPC   H3Y 4864   7.480   6.752  10.409  2.2123 -1.5125 -1.4521
   36POPC   C34 4865   7.639   6.855  10.297 -0.0594 -0.1044  0.8008
   36POPC   H4X 4866   7.697   6.763  10.273 -0.2337 -0.0129 -0.0225
   36POPC   H4Y 4867   7.720   6.930  10.311  0.2303 -0.2916  0.1789
   36POPC   C35 4868   7.551   6.900  10.180  0.1798  0.2609 -0.2597
   36POPC   H5X 4869   7.621   6.930  10.100  0.5916 -1.5162 -0.5974
   36POPC   H5Y 4870   7.506   6.989  10.231 -0.4477 -0.8175  1.1408
   36POPC   C36 4871   7.457   6.792  10.137 -0.9403 -0.5151 -0.6001
   36POPC   H6X 4872   7.378   6.779  10.213 -0.6230 -1.4843 -0.4264
   36POPC   H6Y 4873   7.512   6.696  10.143  2.6908  1.3011 -1.5110
   36POPC   C37 4874   7.385   6.813  10.003  0.4947  0.6858  0.0265
   36POPC   H7X 4875   7.346   6.916   9.998  0.5005  0.8838  2.6213
   36POPC   H7Y 4876   7.290   6.756  10.008  1.1669 -0.7430 -2.0275
   36POPC   C38 4877   7.466   6.775   9.883 -0.7467  0.7384 -1.3027
   36POPC   H8X 4878   7.487   6.666   9.894 -1.4837  0.6125 -1.0589
   36POPC   H8Y 4879   7.556   6.839   9.894 -0.9058  0.7781 -0.0437
   36POPC   C39 4880   7.395   6.799   9.755 -0.2840 -0.4653 -0.2184
   36POPC   H9X 4881   7.385   6.906   9.728 -0.7448 -0.2420  0.7799
   36POPC   H9Y 4882   7.289   6.763   9.761  0.0110 -1.1182  1.8838
   36POPC  C310 4883   7.467   6.731   9.632  0.3705 -0.7408 -0.6548
   36POPC  H10X 4884   7.491   6.626   9.660  0.4287 -0.6563 -0.3802
   36POPC  H10Y 4885   7.568   6.778   9.629  2.0822 -4.1333 -0.7279
   36POPC  C311 4886   7.386   6.745   9.500 -0.1140 -0.0739  0.2604
   36POPC  H11X 4887   7.368   6.849   9.465 -1.9662 -0.4853 -0.1026
   36POPC  H11Y 4888   7.280   6.715   9.511 -0.4172  0.3917 -1.2189
   36POPC  C312 4889   7.458   6.674   9.378  0.3124 -0.1392 -0.3209
   36POPC  H12X 4890   7.467   6.569   9.411 -2.2213 -0.2749  0.1418
   36POPC  H12Y 4891   7.560   6.718   9.389  0.1121  0.9802 -2.3085
   36POPC  C313 4892   7.387   6.700   9.244 -0.0283  0.4054 -0.3620
   36POPC  H13X 4893   7.280   6.718   9.269  0.2694  0.6788  0.7533
   36POPC  H13Y 4894   7.400   6.611   9.178 -2.3532 -0.7596  0.6078
   36POPC  C314 4895   7.432   6.823   9.163 -0.4243 -0.3166  0.2617
   36POPC  H14X 4896   7.471   6.902   9.230 -0.8238  0.7213 -0.6938
   36POPC  H14Y 4897   7.350   6.871   9.106 -0.2023 -0.0377  0.1749
   36POPC  C315 4898   7.552   6.794   9.076  0.4247  0.1557 -0.5905
   36POPC  H15X 4899   7.523   6.703   9.020 -2.0159  0.5092 -0.0344
   36POPC  H15Y 4900   7.638   6.777   9.144 -0.8862 -0.7772  0.9101
   36POPC  C316 4901   7.600   6.903   8.982  0.6861  0.1532 -0.0794
   36POPC  H16X 4902   7.703   6.870   8.956  0.2095 -0.4406 -1.2765
   36POPC  H16Y 4903   7.613   7.001   9.032  1.0941 -0.6025  1.3631
   36POPC  H16Z 4904   7.548   6.909   8.884  1.4081  0.3123 -0.4565
   37POPC     N 4905   2.959   6.711   6.283  0.1513 -0.2685  0.5644
   37POPC   C12 4906   2.875   6.832   6.284 -0.0678 -0.7472  0.1503
   37POPC  H12A 4907   2.785   6.810   6.339 -0.0111  0.2753  0.6640
   37POPC  H12B 4908   2.851   6.868   6.185 -3.5859 -1.9432  0.4431
   37POPC   C13 4909   3.095   6.746   6.235  0.5667 -0.0046  0.3606
   37POPC  H13A 4910   3.149   6.802   6.310  0.3383 -1.6497  1.8074
   37POPC  H13B 4911   3.150   6.658   6.206 -1.3243 -0.6249 -1.5988
   37POPC  H13C 4912   3.083   6.810   6.149 -0.1712  0.0489  0.5033
   37POPC   C14 4913   2.972   6.648   6.414  0.2238 -0.1631 -1.3501
   37POPC  H14A 4914   2.889   6.585   6.441  2.5239 -3.0689 -0.5775
   37POPC  H14B 4915   3.054   6.578   6.409  1.9373  1.4142  1.6683
   37POPC  H14C 4916   2.991   6.715   6.497  0.9663  0.7705 -2.2457
   37POPC   C15 4917   2.908   6.593   6.192  0.0271 -0.7189  0.1450
   37POPC  H15A 4918   2.807   6.559   6.210 -0.3827  0.4696  0.1842
   37POPC  H15B 4919   2.985   6.518   6.192 -1.4967 -2.3304  0.0230
   37POPC  H15C 4920   2.896   6.631   6.092 -1.4884 -0.7421  0.2891
   37POPC   C11 4921   2.919   6.960   6.366 -0.4462  0.1369  0.9268
   37POPC  H11A 4922   2.833   7.031   6.364 -2.4440 -2.1760  1.1087
   37POPC  H11B 4923   3.009   6.987   6.307 -0.1010 -0.7020  1.0602
   37POPC     P 4924   3.032   7.025   6.583 -0.0990 -0.4284 -0.4349
   37POPC   O13 4925   2.965   7.156   6.582 -0.2253 -0.1648 -0.0070
   37POPC   O14 4926   3.164   7.027   6.517  0.3285 -0.3148  0.0835
   37POPC   O12 4927   2.947   6.925   6.501 -0.4133 -0.1631 -0.4393
   37POPC   O11 4928   3.032   6.969   6.726  0.2815  0.2695  0.1759
   37POPC    C1 4929   2.963   7.036   6.838  0.0634  0.0765  0.2081
   37POPC    HA 4930   2.861   7.070   6.810 -0.1641 -0.3884  0.4637
   37POPC    HB 4931   3.026   7.124   6.862 -0.8191  0.9013 -0.4542
   37POPC    C2 4932   2.946   6.946   6.964 -0.1500 -0.3047 -0.0438
   37POPC    HS 4933   2.909   7.006   7.050  0.9855  3.1869 -1.8052
   37POPC   O21 4934   3.078   6.897   6.993 -1.2782  0.6357  0.0137
   37POPC   C21 4935   3.155   6.963   7.081  0.0934 -0.6809 -0.2709
   37POPC   O22 4936   3.114   7.046   7.161 -0.3431  0.1483  0.4470
   37POPC   C22 4937   3.297   6.921   7.069 -0.2493  0.3977 -0.1341
   37POPC   H2R 4938   3.342   6.962   6.976  0.8390  1.6946  0.9240
   37POPC   H2S 4939   3.302   6.810   7.059  3.0343  0.4361  0.0246
   37POPC    C3 4940   2.865   6.820   6.932 -0.4439 -0.3790 -0.3553
   37POPC    HX 4941   2.874   6.756   7.023 -0.1278  1.0133  0.6221
   37POPC    HY 4942   2.913   6.762   6.851  1.1553  0.2503  0.1049
   37POPC   O31 4943   2.729   6.856   6.907  0.1365  0.3472 -0.7597
   37POPC   C31 4944   2.655   6.771   6.839 -0.3006  0.2583  0.3490
   37POPC   O32 4945   2.695   6.660   6.802  0.4906  0.7422 -0.0580
   37POPC   C32 4946   2.518   6.832   6.823  0.1693 -0.7468 -1.0679
   37POPC   H2X 4947   2.489   6.843   6.716  0.8007  1.0400 -1.0785
   37POPC   H2Y 4948   2.505   6.929   6.875 -0.3437 -1.7105  0.6633
   37POPC   C23 4949   3.387   6.969   7.185  0.0369 -0.2405  0.2213
   37POPC   H3R 4950   3.357   6.922   7.281  0.6080  2.0297  1.5789
   37POPC   H3S 4951   3.371   7.078   7.201 -1.7306 -0.1503 -1.7828
   37POPC   C24 4952   3.534   6.949   7.157  0.1762  0.5735  0.1983
   37POPC   H4R 4953   3.580   6.989   7.064  0.8674  0.2017  0.3714
   37POPC   H4S 4954   3.551   6.840   7.158  0.3293  0.5590  2.6386
   37POPC   C25 4955   3.626   7.008   7.270  0.2761 -0.0538 -0.3918
   37POPC   H5R 4956   3.590   6.962   7.364  0.0005 -0.6114 -0.7623
   37POPC   H5S 4957   3.601   7.116   7.279  2.6544  0.3953  1.7333
   37POPC   C26 4958   3.773   6.980   7.244 -0.2637  0.6568  0.1177
   37POPC   H6R 4959   3.804   7.010   7.142  1.1085  2.6721  1.0531
   37POPC   H6S 4960   3.796   6.871   7.247 -0.6092  0.5685 -0.3158
   37POPC   C27 4961   3.874   7.061   7.331  0.2283 -0.1780 -0.8202
   37POPC   H7R 4962   3.830   7.163   7.328  0.4379 -0.0720 -0.3687
   37POPC   H7S 4963   3.980   7.064   7.297  1.1034  0.1778  1.7430
   37POPC   C28 4964   3.883   6.997   7.470 -0.1683  0.4367  0.8333
   37POPC   H8R 4965   3.944   6.905   7.465 -0.4987  0.2549 -0.0263
   37POPC   H8S 4966   3.780   6.976   7.508 -0.5203  1.4394  0.4829
   37POPC   C29 4967   3.933   7.102   7.569 -0.6779  0.5036 -0.5775
   37POPC   H91 4968   3.973   7.192   7.520 -0.9317 -0.8913 -3.5927
   37POPC  C210 4969   3.936   7.087   7.705  0.0152 -0.1351  0.2006
   37POPC  H101 4970   3.978   7.164   7.771  1.2086 -1.8388  1.4768
   37POPC  C211 4971   3.891   6.964   7.773  0.7606 -0.3229  0.1030
   37POPC  H11R 4972   3.978   6.901   7.801 -1.0724 -2.3217  1.5985
   37POPC  H11S 4973   3.820   6.901   7.717  2.0213 -1.1789 -0.5935
   37POPC  C212 4974   3.814   7.001   7.893 -0.4987  0.1971  0.0549
   37POPC  H12R 4975   3.731   7.072   7.871  0.1132  0.9335  0.0820
   37POPC  H12S 4976   3.877   7.058   7.965 -2.7469  2.0412  0.6748
   37POPC  C213 4977   3.751   6.885   7.969 -0.0452  0.3233  0.5463
   37POPC  H13R 4978   3.823   6.816   8.019 -0.7683 -0.8113  0.0704
   37POPC  H13S 4979   3.695   6.828   7.891 -1.2685  2.4922 -0.2364
   37POPC  C214 4980   3.650   6.928   8.076 -0.2105  0.0939 -1.3510
   37POPC  H14R 4981   3.566   6.984   8.030 -0.6676 -0.6850 -1.4873
   37POPC  H14S 4982   3.707   6.999   8.140 -0.6128 -1.8697  1.3601
   37POPC  C215 4983   3.574   6.816   8.161  0.7844  0.2130  0.1658
   37POPC  H15R 4984   3.519   6.744   8.097  1.1581 -0.0103  0.0942
   37POPC  H15S 4985   3.499   6.866   8.226 -1.0056 -0.2026 -1.4951
   37POPC  C216 4986   3.663   6.729   8.243 -0.1349  0.1288  0.2395
   37POPC  H16R 4987   3.726   6.790   8.312 -0.6265  0.2261  0.6021
   37POPC  H16S 4988   3.736   6.679   8.176  0.8014 -0.1326  1.4222
   37POPC  C217 4989   3.590   6.627   8.332 -0.0176 -0.0616  0.1829
   37POPC  H17R 4990   3.521   6.682   8.400 -1.3374 -0.7716 -0.5559
   37POPC  H17S 4991   3.665   6.573   8.393  0.6762 -1.0600 -1.4785
   37POPC  C218 4992   3.510   6.521   8.253  0.3723  0.9013 -0.1404
   37POPC  H18R 4993   3.410   6.565   8.232  0.1408  0.0904 -0.7480
   37POPC  H18S 4994   3.487   6.431   8.313  2.4376  0.7792  0.5374
   37POPC  H18T 4995   3.559   6.502   8.155 -2.5839  1.2906 -1.8165
   37POPC   C33 4996   2.412   6.732   6.882 -0.5906 -0.3755  0.2565
   37POPC   H3X 4997   2.430   6.629   6.844  0.7281 -0.8661  2.0675
   37POPC   H3Y 4998   2.314   6.765   6.841  0.2171  1.2711 -0.4237
   37POPC   C34 4999   2.393   6.736   7.033  0.6972  0.2546  0.7134
   37POPC   H4X 5000   2.317   6.657   7.051  0.4445  0.4299  0.4140
   37POPC   H4Y 5001   2.366   6.841   7.060 -3.2084 -0.2310 -0.7836
   37POPC   C35 5002   2.509   6.694   7.131 -0.2822  0.1128 -0.6436
   37POPC   H5X 5003   2.594   6.751   7.087 -0.1626 -0.4410 -1.1442
   37POPC   H5Y 5004   2.520   6.586   7.110 -2.1023 -0.0616 -0.7958
   37POPC   C36 5005   2.478   6.738   7.274 -0.3956 -0.2345 -0.3329
   37POPC   H6X 5006   2.473   6.848   7.291  4.7521 -0.0012  1.3462
   37POPC   H6Y 5007   2.558   6.707   7.345 -0.6790 -3.0956 -1.1376
   37POPC   C37 5008   2.365   6.659   7.337  0.3418  0.0211 -0.3325
   37POPC   H7X 5009   2.347   6.564   7.284 -0.1167 -1.0416  1.6200
   37POPC   H7Y 5010   2.269   6.715   7.327  0.4917  0.1808 -0.8888
   37POPC   C38 5011   2.372   6.623   7.486 -0.2553  0.0575 -0.0977
   37POPC   H8X 5012   2.466   6.565   7.499  0.8886  1.8621  0.1470
   37POPC   H8Y 5013   2.289   6.555   7.512 -0.8667  1.3701  1.6314
   37POPC   C39 5014   2.375   6.738   7.584  0.4553 -0.7661  0.2100
   37POPC   H9X 5015   2.294   6.813   7.569  1.0336  0.6604  3.3752
   37POPC   H9Y 5016   2.454   6.811   7.557 -2.3687  2.2952 -0.4748
   37POPC  C310 5017   2.387   6.679   7.727  0.2493 -0.4863  0.6202
   37POPC  H10X 5018   2.486   6.629   7.730 -0.6165 -2.4153 -0.8734
   37POPC  H10Y 5019   2.301   6.609   7.730 -1.0286  1.0080  0.8006
   37POPC  C311 5020   2.371   6.776   7.846  0.6600 -0.4041 -0.3504
   37POPC  H11X 5021   2.265   6.810   7.852  1.0267  0.6344  0.6045
   37POPC  H11Y 5022   2.429   6.870   7.835 -0.8715  0.6116 -0.0343
   37POPC  C312 5023   2.412   6.711   7.981 -0.1226 -0.0117  0.4975
   37POPC  H12X 5024   2.518   6.679   7.978  0.8716  3.0471 -0.3472
   37POPC  H12Y 5025   2.344   6.624   7.994 -2.3911  1.2378 -2.0302
   37POPC  C313 5026   2.391   6.791   8.108 -0.4274 -0.5467 -0.1269
   37POPC  H13X 5027   2.288   6.830   8.098 -1.2037 -2.7799 -1.9690
   37POPC  H13Y 5028   2.468   6.871   8.107 -0.9155 -0.0638  0.3524
   37POPC  C314 5029   2.398   6.703   8.227 -0.2891 -0.1155 -0.1087
   37POPC  H14X 5030   2.320   6.625   8.213  0.1993 -0.3773 -1.5365
   37POPC  H14Y 5031   2.389   6.762   8.320  2.1008 -1.0451  0.7971
   37POPC  C315 5032   2.527   6.616   8.258  0.0111  0.2538  0.2279
   37POPC  H15X 5033   2.593   6.694   8.301 -1.1224  1.5146 -0.2384
   37POPC  H15Y 5034   2.576   6.575   8.167 -0.0279  2.0266 -0.6312
   37POPC  C316 5035   2.492   6.511   8.361  0.1249  0.6068  0.2402
   37POPC  H16X 5036   2.455   6.560   8.454 -0.7956  2.3098 -0.9612
   37POPC  H16Y 5037   2.578   6.447   8.388 -0.9748 -0.1701  2.1030
   37POPC  H16Z 5038   2.407   6.452   8.319 -0.4666  1.4712  0.1879
   38POPC     N 5039   4.196   3.407   5.867  0.0277  0.2851 -0.4775
   38POPC   C12 5040   4.114   3.498   5.964 -0.7255  0.3346  0.2963
   38POPC  H12A 5041   4.010   3.468   5.964 -0.6930  0.1946 -0.9773
   38POPC  H12B 5042   4.119   3.587   5.903 -0.1790  0.5260  0.6133
   38POPC   C13 5043   4.219   3.273   5.932 -0.4071  0.3083 -0.2741
   38POPC  H13A 5044   4.268   3.286   6.028 -1.0985  0.3644  0.0815
   38POPC  H13B 5045   4.126   3.222   5.951 -0.4255  0.2920 -0.4152
   38POPC  H13C 5046   4.266   3.213   5.856 -0.0830  0.8322 -0.4960
   38POPC   C14 5047   4.109   3.384   5.755  0.8585  0.3537 -0.1577
   38POPC  H14A 5048   4.158   3.306   5.697 -0.1499 -0.3733 -0.0509
   38POPC  H14B 5049   4.009   3.355   5.782  0.3120  2.5014  0.2508
   38POPC  H14C 5050   4.091   3.469   5.692 -2.4557 -0.2546 -0.1740
   38POPC   C15 5051   4.331   3.472   5.827  0.2483 -0.2527  0.2648
   38POPC  H15A 5052   4.384   3.412   5.754  0.4096 -0.4307  0.5289
   38POPC  H15B 5053   4.394   3.485   5.913  0.6908 -2.1561  0.2783
   38POPC  H15C 5054   4.315   3.567   5.779  2.5756  0.1243  0.1607
   38POPC   C11 5055   4.165   3.525   6.103  0.6532  0.5918  0.0031
   38POPC  H11A 5056   4.093   3.593   6.153  0.9429  0.5300  0.5077
   38POPC  H11B 5057   4.261   3.580   6.098  1.3413 -0.5885 -0.0087
   38POPC     P 5058   4.323   3.382   6.248  0.1020  0.5622 -0.0022
   38POPC   O13 5059   4.425   3.374   6.142 -0.2892  0.4329  0.3619
   38POPC   O14 5060   4.299   3.255   6.325  0.4008  0.0360 -0.3585
   38POPC   O12 5061   4.183   3.409   6.183  0.1504  0.1407  1.0003
   38POPC   O11 5062   4.355   3.493   6.354  0.1703  0.1839  0.8761
   38POPC    C1 5063   4.256   3.531   6.447 -0.4444 -0.4416 -0.4801
   38POPC    HA 5064   4.153   3.520   6.409 -0.9085 -0.6291  0.7819
   38POPC    HB 5065   4.263   3.642   6.456  1.2680 -0.6367  1.5495
   38POPC    C2 5066   4.265   3.469   6.588 -0.6959  0.4353 -0.0012
   38POPC    HS 5067   4.240   3.363   6.564 -1.6835  0.0151  2.5763
   38POPC   O21 5068   4.160   3.529   6.668  0.0864 -0.4317 -0.4787
   38POPC   C21 5069   4.099   3.446   6.753  0.9285  0.4332  1.3140
   38POPC   O22 5070   4.131   3.328   6.770 -0.3116 -0.0482  0.2257
   38POPC   C22 5071   3.993   3.523   6.833 -0.5837 -0.2245  0.5340
   38POPC   H2R 5072   3.918   3.543   6.753  0.2914 -0.2693 -0.3124
   38POPC   H2S 5073   4.044   3.614   6.870 -0.6477 -0.2737  0.7447
   38POPC    C3 5074   4.406   3.481   6.659 -0.1308 -0.2489  1.0198
   38POPC    HX 5075   4.436   3.588   6.653 -0.4182 -0.2027  0.3043
   38POPC    HY 5076   4.471   3.424   6.589  0.7863  1.0797  0.7512
   38POPC   O31 5077   4.422   3.449   6.795  0.7883 -0.0597 -0.2520
   38POPC   C31 5078   4.436   3.323   6.821  0.0243 -0.1204 -0.1241
   38POPC   O32 5079   4.441   3.240   6.732  0.3158  0.4250 -0.0930
   38POPC   C32 5080   4.423   3.300   6.977 -0.2733  0.0898 -0.0722
   38POPC   H2X 5081   4.477   3.204   6.990 -1.8023 -1.0221 -1.4919
   38POPC   H2Y 5082   4.314   3.300   7.000 -0.5917  2.8097 -1.2626
   38POPC   C23 5083   3.938   3.442   6.951 -0.1345  0.1757 -0.5409
   38POPC   H3R 5084   3.905   3.338   6.927 -0.3308  0.1158 -0.0182
   38POPC   H3S 5085   3.841   3.489   6.979  0.3434  0.1878  1.2455
   38POPC   C24 5086   4.018   3.438   7.079 -0.4511  0.1831 -0.2231
   38POPC   H4R 5087   4.028   3.547   7.103 -3.5693  0.5900 -0.3020
   38POPC   H4S 5088   4.116   3.391   7.060 -0.6355 -1.0682  1.6080
   38POPC   C25 5089   3.953   3.360   7.201 -0.0627  0.1407 -0.2893
   38POPC   H5R 5090   3.973   3.254   7.177  1.7353 -0.3009  2.6855
   38POPC   H5S 5091   3.845   3.386   7.200 -0.1217 -0.1100 -0.3194
   38POPC   C26 5092   4.005   3.402   7.334 -0.2955  0.1222 -0.6176
   38POPC   H6R 5093   4.001   3.513   7.343  0.4487  0.0041  2.5799
   38POPC   H6S 5094   4.114   3.383   7.342 -0.1071  1.7147  2.0713
   38POPC   C27 5095   3.939   3.338   7.456  0.4051 -0.4062 -0.7354
   38POPC   H7R 5096   3.937   3.228   7.462  1.6741 -0.4715 -1.1831
   38POPC   H7S 5097   3.831   3.362   7.446  0.5336  0.0270 -1.1766
   38POPC   C28 5098   3.988   3.397   7.586  0.0226  0.5644  0.4891
   38POPC   H8R 5099   3.985   3.508   7.581 -0.7493  0.5281 -0.4338
   38POPC   H8S 5100   4.094   3.368   7.595  1.0300  3.5451 -0.6761
   38POPC   C29 5101   3.899   3.358   7.704 -0.3234 -0.3287  0.9340
   38POPC   H91 5102   3.822   3.432   7.730 -1.5383 -1.0966 -0.3468
   38POPC  C210 5103   3.914   3.257   7.789 -0.8335  0.8564 -0.1063
   38POPC  H101 5104   3.838   3.231   7.864 -1.4779  0.3330 -0.9235
   38POPC  C211 5105   4.039   3.164   7.790  0.0545  0.0785  0.7696
   38POPC  H11R 5106   4.131   3.193   7.736 -1.0496 -0.2976 -1.4073
   38POPC  H11S 5107   4.009   3.063   7.754  2.0017 -0.3575  0.2724
   38POPC  C212 5108   4.080   3.168   7.942 -0.1106  0.4267  0.7097
   38POPC  H12R 5109   3.992   3.153   8.009 -0.3613  0.0739  0.3081
   38POPC  H12S 5110   4.119   3.269   7.966 -0.2137  0.5204  0.4748
   38POPC  C213 5111   4.173   3.045   7.969  0.2049 -0.3405 -0.0619
   38POPC  H13R 5112   4.259   3.050   7.900  1.8598 -2.3790  1.6962
   38POPC  H13S 5113   4.115   2.956   7.938  1.8185 -2.0882  1.6480
   38POPC  C214 5114   4.220   3.024   8.114  0.7752 -0.4073  0.0786
   38POPC  H14R 5115   4.297   3.101   8.137  0.9265 -0.1236 -1.2880
   38POPC  H14S 5116   4.268   2.925   8.127 -2.5309 -2.1403  0.2763
   38POPC  C215 5117   4.095   3.032   8.205 -0.1333  0.0692 -0.1185
   38POPC  H15R 5118   4.009   2.978   8.161 -0.0165  1.5191 -2.2816
   38POPC  H15S 5119   4.055   3.135   8.213 -1.9998 -0.6719  0.4527
   38POPC  C216 5120   4.128   2.972   8.343 -0.7402 -0.9900  0.0603
   38POPC  H16R 5121   4.197   3.047   8.389  0.2489 -1.5334 -0.4949
   38POPC  H16S 5122   4.186   2.877   8.339  2.1772  0.6402  0.1924
   38POPC  C217 5123   4.009   2.968   8.435 -0.3500  0.1188  0.5882
   38POPC  H17R 5124   3.931   2.901   8.393 -3.0628  2.4829  1.4863
   38POPC  H17S 5125   3.955   3.065   8.432 -3.3210 -1.3374  2.4061
   38POPC  C218 5126   4.039   2.933   8.580  0.4140  0.2463  0.0024
   38POPC  H18R 5127   3.947   2.938   8.642  0.0759  0.3952 -0.5077
   38POPC  H18S 5128   4.122   2.992   8.624  2.7991 -3.7283  1.3463
   38POPC  H18T 5129   4.068   2.826   8.582 -0.2858  0.0594  1.1661
   38POPC   C33 5130   4.465   3.414   7.078 -0.2215 -0.7599 -0.0749
   38POPC   H3X 5131   4.413   3.509   7.052  0.5024 -1.0636 -2.8796
   38POPC   H3Y 5132   4.570   3.445   7.066 -0.1591 -0.1307  1.7969
   38POPC   C34 5133   4.428   3.376   7.220 -0.6456 -0.1166 -0.7756
   38POPC   H4X 5134   4.329   3.326   7.216 -0.5750 -0.1675 -3.4356
   38POPC   H4Y 5135   4.409   3.465   7.284 -1.7738  0.6281 -2.0849
   38POPC   C35 5136   4.524   3.271   7.283 -0.4680 -0.4403  0.7756
   38POPC   H5X 5137   4.625   3.307   7.252 -2.3870  3.8192 -1.4369
   38POPC   H5Y 5138   4.500   3.181   7.222  0.0080  0.9896 -1.6595
   38POPC   C36 5139   4.505   3.265   7.436 -0.0328  0.9400  0.6372
   38POPC   H6X 5140   4.404   3.226   7.461  0.0164  0.2171 -0.2260
   38POPC   H6Y 5141   4.516   3.369   7.473 -1.0474  0.9602  0.9086
   38POPC   C37 5142   4.607   3.175   7.500 -0.5819 -0.0561 -0.0204
   38POPC   H7X 5143   4.709   3.206   7.471 -0.8114 -1.0312 -2.0389
   38POPC   H7Y 5144   4.588   3.069   7.471  1.1999 -0.2396 -0.6547
   38POPC   C38 5145   4.571   3.186   7.659 -0.1579  0.4926  0.9920
   38POPC   H8X 5146   4.461   3.178   7.672  0.0468  0.0146  2.5480
   38POPC   H8Y 5147   4.608   3.285   7.693 -1.5437  1.4222 -0.1003
   38POPC   C39 5148   4.636   3.065   7.733 -0.2907  0.7670  0.0556
   38POPC   H9X 5149   4.744   3.059   7.709 -0.7338 -0.9770 -1.7593
   38POPC   H9Y 5150   4.597   2.969   7.693 -1.3552 -0.1607  3.0280
   38POPC  C310 5151   4.643   3.063   7.892  0.6919 -0.8172 -0.3610
   38POPC  H10X 5152   4.541   3.065   7.937  1.1288  0.1272  0.6314
   38POPC  H10Y 5153   4.698   3.154   7.924  0.3318 -0.4677 -0.7216
   38POPC  C311 5154   4.736   2.954   7.946  0.1163 -0.8477  0.5716
   38POPC  H11X 5155   4.836   3.002   7.948  0.9322 -2.4575  2.4181
   38POPC  H11Y 5156   4.753   2.873   7.871  2.5034  1.8693 -2.0747
   38POPC  C312 5157   4.710   2.917   8.088  0.2729 -0.1329  0.2117
   38POPC  H12X 5158   4.669   3.006   8.139  1.4251  0.1402  0.6917
   38POPC  H12Y 5159   4.804   2.891   8.142  0.1047 -0.4764  0.3420
   38POPC  C313 5160   4.603   2.814   8.112  0.6261  0.2330 -0.2493
   38POPC  H13X 5161   4.629   2.720   8.058 -1.1063 -0.1190 -0.5292
   38POPC  H13Y 5162   4.509   2.858   8.072 -0.6340  0.7496  3.0203
   38POPC  C314 5163   4.576   2.782   8.259  0.1430  0.1619  0.1883
   38POPC  H14X 5164   4.512   2.691   8.260 -1.7663  1.2950 -3.4338
   38POPC  H14Y 5165   4.511   2.860   8.305 -0.2132 -1.3759  2.4426
   38POPC  C315 5166   4.698   2.748   8.337 -0.3080  0.5073 -0.0746
   38POPC  H15X 5167   4.656   2.723   8.437  1.6798  1.3862  1.0391
   38POPC  H15Y 5168   4.755   2.842   8.350  3.0701 -1.3822  0.0553
   38POPC  C316 5169   4.781   2.632   8.278 -0.0147  0.0562  0.5764
   38POPC  H16X 5170   4.835   2.657   8.183  1.7099  2.0952  1.9817
   38POPC  H16Y 5171   4.720   2.541   8.269  0.2218  0.0270 -1.3551
   38POPC  H16Z 5172   4.859   2.608   8.353 -1.4036  2.0491  2.8163
   39POPC     N 5173   5.368   0.110   5.928 -0.5300  0.4977  0.3716
   39POPC   C12 5174   5.416   0.192   6.046  0.2356  0.5639  0.7499
   39POPC  H12A 5175   5.330   0.206   6.109  0.6808  2.3275  1.0120
   39POPC  H12B 5176   5.455   0.286   6.010 -2.9481  1.4686 -0.6913
   39POPC   C13 5177   5.286  -0.010   5.959 -0.2201 -0.9673  0.3516
   39POPC  H13A 5178   5.198   0.011   6.019  0.1137  1.8628 -0.0033
   39POPC  H13B 5179   5.250  -0.053   5.867  0.0120 -0.1214 -0.1466
   39POPC  H13C 5180   5.343  -0.088   6.007 -0.0494 -1.2136 -0.2519
   39POPC   C14 5181   5.303   0.209   5.830  0.3804 -0.3700 -1.1262
   39POPC  H14A 5182   5.281   0.303   5.879  2.2378 -0.1515 -0.6187
   39POPC  H14B 5183   5.369   0.251   5.755 -0.2617  1.3721 -0.7788
   39POPC  H14C 5184   5.229   0.162   5.767  0.4980  0.2387 -1.7388
   39POPC   C15 5185   5.487   0.051   5.857 -0.6467 -0.4731  0.1039
   39POPC  H15A 5186   5.567   0.037   5.927 -0.5266 -0.5729 -0.0512
   39POPC  H15B 5187   5.531   0.122   5.787  1.6608 -1.0221  0.9231
   39POPC  H15C 5188   5.462  -0.040   5.804  0.1251 -0.1053 -0.9455
   39POPC   C11 5189   5.508   0.126   6.153 -0.0352 -0.0690  0.4435
   39POPC  H11A 5190   5.451   0.034   6.180 -1.1779 -0.2312 -2.1352
   39POPC  H11B 5191   5.517   0.205   6.231  0.0618 -0.5321  0.9063
   39POPC     P 5192   5.761   0.180   6.124 -0.1058 -0.0986 -0.2209
   39POPC   O13 5193   5.721   0.318   6.092  0.0130 -0.0115  0.3958
   39POPC   O14 5194   5.885   0.128   6.058  0.0131 -0.0305  0.8129
   39POPC   O12 5195   5.632   0.089   6.089  0.6092  0.2675 -0.4547
   39POPC   O11 5196   5.774   0.169   6.281 -0.3273 -0.1079  0.3725
   39POPC    C1 5197   5.754   0.045   6.341 -0.3105 -0.4422 -0.1144
   39POPC    HA 5198   5.811  -0.036   6.290 -0.2120 -0.9709  0.8059
   39POPC    HB 5199   5.646   0.020   6.341 -0.0607 -1.6499  0.5872
   39POPC    C2 5200   5.786   0.043   6.491  0.3666 -0.3717  0.6313
   39POPC    HS 5201   5.718   0.113   6.544  0.6810  0.7667 -0.4508
   39POPC   O21 5202   5.923   0.084   6.521 -0.3015 -0.2748  0.2729
   39POPC   C21 5203   5.952   0.213   6.518  0.1608 -0.3827  0.7343
   39POPC   O22 5204   5.873   0.306   6.509  0.0664 -0.2902  0.0192
   39POPC   C22 5205   6.101   0.231   6.535 -0.4133  0.0926  0.2735
   39POPC   H2R 5206   6.115   0.341   6.521 -1.6536  0.0451 -1.6678
   39POPC   H2S 5207   6.164   0.171   6.467 -0.0789 -1.0152  1.5213
   39POPC    C3 5208   5.765  -0.102   6.553 -0.2874  1.0619  0.2593
   39POPC    HX 5209   5.828  -0.173   6.496 -0.6688  1.8145 -1.1681
   39POPC    HY 5210   5.661  -0.133   6.528  0.3149  0.5871 -1.8526
   39POPC   O31 5211   5.773  -0.101   6.697 -0.3947  0.3337  0.8161
   39POPC   C31 5212   5.882  -0.153   6.747 -0.6344 -0.2798 -1.2988
   39POPC   O32 5213   5.972  -0.208   6.688  0.9219  0.0509 -0.0260
   39POPC   C32 5214   5.862  -0.152   6.903  0.1070  0.3560  0.7822
   39POPC   H2X 5215   5.877  -0.260   6.925 -0.5962  0.1196  0.1736
   39POPC   H2Y 5216   5.953  -0.112   6.952  0.7134  1.1379 -0.8937
   39POPC   C23 5217   6.145   0.187   6.676 -0.0950  0.0940 -0.5723
   39POPC   H3R 5218   6.251   0.220   6.683  0.3873 -1.3080 -0.9741
   39POPC   H3S 5219   6.143   0.076   6.679  0.3431  0.0306 -1.8100
   39POPC   C24 5220   6.069   0.265   6.785  0.0032 -0.0006  0.1812
   39POPC   H4R 5221   5.963   0.234   6.774  0.2831 -0.8578 -0.1879
   39POPC   H4S 5222   6.090   0.374   6.781  0.5635 -0.1407 -0.8947
   39POPC   C25 5223   6.115   0.193   6.922 -0.1159 -1.0906 -0.0625
   39POPC   H5R 5224   6.225   0.208   6.926 -0.0025 -1.8983  3.9337
   39POPC   H5S 5225   6.091   0.087   6.903  1.6227 -1.1880 -2.0959
   39POPC   C26 5226   6.043   0.258   7.046  0.1098  0.0983 -0.2792
   39POPC   H6R 5227   5.939   0.218   7.049  0.4274 -0.6953  1.7246
   39POPC   H6S 5228   6.045   0.368   7.028  0.9580 -0.0010 -0.8598
   39POPC   C27 5229   6.118   0.224   7.181 -0.2730 -0.5834 -0.0346
   39POPC   H7R 5230   6.213   0.279   7.162 -0.5943  0.2266  0.6228
   39POPC   H7S 5231   6.138   0.115   7.189 -0.7181 -0.6662 -0.0201
   39POPC   C28 5232   6.039   0.268   7.307 -0.5667  0.0857  0.6937
   39POPC   H8R 5233   5.937   0.225   7.307 -0.1947 -0.9717 -1.8230
   39POPC   H8S 5234   6.019   0.377   7.308 -1.3642  0.0708 -2.4483
   39POPC   C29 5235   6.130   0.235   7.424 -0.4697 -0.3892  0.5112
   39POPC   H91 5236   6.221   0.297   7.422 -2.7545  3.3338  1.4293
   39POPC  C210 5237   6.102   0.163   7.537  0.6339 -0.5602 -0.1699
   39POPC  H101 5238   6.171   0.155   7.621 -2.0082 -2.2373  2.0389
   39POPC  C211 5239   5.972   0.098   7.567 -0.1229 -0.1517  0.0259
   39POPC  H11R 5240   5.997  -0.009   7.584 -0.5873 -0.2419  0.1623
   39POPC  H11S 5241   5.894   0.104   7.489 -0.2313 -0.6838  0.0862
   39POPC  C212 5242   5.921   0.172   7.689 -0.4670  0.0057  0.2590
   39POPC  H12R 5243   5.896   0.277   7.663 -1.3349  0.1883  1.7325
   39POPC  H12S 5244   6.003   0.179   7.763 -0.1028  1.7752 -0.2554
   39POPC  C213 5245   5.802   0.095   7.758 -0.1182 -0.3612 -0.4449
   39POPC  H13R 5246   5.814  -0.015   7.748  0.4714 -0.2256 -1.3346
   39POPC  H13S 5247   5.709   0.120   7.703  0.0561 -0.4747 -0.7986
   39POPC  C214 5248   5.779   0.132   7.906 -0.4345  0.6181 -0.0945
   39POPC  H14R 5249   5.742   0.236   7.920 -2.0034 -0.1999  2.4635
   39POPC  H14S 5250   5.870   0.119   7.969  0.4621  1.2742 -1.2329
   39POPC  C215 5251   5.659   0.055   7.976  0.1630 -0.4409 -0.0499
   39POPC  H15R 5252   5.693  -0.051   7.971  2.5341  0.2080  0.8345
   39POPC  H15S 5253   5.560   0.066   7.928 -0.3905 -0.7851  0.9628
   39POPC  C216 5254   5.637   0.077   8.124  0.2002  0.1141 -0.1207
   39POPC  H16R 5255   5.728   0.040   8.177 -0.5597  1.5047  2.3035
   39POPC  H16S 5256   5.552   0.014   8.157  0.0652 -0.0247 -0.7167
   39POPC  C217 5257   5.616   0.230   8.151  0.1105  0.1474 -0.1219
   39POPC  H17R 5258   5.521   0.254   8.097 -0.4325 -1.1681  0.2093
   39POPC  H17S 5259   5.695   0.295   8.109  1.3618  0.5211  2.6190
   39POPC  C218 5260   5.614   0.266   8.304  0.1164 -0.4245 -0.5692
   39POPC  H18R 5261   5.584   0.371   8.328 -0.0142  0.4354 -4.0097
   39POPC  H18S 5262   5.710   0.251   8.359 -0.6600  0.2678  1.0418
   39POPC  H18T 5263   5.545   0.201   8.362 -1.4742  1.2559 -0.4830
   39POPC   C33 5264   5.726  -0.096   6.954 -0.2374  0.8819  1.1900
   39POPC   H3X 5265   5.656  -0.179   6.932  2.0455 -0.1935 -2.9497
   39POPC   H3Y 5266   5.696  -0.006   6.897  0.3325  1.7260  2.1837
   39POPC   C34 5267   5.737  -0.075   7.099  0.1697  0.5668 -0.3955
   39POPC   H4X 5268   5.648  -0.028   7.145  0.9458  0.8419  0.8807
   39POPC   H4Y 5269   5.820  -0.007   7.128 -0.3845  0.7452  0.8470
   39POPC   C35 5270   5.765  -0.208   7.173 -0.0070  0.1733  0.5992
   39POPC   H5X 5271   5.873  -0.234   7.161 -0.1426  0.0830 -0.5158
   39POPC   H5Y 5272   5.702  -0.290   7.134 -0.9867  2.1601 -2.3041
   39POPC   C36 5273   5.745  -0.191   7.326 -0.1610 -0.0605 -0.5545
   39POPC   H6X 5274   5.635  -0.177   7.339 -0.2606 -2.1853  1.5908
   39POPC   H6Y 5275   5.795  -0.102   7.368  2.2222 -1.7288  0.3388
   39POPC   C37 5276   5.769  -0.318   7.410  0.3894 -0.4918 -0.2158
   39POPC   H7X 5277   5.877  -0.345   7.412  1.0237  1.8627  1.3696
   39POPC   H7Y 5278   5.700  -0.402   7.387  2.5403 -2.7151  0.9378
   39POPC   C38 5279   5.756  -0.269   7.557 -0.8263  0.1598  0.8811
   39POPC   H8X 5280   5.673  -0.197   7.566 -1.0303  0.3074 -1.5862
   39POPC   H8Y 5281   5.849  -0.211   7.576 -0.5053 -0.2486  0.5822
   39POPC   C39 5282   5.753  -0.376   7.661  0.6888  0.4637 -0.4620
   39POPC   H9X 5283   5.850  -0.430   7.665  0.2766 -0.2306  0.4698
   39POPC   H9Y 5284   5.662  -0.435   7.637  1.6801 -0.8859 -1.0462
   39POPC  C310 5285   5.731  -0.318   7.802 -0.1959 -0.0189 -0.4784
   39POPC  H10X 5286   5.644  -0.249   7.799 -1.1477 -1.1462  0.1436
   39POPC  H10Y 5287   5.817  -0.259   7.840  0.2209 -0.8655 -0.0922
   39POPC  C311 5288   5.711  -0.429   7.901 -0.4980  0.9773 -0.4193
   39POPC  H11X 5289   5.793  -0.504   7.895 -0.8652  0.5321  0.1060
   39POPC  H11Y 5290   5.618  -0.484   7.875 -0.6270  0.7660  0.4492
   39POPC  C312 5291   5.701  -0.390   8.044 -0.7282  0.0713  0.0565
   39POPC  H12X 5292   5.785  -0.323   8.074 -1.1441  1.3147 -1.4235
   39POPC  H12Y 5293   5.705  -0.480   8.110 -3.1148 -0.6422 -0.6831
   39POPC  C313 5294   5.566  -0.321   8.072 -0.4720  0.6552 -0.0045
   39POPC  H13X 5295   5.491  -0.384   8.020 -1.3462  1.8115 -0.1921
   39POPC  H13Y 5296   5.556  -0.214   8.044 -2.6073  0.7055  0.7502
   39POPC  C314 5297   5.525  -0.327   8.220  0.3363 -0.0025 -0.0365
   39POPC  H14X 5298   5.567  -0.231   8.258 -3.0974  1.5898  0.1148
   39POPC  H14Y 5299   5.569  -0.419   8.262  0.5549  0.1248  0.0135
   39POPC  C315 5300   5.371  -0.297   8.243 -0.7246  0.1197 -0.0056
   39POPC  H15X 5301   5.312  -0.378   8.194 -0.1088  0.3340 -1.1350
   39POPC  H15Y 5302   5.341  -0.206   8.188 -1.9409  0.3375  0.9782
   39POPC  C316 5303   5.328  -0.284   8.390 -0.0059 -0.3304 -0.1480
   39POPC  H16X 5304   5.378  -0.201   8.446 -0.1123 -0.1900 -0.2626
   39POPC  H16Y 5305   5.358  -0.376   8.444 -0.1273  0.1748  0.8100
   39POPC  H16Z 5306   5.219  -0.266   8.387 -0.0875 -0.7955  0.0452
   40POPC     N 5307   2.075   4.748   6.233  0.5496  0.2275  1.6477
   40POPC   C12 5308   2.208   4.720   6.286 -0.0818 -0.0215  0.4479
   40POPC  H12A 5309   2.272   4.772   6.217 -1.3785  4.6721  2.4100
   40POPC  H12B 5310   2.216   4.612   6.288 -2.4703 -0.2505  0.6566
   40POPC   C13 5311   1.976   4.697   6.326  0.2415 -0.6491 -0.5942
   40POPC  H13A 5312   1.986   4.592   6.349 -2.0896 -0.7845  0.0441
   40POPC  H13B 5313   1.981   4.757   6.415  2.2272  2.4897 -2.5885
   40POPC  H13C 5314   1.874   4.706   6.290 -0.6482 -1.3541  1.6316
   40POPC   C14 5315   2.059   4.892   6.216  0.5886 -0.1463  0.0801
   40POPC  H14A 5316   2.056   4.926   6.319 -0.0189 -0.7885  0.2850
   40POPC  H14B 5317   2.136   4.944   6.162 -2.1259  1.8220 -2.2004
   40POPC  H14C 5318   1.959   4.906   6.176  0.0020 -0.7430  1.2844
   40POPC   C15 5319   2.057   4.691   6.091  0.0688 -0.5817 -0.5196
   40POPC  H15A 5320   1.952   4.684   6.068 -0.1205 -0.4460  0.2644
   40POPC  H15B 5321   2.082   4.586   6.094  2.0480 -0.1655 -1.1655
   40POPC  H15C 5322   2.110   4.744   6.013  2.2805 -0.4955  0.9453
   40POPC   C11 5323   2.239   4.767   6.432 -0.4482  0.1763 -0.3208
   40POPC  H11A 5324   2.340   4.743   6.472  0.2080 -0.3060 -2.1797
   40POPC  H11B 5325   2.178   4.708   6.504  1.5018 -1.3143  0.2135
   40POPC     P 5326   2.328   5.008   6.409  0.2010  0.4684 -0.0380
   40POPC   O13 5327   2.260   5.125   6.359 -0.6622  0.4666 -0.6345
   40POPC   O14 5328   2.425   4.940   6.314 -0.2014 -0.5834  0.3137
   40POPC   O12 5329   2.216   4.905   6.454  0.0392 -0.0095 -0.6772
   40POPC   O11 5330   2.404   5.026   6.544  0.2216  0.1383  0.4062
   40POPC    C1 5331   2.324   5.066   6.660  0.2296 -0.0155  0.3130
   40POPC    HA 5332   2.228   5.014   6.678  0.1898  0.1868  0.6856
   40POPC    HB 5333   2.318   5.177   6.667 -0.0825  0.0762 -1.0166
   40POPC    C2 5334   2.389   5.010   6.783  0.0055 -0.0360  0.5092
   40POPC    HS 5335   2.327   5.034   6.873  2.0432  0.0878  1.9510
   40POPC   O21 5336   2.523   5.059   6.802 -0.2499 -0.8549 -0.1692
   40POPC   C21 5337   2.530   5.166   6.872  0.0792  0.5758  0.5998
   40POPC   O22 5338   2.442   5.224   6.933 -0.0814  0.1660  0.4336
   40POPC   C22 5339   2.679   5.221   6.862  0.2290 -0.2147 -0.1362
   40POPC   H2R 5340   2.699   5.280   6.770  1.8913 -2.0855 -1.0358
   40POPC   H2S 5341   2.751   5.137   6.860 -0.2212 -0.9066  3.7449
   40POPC    C3 5342   2.398   4.853   6.784  0.3952  0.5062  0.0445
   40POPC    HX 5343   2.440   4.828   6.684  0.0610  0.7725 -0.1658
   40POPC    HY 5344   2.294   4.815   6.773  1.5345 -2.6458 -0.9389
   40POPC   O31 5345   2.471   4.787   6.902 -0.1069  0.0012  0.3768
   40POPC   C31 5346   2.530   4.684   6.863 -0.7045  0.2263  0.3632
   40POPC   O32 5347   2.543   4.635   6.754  0.4258 -0.5105  0.4553
   40POPC   C32 5348   2.608   4.615   6.981  0.5332 -0.2817 -0.3569
   40POPC   H2X 5349   2.716   4.631   6.959  0.2300  3.2341  0.0625
   40POPC   H2Y 5350   2.587   4.506   6.975 -1.4951 -0.0303  1.1549
   40POPC   C23 5351   2.704   5.302   6.991  0.1153  0.6193  0.3890
   40POPC   H3R 5352   2.624   5.374   7.019 -0.2867 -0.2669  1.6495
   40POPC   H3S 5353   2.797   5.361   6.984  0.6252 -0.3717 -2.2028
   40POPC   C24 5354   2.726   5.212   7.110  0.4136 -0.9021  0.1739
   40POPC   H4R 5355   2.798   5.128   7.100  1.0429 -0.2271 -1.3187
   40POPC   H4S 5356   2.633   5.157   7.134 -0.7839  1.1649  0.4674
   40POPC   C25 5357   2.780   5.291   7.228  0.7815 -0.4113 -0.0499
   40POPC   H5R 5358   2.711   5.371   7.262  1.2996 -1.2894  3.4287
   40POPC   H5S 5359   2.866   5.354   7.196  0.2571 -0.2345 -1.1841
   40POPC   C26 5360   2.812   5.214   7.362  0.1550 -0.2318  0.0191
   40POPC   H6R 5361   2.847   5.289   7.437  0.1761  0.5890 -0.7950
   40POPC   H6S 5362   2.895   5.145   7.338 -0.5891 -0.5632 -1.7484
   40POPC   C27 5363   2.698   5.144   7.423  0.2493 -0.5647  0.5510
   40POPC   H7R 5364   2.699   5.039   7.387  0.1498  0.0930 -1.4958
   40POPC   H7S 5365   2.613   5.190   7.369 -0.6059 -1.9079  0.7246
   40POPC   C28 5366   2.691   5.143   7.580 -0.3185 -0.1160  0.4689
   40POPC   H8R 5367   2.608   5.076   7.611 -0.3806  0.4514  1.5684
   40POPC   H8S 5368   2.666   5.244   7.619 -0.3982  0.4784 -1.0700
   40POPC   C29 5369   2.823   5.090   7.637 -0.5308  0.1448  0.0210
   40POPC   H91 5370   2.878   5.018   7.576  1.0339  1.2650  0.0641
   40POPC  C210 5371   2.888   5.133   7.753  0.4161  0.1674  0.3216
   40POPC  H101 5372   2.988   5.094   7.776 -0.6692 -2.2162  1.2597
   40POPC  C211 5373   2.849   5.232   7.858  0.2538  0.0100  0.3295
   40POPC  H11R 5374   2.757   5.290   7.836  0.1190 -1.2859 -3.0778
   40POPC  H11S 5375   2.933   5.305   7.861  1.2936 -1.1449 -0.0635
   40POPC  C212 5376   2.838   5.167   7.990  0.5271  0.4738 -0.8747
   40POPC  H12R 5377   2.933   5.117   8.019  0.1331  0.6441  0.8682
   40POPC  H12S 5378   2.755   5.092   7.993  1.4202 -0.6019  3.0879
   40POPC  C213 5379   2.802   5.270   8.099  0.2215  0.0740  0.2939
   40POPC  H13R 5380   2.705   5.316   8.072  0.1931  0.3463  0.8535
   40POPC  H13S 5381   2.889   5.335   8.076 -0.1334 -0.3560 -2.7211
   40POPC  C214 5382   2.817   5.212   8.246 -0.0256  0.5151 -0.2058
   40POPC  H14R 5383   2.915   5.160   8.254  0.0459  0.7213  0.2529
   40POPC  H14S 5384   2.733   5.145   8.274  0.0711  0.8976  1.0591
   40POPC  C215 5385   2.819   5.328   8.345  0.9606 -0.2030  0.7175
   40POPC  H15R 5386   2.737   5.394   8.308  0.8047 -0.2985  0.8865
   40POPC  H15S 5387   2.914   5.385   8.347  0.8461  0.1604 -1.6605
   40POPC  C216 5388   2.788   5.299   8.497  0.0033  0.5971 -0.4705
   40POPC  H16R 5389   2.677   5.290   8.507  0.1492  0.3213  1.1547
   40POPC  H16S 5390   2.818   5.390   8.553 -2.3387  0.3018  1.4404
   40POPC  C217 5391   2.869   5.181   8.554 -0.4697 -0.5658 -0.3760
   40POPC  H17R 5392   2.967   5.232   8.544 -1.5939  2.3260  1.8242
   40POPC  H17S 5393   2.862   5.094   8.486  1.1837 -0.3594 -0.8490
   40POPC  C218 5394   2.831   5.143   8.702 -0.4274  0.1519  0.0195
   40POPC  H18R 5395   2.895   5.062   8.742 -1.8592 -0.6198  0.8490
   40POPC  H18S 5396   2.727   5.105   8.705 -1.0398  1.8168  1.4448
   40POPC  H18T 5397   2.833   5.233   8.767  1.0439  1.2407 -1.4578
   40POPC   C33 5398   2.567   4.676   7.113 -0.4101  0.1722 -0.1476
   40POPC   H3X 5399   2.461   4.690   7.143 -0.7281 -2.4527  0.2739
   40POPC   H3Y 5400   2.603   4.779   7.096 -0.1157  0.1313  0.2062
   40POPC   C34 5401   2.650   4.620   7.240 -0.3222  0.4915  0.1069
   40POPC   H4X 5402   2.759   4.606   7.223 -0.6000 -0.9210 -0.7109
   40POPC   H4Y 5403   2.605   4.518   7.245 -0.5725  0.6323  0.9541
   40POPC   C35 5404   2.627   4.693   7.372  0.0913 -0.3978 -0.1979
   40POPC   H5X 5405   2.521   4.683   7.401  0.3668 -0.9077  0.6634
   40POPC   H5Y 5406   2.647   4.802   7.362 -0.9187 -0.2900 -1.2950
   40POPC   C36 5407   2.720   4.632   7.480 -0.0719  0.0378  0.3800
   40POPC   H6X 5408   2.826   4.639   7.449 -0.1732 -1.4287 -0.4091
   40POPC   H6Y 5409   2.705   4.522   7.489  1.6845 -0.1604  1.3968
   40POPC   C37 5410   2.692   4.708   7.605 -0.4767 -0.1731 -0.0375
   40POPC   H7X 5411   2.587   4.694   7.637 -0.7620 -2.8128 -1.8380
   40POPC   H7Y 5412   2.708   4.817   7.586  1.1418 -0.8704 -3.6021
   40POPC   C38 5413   2.787   4.675   7.728  0.8118 -0.6663  0.4946
   40POPC   H8X 5414   2.890   4.688   7.689 -0.4320  2.4325 -2.2118
   40POPC   H8Y 5415   2.788   4.564   7.737  1.0824 -0.7324 -0.3329
   40POPC   C39 5416   2.758   4.758   7.849 -0.7280  0.1925 -0.0241
   40POPC   H9X 5417   2.654   4.736   7.882 -1.6906  3.3717 -0.6238
   40POPC   H9Y 5418   2.764   4.867   7.834  1.4318  0.2917  1.0719
   40POPC  C310 5419   2.859   4.728   7.970  0.0893 -0.1545  0.2710
   40POPC  H10X 5420   2.846   4.804   8.051 -1.2309 -2.8228  2.7604
   40POPC  H10Y 5421   2.964   4.719   7.936  0.0907 -1.3788  0.5781
   40POPC  C311 5422   2.844   4.590   8.021  0.0749 -0.0419 -0.0035
   40POPC  H11X 5423   2.855   4.521   7.935 -0.7016  0.1279 -0.2450
   40POPC  H11Y 5424   2.739   4.578   8.054 -0.0263 -1.1147 -0.6764
   40POPC  C312 5425   2.943   4.541   8.123 -0.6614 -0.2612  0.8016
   40POPC  H12X 5426   3.045   4.566   8.087 -0.8057 -0.5826  0.1576
   40POPC  H12Y 5427   2.927   4.431   8.132 -0.9537 -0.1550  1.6889
   40POPC  C313 5428   2.929   4.595   8.261  0.5585 -0.2977  1.3507
   40POPC  H13X 5429   2.821   4.616   8.279  0.5659 -0.9549  2.2429
   40POPC  H13Y 5430   2.982   4.693   8.254 -0.8493  0.4393  0.5271
   40POPC  C314 5431   2.972   4.501   8.372 -0.1963 -0.6071 -0.2286
   40POPC  H14X 5432   2.924   4.403   8.351 -0.2775 -0.0812 -2.7261
   40POPC  H14Y 5433   2.947   4.533   8.476  0.1960  1.2854 -0.6753
   40POPC  C315 5434   3.121   4.469   8.369 -0.0100 -0.2249 -0.0474
   40POPC  H15X 5435   3.174   4.565   8.350  1.7816 -0.5287  2.8667
   40POPC  H15Y 5436   3.140   4.407   8.279  0.6941 -0.9276  0.5698
   40POPC  C316 5437   3.183   4.394   8.494  0.9220 -0.0708  0.5572
   40POPC  H16X 5438   3.138   4.293   8.486 -0.7615  0.7003 -0.4629
   40POPC  H16Y 5439   3.167   4.441   8.594 -0.7669  1.9305 -0.5534
   40POPC  H16Z 5440   3.293   4.382   8.486  1.0640  0.5295  1.4909
   41CHL1    C3 5441   4.402   6.153  10.201 -1.0036  0.2505 -0.1408
   41CHL1    H3 5442   4.473   6.237  10.217  1.3484 -1.8979  1.4809
   41CHL1    O3 5443   4.312   6.162  10.305  0.8981  0.4587 -1.0218
   41CHL1   H3' 5444   4.229   6.189  10.266  0.9327  1.7406 -0.2547
   41CHL1    C4 5445   4.317   6.171  10.077 -0.1046  0.0199  0.3951
   41CHL1   H4A 5446   4.235   6.097  10.085 -0.4220  0.5148  2.2550
   41CHL1   H4B 5447   4.267   6.270  10.083  1.9655  1.2514 -1.2946
   41CHL1    C5 5448   4.402   6.160   9.946  0.1799  1.2994  0.1832
   41CHL1    C6 5449   4.419   6.262   9.864 -0.2455 -0.3469 -0.0989
   41CHL1    H6 5450   4.357   6.350   9.887 -0.6282 -0.5277 -0.4268
   41CHL1    C7 5451   4.498   6.255   9.731 -0.3036 -0.5174  0.3618
   41CHL1   H7A 5452   4.439   6.301   9.649 -0.0258  0.9131  0.9269
   41CHL1   H7B 5453   4.596   6.308   9.732 -0.5070 -0.0126 -1.8007
   41CHL1    C8 5454   4.519   6.109   9.692 -0.6183  0.5171  0.2460
   41CHL1    H8 5455   4.417   6.077   9.660  0.2165  0.1244 -2.2306
   41CHL1   C14 5456   4.617   6.104   9.575  0.4718 -0.1485  0.4574
   41CHL1   H14 5457   4.714   6.141   9.614 -0.5085  1.3803  1.5667
   41CHL1   C15 5458   4.597   6.184   9.446  0.1396  0.2800 -0.1547
   41CHL1  H15A 5459   4.491   6.178   9.413 -0.1142  1.3847  0.4191
   41CHL1  H15B 5460   4.606   6.293   9.466  0.1994 -0.2227  3.2281
   41CHL1   C16 5461   4.694   6.119   9.348 -0.0906  0.3151  0.3458
   41CHL1  H16A 5462   4.642   6.104   9.251 -1.0718 -1.3096  1.0862
   41CHL1  H16B 5463   4.781   6.184   9.328  0.4901 -0.1148  1.3966
   41CHL1   C17 5464   4.748   5.983   9.407  0.8509 -0.8629  0.7643
   41CHL1   H17 5465   4.837   6.025   9.461 -0.1670  0.9231  1.1337
   41CHL1   C13 5466   4.647   5.960   9.528 -0.5131  0.3173 -0.2776
   41CHL1   C18 5467   4.522   5.892   9.471 -0.1781 -0.4300 -0.5432
   41CHL1  H18A 5468   4.545   5.788   9.440 -1.5687 -0.4447 -1.6430
   41CHL1  H18B 5469   4.436   5.901   9.540 -0.5036  1.9372 -1.1564
   41CHL1  H18C 5470   4.477   5.949   9.387 -0.9780  1.2995  1.0079
   41CHL1   C12 5471   4.706   5.884   9.651  0.0503  0.7276 -0.0648
   41CHL1  H12A 5472   4.745   5.782   9.629 -0.5114  0.4192  0.3447
   41CHL1  H12B 5473   4.799   5.935   9.684  0.1749  0.7993 -0.5251
   41CHL1   C11 5474   4.615   5.889   9.766  0.0258  0.2652  0.0036
   41CHL1  H11A 5475   4.531   5.831   9.722  1.9849 -2.6095 -0.2283
   41CHL1  H11B 5476   4.659   5.831   9.850  1.0858  0.5257 -0.3589
   41CHL1    C9 5477   4.567   6.031   9.809 -0.1889  0.1622  0.2010
   41CHL1    H9 5478   4.651   6.094   9.844 -1.6412  3.4002 -1.6312
   41CHL1   C10 5479   4.477   6.026   9.931  0.3157  0.5971 -0.9265
   41CHL1   C19 5480   4.377   5.906   9.909 -0.3072 -0.5206 -0.7272
   41CHL1  H19A 5481   4.332   5.924   9.809 -0.9223  0.5349 -0.2826
   41CHL1  H19B 5482   4.421   5.805   9.917 -0.3363 -0.6439 -1.9809
   41CHL1  H19C 5483   4.290   5.914   9.978  0.3025 -0.2497  0.0160
   41CHL1    C1 5484   4.552   5.995  10.065 -0.3819 -0.2075 -0.1672
   41CHL1   H1A 5485   4.584   5.889  10.067  1.2288  0.2526  0.3457
   41CHL1   H1B 5486   4.636   6.068  10.068  0.4905 -1.2166  0.7504
   41CHL1    C2 5487   4.475   6.014  10.198 -0.2623  0.4116  0.5845
   41CHL1   H2A 5488   4.544   5.988  10.281 -0.4759 -2.7163 -0.0826
   41CHL1   H2B 5489   4.395   5.937  10.203  0.8610 -0.8373  0.0751
   41CHL1   C20 5490   4.791   5.876   9.303 -0.7016  0.5133  0.8708
   41CHL1   H20 5491   4.698   5.840   9.255  0.6704 -1.8923 -0.1884
   41CHL1   C21 5492   4.855   5.753   9.367 -0.4727 -0.5007  0.3167
   41CHL1  H21A 5493   4.941   5.774   9.434 -0.4298  2.1701 -0.4492
   41CHL1  H21B 5494   4.903   5.695   9.285  1.0292  1.8762 -0.6083
   41CHL1  H21C 5495   4.774   5.696   9.416  1.1272 -0.7869  2.7812
   41CHL1   C22 5496   4.872   5.940   9.183  0.1443  0.0813 -0.0867
   41CHL1  H22A 5497   4.809   6.019   9.137 -1.8533  1.0703  3.8793
   41CHL1  H22B 5498   4.970   5.978   9.217  1.0286 -0.1515 -2.2383
   41CHL1   C23 5499   4.908   5.843   9.059  0.2045  0.2787 -0.9678
   41CHL1  H23A 5500   4.979   5.760   9.079  1.9278  1.2048 -2.8462
   41CHL1  H23B 5501   4.822   5.789   9.013  0.6637 -1.0983 -0.2728
   41CHL1   C24 5502   4.967   5.933   8.957 -0.2222 -0.2637  0.1482
   41CHL1  H24A 5503   4.892   6.004   8.917 -2.0543 -1.4372  1.3304
   41CHL1  H24B 5504   5.049   5.994   9.000  1.3384 -1.7415 -0.6370
   41CHL1   C25 5505   5.035   5.870   8.834  0.1928 -0.2355 -0.9091
   41CHL1   H25 5506   5.130   5.819   8.861 -0.7912 -1.5478  0.2976
   41CHL1   C26 5507   4.941   5.774   8.760 -0.5066 -0.5869  0.9932
   41CHL1  H26A 5508   4.840   5.817   8.747 -0.1599  0.1984  0.8228
   41CHL1  H26B 5509   4.990   5.742   8.665 -0.0841 -0.0580  1.0263
   41CHL1  H26C 5510   4.937   5.676   8.812 -2.9119 -0.8674  0.3636
   41CHL1   C27 5511   5.082   5.978   8.742 -0.7170 -0.2946 -0.5724
   41CHL1  H27A 5512   5.143   5.936   8.659  0.7655 -0.8685  0.7501
   41CHL1  H27B 5513   4.998   6.039   8.701  0.5166  3.6684  2.2048
   41CHL1  H27C 5514   5.156   6.052   8.781 -0.6713 -0.8877  0.4822
   42CHL1    C3 5515   3.230   2.947   9.917 -0.8015 -0.0051  0.6903
   42CHL1    H3 5516   3.123   2.924   9.937  0.1070 -3.5190  2.2439
   42CHL1    O3 5517   3.285   2.947  10.045 -0.1962  0.3799 -0.8186
   42CHL1   H3' 5518   3.376   2.977  10.038 -0.8181  2.2758 -1.3247
   42CHL1    C4 5519   3.307   2.839   9.835  0.4315 -0.6510  0.7485
   42CHL1   H4A 5520   3.413   2.871   9.841 -0.1952  1.2750  2.7172
   42CHL1   H4B 5521   3.286   2.741   9.883 -4.2441  0.6127  1.8012
   42CHL1    C5 5522   3.270   2.846   9.687  0.6240 -0.4147  0.2372
   42CHL1    C6 5523   3.225   2.739   9.623 -0.9107  0.2555  0.6240
   42CHL1    H6 5524   3.224   2.646   9.683 -2.3687 -0.5335 -0.5522
   42CHL1    C7 5525   3.193   2.725   9.480  0.0987 -0.1958 -0.3127
   42CHL1   H7A 5526   3.238   2.631   9.440  1.4339  0.4945 -0.5081
   42CHL1   H7B 5527   3.085   2.698   9.475  0.5895 -2.6438  0.9275
   42CHL1    C8 5528   3.250   2.841   9.403 -0.3750  0.1565  0.2903
   42CHL1    H8 5529   3.360   2.832   9.402 -0.4723 -4.5069  2.7639
   42CHL1   C14 5530   3.177   2.845   9.273  0.3121 -0.3725  0.7422
   42CHL1   H14 5531   3.072   2.845   9.309  0.9848  0.0643  2.8674
   42CHL1   C15 5532   3.194   2.722   9.183 -0.5463  0.2625  0.0566
   42CHL1  H15A 5533   3.302   2.707   9.162 -0.3409  3.0940 -1.4884
   42CHL1  H15B 5534   3.138   2.636   9.224  1.0281 -0.7582  0.1489
   42CHL1   C16 5535   3.128   2.765   9.057  0.1307 -0.4627  0.2656
   42CHL1  H16A 5536   3.184   2.726   8.968  0.9127  0.9134  0.1290
   42CHL1  H16B 5537   3.025   2.726   9.062 -0.5158  1.0485 -0.6254
   42CHL1   C17 5538   3.122   2.921   9.062  0.1956 -0.3342 -0.9172
   42CHL1   H17 5539   3.017   2.944   9.092 -0.8366 -0.8391 -3.8480
   42CHL1   C13 5540   3.201   2.968   9.185 -0.5929  0.2040 -0.0175
   42CHL1   C18 5541   3.351   2.965   9.148 -0.1274  0.2052  0.1534
   42CHL1  H18A 5542   3.376   3.052   9.084 -0.3407  1.1840  1.3666
   42CHL1  H18B 5543   3.414   2.970   9.239 -2.2011  2.2333  1.5730
   42CHL1  H18C 5544   3.373   2.875   9.086  0.7130  0.5064 -0.0006
   42CHL1   C12 5545   3.158   3.098   9.265  0.3426  0.3436 -0.4139
   42CHL1  H12A 5546   3.168   3.190   9.204  0.7848  0.6459  0.0979
   42CHL1  H12B 5547   3.052   3.091   9.297  0.5945 -1.6013  0.1473
   42CHL1   C11 5548   3.235   3.098   9.389  0.6843 -0.7105 -0.0677
   42CHL1  H11A 5549   3.342   3.125   9.373  0.5433 -0.3002 -0.3495
   42CHL1  H11B 5550   3.193   3.183   9.447 -1.5702 -0.5920 -1.7080
   42CHL1    C9 5551   3.215   2.973   9.474 -0.1715  0.5145 -0.5313
   42CHL1    H9 5552   3.105   2.969   9.491  0.1802  1.4924  2.6919
   42CHL1   C10 5553   3.274   2.985   9.617 -0.0556  1.0595  0.3567
   42CHL1   C19 5554   3.420   3.030   9.609  0.0905 -0.3852  0.4253
   42CHL1  H19A 5555   3.477   3.029   9.704 -2.2219 -0.2176  1.8777
   42CHL1  H19B 5556   3.484   2.972   9.538 -0.1611  2.8253 -2.6757
   42CHL1  H19C 5557   3.422   3.133   9.569  1.2804 -0.7176 -0.4408
   42CHL1    C1 5558   3.194   3.077   9.707  0.2338 -0.0252 -0.1829
   42CHL1   H1A 5559   3.202   3.181   9.669 -0.3733 -0.2675 -0.9888
   42CHL1   H1B 5560   3.088   3.047   9.706  0.4248 -1.2177  3.0273
   42CHL1    C2 5561   3.245   3.086   9.849  0.1803 -0.1274 -0.0240
   42CHL1   H2A 5562   3.191   3.161   9.909 -1.5774  0.6847 -2.4693
   42CHL1   H2B 5563   3.350   3.122   9.858  0.3783  0.2543 -2.8903
   42CHL1   C20 5564   3.138   2.984   8.926  0.2053  0.1919  0.0533
   42CHL1   H20 5565   3.240   2.962   8.889 -0.4441 -1.2439 -0.9674
   42CHL1   C21 5566   3.114   3.136   8.940 -0.5103 -0.3118 -0.1309
   42CHL1  H21A 5567   3.196   3.180   9.000  0.4968 -0.5471 -1.3151
   42CHL1  H21B 5568   3.018   3.158   8.992  0.1902 -0.3499  1.2232
   42CHL1  H21C 5569   3.108   3.172   8.835 -0.9267 -2.6360 -0.9725
   42CHL1   C22 5570   3.047   2.914   8.818  0.4015 -1.1566 -0.1304
   42CHL1  H22A 5571   3.079   2.808   8.808  0.9086 -1.1251  1.0080
   42CHL1  H22B 5572   2.939   2.919   8.842 -0.3439  1.5383 -3.3472
   42CHL1   C23 5573   3.056   2.972   8.671 -0.2873 -0.8036  0.1793
   42CHL1  H23A 5574   3.015   3.076   8.675  1.0750 -0.2674  0.9494
   42CHL1  H23B 5575   3.163   2.976   8.642 -0.1923  1.0215  0.6645
   42CHL1   C24 5576   2.968   2.895   8.580 -0.0702 -0.1552  0.4276
   42CHL1  H24A 5577   2.995   2.787   8.573 -1.0960 -0.5088  1.5802
   42CHL1  H24B 5578   2.870   2.897   8.633  0.0768 -2.4479  0.8832
   42CHL1   C25 5579   2.961   2.943   8.434  1.1726 -0.6154  0.1553
   42CHL1   H25 5580   2.951   3.054   8.430 -0.7679 -0.7944 -1.8602
   42CHL1   C26 5581   3.097   2.903   8.369  0.0841  0.0651 -0.0851
   42CHL1  H26A 5582   3.175   2.937   8.441 -1.1841 -0.1617  1.4501
   42CHL1  H26B 5583   3.086   2.795   8.347  1.1785  0.3665 -2.4287
   42CHL1  H26C 5584   3.101   2.961   8.274 -3.4025  0.1919 -0.2895
   42CHL1   C27 5585   2.838   2.882   8.366  0.6181 -0.2632  0.5560
   42CHL1  H27A 5586   2.835   2.772   8.358  0.8688 -0.1197 -2.3256
   42CHL1  H27B 5587   2.744   2.908   8.419  1.1537  0.7617  1.0544
   42CHL1  H27C 5588   2.831   2.916   8.261  1.4642 -1.2890  0.1531
   43CHL1    C3 5589   4.017   4.131   9.972 -0.1915 -0.5180  0.1093
   43CHL1    H3 5590   3.973   4.030   9.988 -2.2072  0.6323  2.4822
   43CHL1    O3 5591   4.023   4.190  10.105  0.5970  0.2607  0.1946
   43CHL1   H3' 5592   4.007   4.283  10.085  0.5997  0.3134  0.4374
   43CHL1    C4 5593   4.150   4.137   9.907 -0.5368 -0.1444  0.2608
   43CHL1   H4A 5594   4.198   4.237   9.915  0.0722 -0.4889  1.1977
   43CHL1   H4B 5595   4.222   4.063   9.949  0.7389  1.0696  0.3178
   43CHL1    C5 5596   4.148   4.097   9.759 -0.2106  0.1279  1.2768
   43CHL1    C6 5597   4.233   4.005   9.710  0.5144 -0.2207 -0.1115
   43CHL1    H6 5598   4.310   3.954   9.770 -1.5102 -2.7689  0.5176
   43CHL1    C7 5599   4.237   3.971   9.568  0.8510 -0.0042 -0.7867
   43CHL1   H7A 5600   4.341   3.973   9.530  0.0723 -0.4638 -3.0934
   43CHL1   H7B 5601   4.192   3.869   9.559  1.4095 -0.5394  1.7451
   43CHL1    C8 5602   4.156   4.062   9.473  0.3970 -0.1544 -0.2238
   43CHL1    H8 5603   4.209   4.159   9.476  0.1088  0.0001 -0.0474
   43CHL1   C14 5604   4.144   4.001   9.332 -0.3730  0.0067 -0.2879
   43CHL1   H14 5605   4.093   3.905   9.352  1.3180 -1.0090 -0.6015
   43CHL1   C15 5606   4.274   3.965   9.261  0.1920 -0.2002 -0.9063
   43CHL1  H15A 5607   4.367   4.026   9.268  1.3750 -1.8542 -1.5394
   43CHL1  H15B 5608   4.300   3.864   9.297  2.5573  1.1203  1.5031
   43CHL1   C16 5609   4.236   3.963   9.116  0.4099 -0.4897  0.5387
   43CHL1  H16A 5610   4.299   4.023   9.047  2.0800 -1.6133  1.0091
   43CHL1  H16B 5611   4.245   3.864   9.066 -2.8331 -0.6073 -0.0051
   43CHL1   C17 5612   4.090   4.010   9.105 -0.5369 -0.2904 -1.1368
   43CHL1   H17 5613   4.033   3.917   9.125 -1.3671  0.5411  0.6169
   43CHL1   C13 5614   4.063   4.088   9.235 -0.2133 -0.0060 -0.2489
   43CHL1   C18 5615   4.133   4.224   9.228 -0.3047 -0.2345  0.0039
   43CHL1  H18A 5616   4.143   4.275   9.325 -0.3336 -1.0427  0.4409
   43CHL1  H18B 5617   4.238   4.209   9.193 -0.6653 -2.4973 -0.2970
   43CHL1  H18C 5618   4.075   4.297   9.167 -1.0672  0.1203  1.1143
   43CHL1   C12 5619   3.919   4.091   9.287 -0.3855 -0.5775  0.3348
   43CHL1  H12A 5620   3.851   4.158   9.230 -0.1609  0.3638  1.1577
   43CHL1  H12B 5621   3.886   3.984   9.288  1.4297 -1.1764 -0.5290
   43CHL1   C11 5622   3.920   4.153   9.432  0.7733 -0.4253 -0.0934
   43CHL1  H11A 5623   3.955   4.258   9.418 -1.0929  0.3671  0.8059
   43CHL1  H11B 5624   3.813   4.166   9.458 -0.4173  1.1222 -4.7010
   43CHL1    C9 5625   4.019   4.090   9.534  0.5191 -0.9012 -0.3603
   43CHL1    H9 5626   3.978   3.986   9.542 -0.2520 -0.7479 -1.9960
   43CHL1   C10 5627   4.035   4.159   9.668 -0.8262 -0.0273  1.3747
   43CHL1   C19 5628   4.064   4.313   9.649 -0.1029  0.3419  0.2896
   43CHL1  H19A 5629   4.143   4.328   9.572  2.2152  1.7305  2.7731
   43CHL1  H19B 5630   3.976   4.372   9.614 -0.7200 -0.5712  0.2519
   43CHL1  H19C 5631   4.118   4.360   9.733  1.4089  0.8078 -0.8932
   43CHL1    C1 5632   3.902   4.155   9.743  0.2720 -0.3360  0.0479
   43CHL1   H1A 5633   3.820   4.198   9.681 -0.0817  1.7489  1.8316
   43CHL1   H1B 5634   3.879   4.047   9.757  0.9501 -0.7579 -1.7754
   43CHL1    C2 5635   3.911   4.208   9.889  0.1788  0.3460  0.2449
   43CHL1   H2A 5636   3.814   4.210   9.942  0.2522  0.2004  0.3857
   43CHL1   H2B 5637   3.936   4.316   9.887 -0.3936  0.4913  0.8718
   43CHL1   C20 5638   4.058   4.059   8.968  0.0011  0.2506  0.6920
   43CHL1   H20 5639   4.109   4.155   8.944 -0.0453 -0.3346 -1.9764
   43CHL1   C21 5640   3.905   4.106   8.966 -0.3902  0.5597 -0.4723
   43CHL1  H21A 5641   3.875   4.155   8.870 -1.5968  1.6591  0.4338
   43CHL1  H21B 5642   3.887   4.193   9.033  0.0581 -0.3398  0.8446
   43CHL1  H21C 5643   3.844   4.022   9.004  1.6932  0.6546  3.6389
   43CHL1   C22 5644   4.080   3.954   8.861 -0.5710 -0.2117  1.0437
   43CHL1  H22A 5645   4.171   3.891   8.868 -1.0792 -1.0430  0.2747
   43CHL1  H22B 5646   3.999   3.879   8.854 -0.5484 -0.0734 -2.2980
   43CHL1   C23 5647   4.099   4.007   8.714 -0.5490 -0.0675 -0.3841
   43CHL1  H23A 5648   4.015   4.078   8.696 -0.7604  0.4445  2.2576
   43CHL1  H23B 5649   4.196   4.060   8.706 -0.5876 -0.0877 -1.0154
   43CHL1   C24 5650   4.100   3.896   8.598  0.1533 -0.5541  0.2573
   43CHL1  H24A 5651   4.119   3.800   8.651 -0.3713 -0.6091  0.3606
   43CHL1  H24B 5652   4.002   3.883   8.547  0.9035 -0.7529 -1.1917
   43CHL1   C25 5653   4.203   3.923   8.485  0.0861  0.2851 -0.0501
   43CHL1   H25 5654   4.296   3.951   8.538  0.7394 -1.1714 -0.3807
   43CHL1   C26 5655   4.232   3.805   8.393  0.2589  0.2301 -0.3180
   43CHL1  H26A 5656   4.270   3.723   8.459  0.5303  1.3160  0.9043
   43CHL1  H26B 5657   4.136   3.778   8.345 -1.7787  1.5665  2.7388
   43CHL1  H26C 5658   4.311   3.827   8.318  2.2212 -2.0941  0.8937
   43CHL1   C27 5659   4.166   4.041   8.394  0.4717 -1.0044 -0.5983
   43CHL1  H27A 5660   4.238   4.069   8.314  0.0326  4.6996  0.5484
   43CHL1  H27B 5661   4.067   4.031   8.346 -0.2924 -1.3299  0.9902
   43CHL1  H27C 5662   4.159   4.131   8.460 -1.5468 -1.3546 -0.2693
   44CHL1    C3 5663   4.534   5.039  10.227 -0.0534  0.0965 -0.1212
   44CHL1    H3 5664   4.511   5.136  10.180  1.8121  0.6125 -0.0606
   44CHL1    O3 5665   4.487   5.036  10.362  0.2205  0.4502  0.2406
   44CHL1   H3' 5666   4.477   4.943  10.385  0.1087  1.0012  2.7213
   44CHL1    C4 5667   4.464   4.928  10.147  0.3983  0.0804  0.4860
   44CHL1   H4A 5668   4.501   4.828  10.178  0.4698 -0.0679 -0.0566
   44CHL1   H4B 5669   4.354   4.933  10.161  0.7584  0.6982  3.8764
   44CHL1    C5 5670   4.504   4.934   9.996 -0.3413 -0.3149 -0.9772
   44CHL1    C6 5671   4.410   4.942   9.901  0.5781 -0.6130 -0.0228
   44CHL1    H6 5672   4.306   4.932   9.935  0.9405 -1.7453  0.8304
   44CHL1    C7 5673   4.435   4.960   9.753 -0.1670  0.9278 -0.0430
   44CHL1   H7A 5674   4.366   4.905   9.687 -0.1782  2.4337 -1.3314
   44CHL1   H7B 5675   4.410   5.067   9.735 -1.5754  0.8624  1.2530
   44CHL1    C8 5676   4.586   4.937   9.717  0.4691  0.7066 -0.6465
   44CHL1    H8 5677   4.616   4.830   9.711  2.6238  1.1645  0.5513
   44CHL1   C14 5678   4.613   4.993   9.578 -0.5459 -0.2899 -0.0420
   44CHL1   H14 5679   4.612   5.103   9.597  1.7799 -0.8878  5.2065
   44CHL1   C15 5680   4.528   4.947   9.470 -0.4957 -0.3999  0.3396
   44CHL1  H15A 5681   4.506   4.840   9.488  1.4608 -0.9614 -0.4423
   44CHL1  H15B 5682   4.426   4.992   9.480 -0.0294  0.3341  2.1125
   44CHL1   C16 5683   4.603   4.988   9.346 -0.6476  0.3256  0.4041
   44CHL1  H16A 5684   4.615   4.904   9.274  0.6322  0.2062  0.7332
   44CHL1  H16B 5685   4.553   5.069   9.288  0.7034  0.3391 -0.7670
   44CHL1   C17 5686   4.744   5.040   9.386 -0.5577 -0.2638 -0.4631
   44CHL1   H17 5687   4.738   5.150   9.393  0.7510 -0.0654 -1.8363
   44CHL1   C13 5688   4.758   4.976   9.526  0.7160 -0.4228  0.1446
   44CHL1   C18 5689   4.796   4.825   9.511  0.0867 -0.6265 -0.3068
   44CHL1  H18A 5690   4.902   4.800   9.490 -0.5562 -0.8205 -3.9618
   44CHL1  H18B 5691   4.769   4.773   9.606 -0.8981  0.7560  0.2058
   44CHL1  H18C 5692   4.730   4.783   9.433 -2.2666  3.4959 -0.8277
   44CHL1   C12 5693   4.844   5.053   9.623  0.5594  0.0607  0.1695
   44CHL1  H12A 5694   4.953   5.045   9.603  0.3922  0.5469 -1.0798
   44CHL1  H12B 5695   4.808   5.158   9.622 -0.0622 -0.1318 -1.6747
   44CHL1   C11 5696   4.823   5.007   9.768 -0.0109 -0.0657 -0.2110
   44CHL1  H11A 5697   4.860   4.903   9.776  0.4927  0.2564  2.5302
   44CHL1  H11B 5698   4.886   5.066   9.838  1.6346  1.2656 -2.6469
   44CHL1    C9 5699   4.677   5.001   9.818  0.2401 -0.0944  0.5725
   44CHL1    H9 5700   4.632   5.103   9.819 -2.2073 -0.9856 -2.3640
   44CHL1   C10 5701   4.653   4.946   9.963 -0.7112 -0.3265  0.5561
   44CHL1   C19 5702   4.722   4.810   9.991  0.3715  0.1595  0.2328
   44CHL1  H19A 5703   4.698   4.776  10.094  0.4100  1.8239  0.8222
   44CHL1  H19B 5704   4.696   4.735   9.913 -1.0725  1.4884 -0.6237
   44CHL1  H19C 5705   4.832   4.823   9.997  0.4993  0.2091 -1.5191
   44CHL1    C1 5706   4.717   5.047  10.055  0.8294 -0.3281 -0.4594
   44CHL1   H1A 5707   4.826   5.031  10.044  0.9164  0.5806 -1.0235
   44CHL1   H1B 5708   4.694   5.153  10.031  0.3893  0.3111  2.3533
   44CHL1    C2 5709   4.691   5.034  10.207  0.6392 -0.0039 -0.4870
   44CHL1   H2A 5710   4.740   5.118  10.262  2.1513 -0.9918 -0.2671
   44CHL1   H2B 5711   4.721   4.936  10.249  0.0468 -0.1472 -0.3865
   44CHL1   C20 5712   4.850   5.002   9.279  0.4365  0.7136 -1.2801
   44CHL1   H20 5713   4.868   4.893   9.267 -0.8023  0.3379  0.0618
   44CHL1   C21 5714   4.992   5.056   9.325  0.4139  0.1060 -0.3775
   44CHL1  H21A 5715   5.034   4.993   9.405  0.5045  2.1090  1.2362
   44CHL1  H21B 5716   4.983   5.161   9.359 -1.9621 -0.5132  1.1487
   44CHL1  H21C 5717   5.067   5.039   9.245  2.2564 -1.3133  1.5506
   44CHL1   C22 5718   4.811   5.040   9.132  0.4694 -0.5015 -0.4426
   44CHL1  H22A 5719   4.721   4.983   9.101  0.0798  0.5841 -1.3599
   44CHL1  H22B 5720   4.796   5.150   9.135  1.1322 -0.4206  0.8915
   44CHL1   C23 5721   4.918   5.012   9.025 -0.5940 -0.0544 -0.0511
   44CHL1  H23A 5722   4.893   5.064   8.929 -0.6258 -1.6123 -0.9258
   44CHL1  H23B 5723   5.014   5.062   9.046 -0.8991  0.7824 -0.5891
   44CHL1   C24 5724   4.950   4.869   8.992 -0.2375 -0.1193 -0.0464
   44CHL1  H24A 5725   4.953   4.801   9.081 -1.1414 -0.4528 -0.2624
   44CHL1  H24B 5726   4.865   4.836   8.929  0.5673 -1.1409 -0.6424
   44CHL1   C25 5727   5.089   4.857   8.920 -0.6493 -0.5377 -0.4051
   44CHL1   H25 5728   5.079   4.887   8.813  0.8664 -2.5048 -1.1530
   44CHL1   C26 5729   5.225   4.899   8.994  0.4248 -0.2249 -0.0825
   44CHL1  H26A 5730   5.320   4.867   8.946  0.0618 -0.9864 -0.3176
   44CHL1  H26B 5731   5.243   5.008   9.005  1.1893 -0.4860  1.7646
   44CHL1  H26C 5732   5.230   4.848   9.093  5.0298 -0.5283 -0.2826
   44CHL1   C27 5733   5.100   4.705   8.896 -1.2579 -0.4894 -0.4498
   44CHL1  H27A 5734   5.106   4.641   8.986 -2.0755 -0.6716 -0.5179
   44CHL1  H27B 5735   5.019   4.660   8.835 -1.2409 -0.4517 -0.5001
   44CHL1  H27C 5736   5.194   4.676   8.844 -1.0050  0.3499 -0.4782
   45CHL1    C3 5737   1.690   4.492  10.637 -0.1185  0.0592 -0.6556
   45CHL1    H3 5738   1.739   4.588  10.664  2.3829 -1.2109 -0.3683
   45CHL1    O3 5739   1.609   4.445  10.747  0.1127 -0.0525 -0.0542
   45CHL1   H3' 5740   1.555   4.370  10.721 -2.6790  2.3111 -1.8365
   45CHL1    C4 5741   1.603   4.516  10.508 -0.2512  0.1712 -0.7214
   45CHL1   H4A 5742   1.534   4.431  10.488 -1.6281  1.7778 -3.1828
   45CHL1   H4B 5743   1.529   4.596  10.529 -0.7554 -0.9782  2.5265
   45CHL1    C5 5744   1.693   4.551  10.388  0.7000  0.0020 -0.1458
   45CHL1    C6 5745   1.685   4.667  10.337  0.8428 -0.3056  0.9085
   45CHL1    H6 5746   1.602   4.731  10.370 -0.4159 -0.7138 -1.2012
   45CHL1    C7 5747   1.761   4.703  10.211  0.0949  0.5263  0.0848
   45CHL1   H7A 5748   1.692   4.761  10.146  0.3451  2.3934  1.3901
   45CHL1   H7B 5749   1.839   4.776  10.243  1.1588 -1.1753  1.4777
   45CHL1    C8 5750   1.842   4.592  10.137  0.0181 -0.3745 -0.3971
   45CHL1    H8 5751   1.928   4.639  10.086  1.4098 -0.6474  1.6096
   45CHL1   C14 5752   1.766   4.519  10.023 -0.0940 -0.0420 -0.5710
   45CHL1   H14 5753   1.668   4.479  10.058 -0.9408  1.8007 -0.6966
   45CHL1   C15 5754   1.741   4.616   9.901 -0.2649 -0.0594 -0.4938
   45CHL1  H15A 5755   1.640   4.600   9.857  0.1366 -1.2418 -1.0353
   45CHL1  H15B 5756   1.763   4.723   9.922  0.1275 -0.3401  0.5899
   45CHL1   C16 5757   1.846   4.586   9.796 -0.3878 -0.6557  0.2534
   45CHL1  H16A 5758   1.794   4.565   9.701  2.2471 -1.6001 -1.0828
   45CHL1  H16B 5759   1.908   4.674   9.766  1.8730 -1.1524  3.0431
   45CHL1   C17 5760   1.932   4.464   9.858  0.7078 -0.1265 -1.2868
   45CHL1   H17 5761   2.008   4.523   9.914 -0.0889  0.3623 -0.7104
   45CHL1   C13 5762   1.848   4.396   9.966 -0.4767  0.6334 -0.4112
   45CHL1   C18 5763   1.741   4.298   9.904  0.3635 -0.1471 -0.2146
   45CHL1  H18A 5764   1.790   4.212   9.854 -0.7396 -2.3636  2.2637
   45CHL1  H18B 5765   1.675   4.248   9.979  0.9829 -2.7269 -1.2747
   45CHL1  H18C 5766   1.672   4.349   9.833  1.0157 -0.2598 -0.9350
   45CHL1   C12 5767   1.926   4.312  10.070  0.0630 -0.7378 -1.1375
   45CHL1  H12A 5768   1.859   4.234  10.112 -0.2993 -0.2678 -0.8190
   45CHL1  H12B 5769   2.000   4.247  10.019  0.1475 -1.0141 -0.6622
   45CHL1   C11 5770   1.993   4.396  10.181 -0.5178 -0.0626  0.1556
   45CHL1  H11A 5771   2.027   4.326  10.260  3.8324  1.6754  0.1175
   45CHL1  H11B 5772   2.084   4.450  10.146 -1.4136  0.9734 -0.6766
   45CHL1    C9 5773   1.895   4.499  10.242 -0.3284  0.6590  0.0959
   45CHL1    H9 5774   1.960   4.565  10.304  0.1360  2.0076 -1.7261
   45CHL1   C10 5775   1.797   4.448  10.348  0.2526  1.1099  0.1015
   45CHL1   C19 5776   1.716   4.326  10.304 -0.2773 -0.1829 -0.2441
   45CHL1  H19A 5777   1.638   4.297  10.379  1.5277 -0.7507  1.4909
   45CHL1  H19B 5778   1.664   4.340  10.207 -0.1947  0.5240 -0.1947
   45CHL1  H19C 5779   1.783   4.238  10.294  2.0162  1.2637  1.3648
   45CHL1    C1 5780   1.876   4.414  10.477 -0.2768 -0.2596 -0.1538
   45CHL1   H1A 5781   1.941   4.331  10.445  0.1289 -0.1316  0.3294
   45CHL1   H1B 5782   1.938   4.506  10.488 -0.2280 -0.2518 -0.4927
   45CHL1    C2 5783   1.793   4.385  10.609 -0.1692 -0.1947  0.8353
   45CHL1   H2A 5784   1.857   4.361  10.696  0.2007 -0.4265  0.5054
   45CHL1   H2B 5785   1.759   4.281  10.590 -0.5998  0.2063 -0.8000
   45CHL1   C20 5786   2.021   4.384   9.758  0.1486 -0.3686  0.6557
   45CHL1   H20 5787   2.032   4.283   9.804  0.7069 -0.6333 -0.0477
   45CHL1   C21 5788   2.171   4.436   9.771  0.2422  0.4011  0.0391
   45CHL1  H21A 5789   2.231   4.386   9.691 -1.4573 -0.2012 -0.9127
   45CHL1  H21B 5790   2.209   4.429   9.875  1.3555  2.4231 -0.1713
   45CHL1  H21C 5791   2.167   4.545   9.751 -2.0690  0.7188  1.8901
   45CHL1   C22 5792   1.975   4.354   9.614 -0.4065 -0.2335 -0.1761
   45CHL1  H22A 5793   1.871   4.319   9.631 -0.8398  1.3037  0.5219
   45CHL1  H22B 5794   1.974   4.451   9.559 -1.7400  0.4541  1.0008
   45CHL1   C23 5795   2.047   4.237   9.550 -0.0326  0.6009 -0.0160
   45CHL1  H23A 5796   2.145   4.263   9.505 -1.4252 -1.3703 -4.8119
   45CHL1  H23B 5797   2.067   4.163   9.631 -2.4774  0.9487  0.9864
   45CHL1   C24 5798   1.964   4.165   9.446 -0.2695  0.2404  0.0510
   45CHL1  H24A 5799   2.017   4.071   9.419 -0.9555 -0.0493 -0.3068
   45CHL1  H24B 5800   1.873   4.123   9.494 -0.3122 -0.9191 -0.9941
   45CHL1   C25 5801   1.936   4.241   9.314  0.1546 -0.0593  0.1844
   45CHL1   H25 5802   1.900   4.343   9.337 -1.7238 -0.8160  0.7876
   45CHL1   C26 5803   2.060   4.259   9.225 -0.0932 -0.1746 -0.0033
   45CHL1  H26A 5804   2.130   4.328   9.276 -1.1980  0.1991  1.0591
   45CHL1  H26B 5805   2.113   4.163   9.204  0.3041 -0.2902  1.3793
   45CHL1  H26C 5806   2.037   4.314   9.132  0.9170  1.7411  0.8341
   45CHL1   C27 5807   1.823   4.176   9.229  0.2872 -0.1292 -0.4357
   45CHL1  H27A 5808   1.819   4.220   9.127  0.0429  0.8799  0.0034
   45CHL1  H27B 5809   1.820   4.064   9.226 -0.5084 -0.1814  1.3923
   45CHL1  H27C 5810   1.735   4.222   9.277  2.3753  3.8054 -0.0262
   46CHL1    C3 5811   2.681   2.759  10.091 -0.2210 -0.8715  0.2155
   46CHL1    H3 5812   2.580   2.713  10.092 -0.1874 -1.0632 -1.8534
   46CHL1    O3 5813   2.705   2.820  10.221 -0.2994  0.0070  0.8274
   46CHL1   H3' 5814   2.742   2.746  10.269 -1.9101 -0.2478  1.7360
   46CHL1    C4 5815   2.785   2.650  10.058 -0.3179 -0.1378 -0.2598
   46CHL1   H4A 5816   2.889   2.687  10.052 -0.1460 -0.6299 -0.4320
   46CHL1   H4B 5817   2.783   2.577  10.142  0.7842  1.7481  1.4699
   46CHL1    C5 5818   2.759   2.591   9.921  0.7134  0.0308  0.3665
   46CHL1    C6 5819   2.725   2.464   9.915  1.0375  0.3626 -0.0013
   46CHL1    H6 5820   2.720   2.409  10.010 -0.2621 -1.8463 -1.2605
   46CHL1    C7 5821   2.693   2.391   9.786  0.6498  0.1371 -0.7963
   46CHL1   H7A 5822   2.728   2.286   9.790 -1.5427 -0.7095 -2.2796
   46CHL1   H7B 5823   2.583   2.377   9.779  0.6471  0.7140 -2.2020
   46CHL1    C8 5824   2.736   2.463   9.658  0.3944 -0.4141  0.0880
   46CHL1    H8 5825   2.847   2.464   9.658  0.4231  1.5395 -0.8279
   46CHL1   C14 5826   2.672   2.404   9.536  0.1612  0.7369 -0.0096
   46CHL1   H14 5827   2.562   2.408   9.547  0.3010  0.2482  1.9284
   46CHL1   C15 5828   2.692   2.246   9.502 -1.2958 -0.2907  0.3528
   46CHL1  H15A 5829   2.793   2.211   9.532 -0.9055 -0.7529 -1.4221
   46CHL1  H15B 5830   2.619   2.194   9.568 -3.3715 -0.3572 -1.8769
   46CHL1   C16 5831   2.665   2.237   9.350 -0.6009  0.2858 -0.7471
   46CHL1  H16A 5832   2.762   2.203   9.309  1.4703  1.0952  3.0589
   46CHL1  H16B 5833   2.583   2.164   9.330 -1.7247  1.5391 -0.8576
   46CHL1   C17 5834   2.635   2.381   9.299 -0.3442  0.1372 -0.5081
   46CHL1   H17 5835   2.530   2.402   9.329  0.3337  1.4655  1.0812
   46CHL1   C13 5836   2.696   2.475   9.409 -0.4539  0.5328 -0.5996
   46CHL1   C18 5837   2.850   2.473   9.386  0.2915  0.0130 -0.1214
   46CHL1  H18A 5838   2.905   2.530   9.463 -0.3201  1.2744 -0.5882
   46CHL1  H18B 5839   2.886   2.368   9.394 -0.5558 -0.1948  1.4179
   46CHL1  H18C 5840   2.873   2.525   9.290 -0.0211  1.6195  0.6441
   46CHL1   C12 5841   2.642   2.618   9.413 -0.4193 -0.1822  0.3595
   46CHL1  H12A 5842   2.661   2.677   9.321 -0.1827 -1.0064 -0.1334
   46CHL1  H12B 5843   2.531   2.623   9.425 -0.8525  0.7359 -3.0085
   46CHL1   C11 5844   2.705   2.696   9.536  0.0461 -1.0950  0.6601
   46CHL1  H11A 5845   2.808   2.731   9.517 -0.6911  1.1553  0.5010
   46CHL1  H11B 5846   2.645   2.788   9.555  1.7373 -0.1476  1.6679
   46CHL1    C9 5847   2.689   2.619   9.673  0.1030  0.3688  0.1570
   46CHL1    H9 5848   2.581   2.610   9.695  0.2030  0.7334  0.8277
   46CHL1   C10 5849   2.751   2.688   9.800 -0.1865  0.2074 -0.2877
   46CHL1   C19 5850   2.895   2.748   9.778 -0.7517  0.1640  0.1197
   46CHL1  H19A 5851   2.898   2.825   9.699 -1.6185 -1.9363 -2.0995
   46CHL1  H19B 5852   2.928   2.790   9.875  0.9485  1.5827 -1.0212
   46CHL1  H19C 5853   2.971   2.671   9.755 -1.2413 -0.0708 -0.7654
   46CHL1    C1 5854   2.652   2.798   9.851  0.5794 -0.2787  1.1359
   46CHL1   H1A 5855   2.643   2.870   9.768  2.3266 -0.7090  0.5262
   46CHL1   H1B 5856   2.550   2.754   9.858  0.4022 -0.4324 -1.3535
   46CHL1    C2 5857   2.678   2.870   9.986  0.1887  0.2733 -0.1727
   46CHL1   H2A 5858   2.586   2.929  10.005 -0.1818 -0.9487  2.2294
   46CHL1   H2B 5859   2.760   2.944   9.988 -1.5442  2.2654  0.2402
   46CHL1   C20 5860   2.655   2.416   9.148  0.3177 -0.0161 -0.1513
   46CHL1   H20 5861   2.653   2.526   9.137  0.5955  0.2210  1.8287
   46CHL1   C21 5862   2.520   2.368   9.076 -0.2261 -0.0715 -0.5738
   46CHL1  H21A 5863   2.505   2.260   9.094 -2.9749 -0.1626 -2.7597
   46CHL1  H21B 5864   2.529   2.389   8.968  2.9267 -0.1988 -0.4320
   46CHL1  H21C 5865   2.430   2.419   9.116 -0.6305  0.1670 -1.7487
   46CHL1   C22 5866   2.773   2.349   9.078 -0.2228  0.1702  0.2540
   46CHL1  H22A 5867   2.847   2.335   9.159 -1.9569 -2.9826  1.4735
   46CHL1  H22B 5868   2.744   2.242   9.068  1.6831 -0.8809  4.0100
   46CHL1   C23 5869   2.826   2.427   8.953  0.0187  0.8050 -0.4096
   46CHL1  H23A 5870   2.739   2.436   8.884  0.8893  1.0078 -1.5036
   46CHL1  H23B 5871   2.852   2.528   8.992 -2.7185  1.0955  0.9672
   46CHL1   C24 5872   2.941   2.334   8.891  0.3587 -0.0793  0.8343
   46CHL1  H24A 5873   3.032   2.354   8.952 -0.6426  1.1431  1.9810
   46CHL1  H24B 5874   2.920   2.225   8.892  2.3879 -0.7333 -3.4138
   46CHL1   C25 5875   2.960   2.361   8.738 -0.5170 -0.3738  0.4514
   46CHL1   H25 5876   3.055   2.315   8.704 -1.4595 -2.3975  0.4260
   46CHL1   C26 5877   2.841   2.314   8.652 -0.2759  0.6499 -0.5765
   46CHL1  H26A 5878   2.746   2.346   8.699 -0.0056  0.8435 -0.1570
   46CHL1  H26B 5879   2.838   2.353   8.548  0.8978  0.5936 -0.6502
   46CHL1  H26C 5880   2.844   2.204   8.644  1.1490  0.6340 -0.2228
   46CHL1   C27 5881   2.958   2.515   8.722 -0.3448 -0.6250  0.3864
   46CHL1  H27A 5882   3.029   2.555   8.798 -0.3595 -0.4618  0.3163
   46CHL1  H27B 5883   2.987   2.555   8.622  0.8779 -0.6267  0.7214
   46CHL1  H27C 5884   2.858   2.562   8.740  0.4330  0.8438  1.0922
   47CHL1    C3 5885   4.515   5.396  10.129  0.6970 -1.2357  1.1120
   47CHL1    H3 5886   4.585   5.312  10.108  1.5318 -0.3642  0.2747
   47CHL1    O3 5887   4.534   5.441  10.255  0.6150  0.0190 -0.2562
   47CHL1   H3' 5888   4.454   5.427  10.306  2.7247 -1.6843  2.8615
   47CHL1    C4 5889   4.543   5.519  10.039 -0.8754 -0.6766  0.0815
   47CHL1   H4A 5890   4.471   5.595  10.077  0.2385  0.0536  0.7740
   47CHL1   H4B 5891   4.646   5.555  10.058 -0.3835 -1.5188 -0.9113
   47CHL1    C5 5892   4.507   5.487   9.899 -0.1501  0.2136  0.3771
   47CHL1    C6 5893   4.602   5.504   9.801 -0.0077 -0.4073  0.8413
   47CHL1    H6 5894   4.702   5.545   9.822  1.3152 -0.6456 -3.8654
   47CHL1    C7 5895   4.572   5.484   9.648 -0.9152  0.1070  0.0149
   47CHL1   H7A 5896   4.608   5.568   9.585  0.4121  1.8301  2.8544
   47CHL1   H7B 5897   4.637   5.399   9.621  0.3539 -0.1819  3.4176
   47CHL1    C8 5898   4.426   5.453   9.614  0.3324 -0.7183  0.7024
   47CHL1    H8 5899   4.372   5.549   9.602 -0.9511 -1.6059 -1.1096
   47CHL1   C14 5900   4.422   5.379   9.481  0.0726  0.4748  0.3044
   47CHL1   H14 5901   4.471   5.282   9.504  0.9241 -0.0517 -3.1797
   47CHL1   C15 5902   4.499   5.434   9.360 -0.9057 -0.4451 -0.0167
   47CHL1  H15A 5903   4.485   5.544   9.373 -0.6091 -0.3389 -0.5343
   47CHL1  H15B 5904   4.606   5.404   9.361 -0.7000  0.1791 -1.0397
   47CHL1   C16 5905   4.422   5.379   9.233 -0.1339 -0.1719  0.5691
   47CHL1  H16A 5906   4.387   5.468   9.177 -1.3709 -0.2025  1.2640
   47CHL1  H16B 5907   4.479   5.313   9.163 -2.6271 -0.5746 -1.2322
   47CHL1   C17 5908   4.298   5.292   9.286 -0.8719  0.1412 -0.2028
   47CHL1   H17 5909   4.337   5.190   9.307  0.1311  0.7112  0.7967
   47CHL1   C13 5910   4.279   5.353   9.425 -0.1501 -0.5288  0.1546
   47CHL1   C18 5911   4.202   5.487   9.409  1.0796  0.1527 -0.2833
   47CHL1  H18A 5912   4.101   5.459   9.370  0.3374  1.1795  0.8016
   47CHL1  H18B 5913   4.198   5.535   9.509  1.9369 -0.6643  0.1579
   47CHL1  H18C 5914   4.247   5.555   9.334 -0.8956  2.1802  0.2771
   47CHL1   C12 5915   4.211   5.267   9.535 -0.0929 -0.4327  0.2157
   47CHL1  H12A 5916   4.108   5.240   9.505  0.6588 -3.3271 -0.1118
   47CHL1  H12B 5917   4.265   5.170   9.528  0.6870  0.1116 -2.9647
   47CHL1   C11 5918   4.220   5.330   9.673  0.1920  0.7218  0.2685
   47CHL1  H11A 5919   4.157   5.421   9.665  0.7390  1.0131 -0.9638
   47CHL1  H11B 5920   4.153   5.278   9.746 -0.5294  0.8302 -0.3000
   47CHL1    C9 5921   4.359   5.374   9.720  0.3190  0.0106 -0.1270
   47CHL1    H9 5922   4.407   5.274   9.726 -2.4855 -1.5834 -1.8863
   47CHL1   C10 5923   4.368   5.434   9.866 -0.0542 -0.7102 -0.3411
   47CHL1   C19 5924   4.261   5.549   9.883  0.4789  0.1855 -0.3423
   47CHL1  H19A 5925   4.283   5.588   9.985  0.7316 -0.4012 -0.1731
   47CHL1  H19B 5926   4.266   5.637   9.816  0.4329  1.6319  1.4595
   47CHL1  H19C 5927   4.160   5.503   9.891  1.0963 -1.2893 -0.8288
   47CHL1    C1 5928   4.340   5.318   9.965  0.5882 -0.5538 -0.5623
   47CHL1   H1A 5929   4.236   5.279   9.959  0.5520 -0.6377  0.5311
   47CHL1   H1B 5930   4.402   5.230   9.936  1.4976 -1.4718  3.5642
   47CHL1    C2 5931   4.373   5.357  10.108  0.0745  0.5454  0.5266
   47CHL1   H2A 5932   4.347   5.269  10.172 -0.9316  0.8789  0.5961
   47CHL1   H2B 5933   4.313   5.440  10.150 -1.3032  0.3860 -1.0329
   47CHL1   C20 5934   4.195   5.290   9.181  0.1844  0.1590  0.1907
   47CHL1   H20 5935   4.164   5.393   9.154  2.4524  0.5944 -1.0023
   47CHL1   C21 5936   4.081   5.197   9.211 -0.2154 -0.1635  0.1444
   47CHL1  H21A 5937   4.029   5.176   9.115 -2.2617 -1.8678  1.5098
   47CHL1  H21B 5938   4.010   5.229   9.290  0.5257 -0.4389  0.9461
   47CHL1  H21C 5939   4.124   5.105   9.256 -1.6392  0.1981  2.3767
   47CHL1   C22 5940   4.245   5.230   9.041 -0.1570 -0.2969 -1.0363
   47CHL1  H22A 5941   4.162   5.221   8.968 -0.2510  0.5318 -1.0405
   47CHL1  H22B 5942   4.321   5.303   9.005  1.8566 -1.5821  0.3774
   47CHL1   C23 5943   4.323   5.096   9.046 -0.5726  0.5934 -0.8890
   47CHL1  H23A 5944   4.391   5.078   9.132 -0.3907 -0.3346 -1.2138
   47CHL1  H23B 5945   4.247   5.018   9.025  0.1571  0.0949 -1.7692
   47CHL1   C24 5946   4.428   5.086   8.927 -0.1235  0.4576 -0.2957
   47CHL1  H24A 5947   4.361   5.131   8.851 -1.8567 -0.2787  0.7462
   47CHL1  H24B 5948   4.511   5.155   8.956 -0.4940  0.5026  0.6954
   47CHL1   C25 5949   4.472   4.951   8.873 -0.3741 -0.0110  0.1976
   47CHL1   H25 5950   4.522   4.890   8.952 -1.9061 -1.2042  0.2842
   47CHL1   C26 5951   4.349   4.882   8.826  0.0049  0.6169  0.1753
   47CHL1  H26A 5952   4.297   4.934   8.743  0.4635  0.1345 -0.4214
   47CHL1  H26B 5953   4.282   4.869   8.914 -0.0322 -1.8000 -0.1311
   47CHL1  H26C 5954   4.362   4.776   8.795  0.3678  0.9480 -0.8518
   47CHL1   C27 5955   4.568   4.964   8.747  0.2724  0.5160 -0.2374
   47CHL1  H27A 5956   4.607   4.865   8.714 -0.6134 -0.3101  1.0833
   47CHL1  H27B 5957   4.518   5.009   8.658  0.5181  1.1853 -0.0362
   47CHL1  H27C 5958   4.658   5.019   8.782  1.4536 -2.9273  2.7754
   48CHL1    C3 5959   1.470   0.190  10.382 -0.0425  0.4013 -0.6074
   48CHL1    H3 5960   1.455   0.296  10.350 -0.9095  0.3210 -0.4820
   48CHL1    O3 5961   1.508   0.190  10.518  0.1027  0.4511 -0.4774
   48CHL1   H3' 5962   1.603   0.207  10.526 -0.0048  0.7267  0.3343
   48CHL1    C4 5963   1.327   0.120  10.372 -0.9231  0.5781 -0.2037
   48CHL1   H4A 5964   1.343   0.026  10.428  1.1694  1.0745  0.1257
   48CHL1   H4B 5965   1.240   0.171  10.419  0.0696  0.3427  2.0023
   48CHL1    C5 5966   1.279   0.091  10.231  0.9460  0.7265 -0.5759
   48CHL1    C6 5967   1.154   0.113  10.189  0.7568 -0.4583 -0.0155
   48CHL1    H6 5968   1.092   0.153  10.271  3.1852 -1.6183  2.5489
   48CHL1    C7 5969   1.091   0.086  10.055 -0.3243  0.6829 -0.1638
   48CHL1   H7A 5970   0.997   0.033  10.079  0.2206 -0.1577  0.1737
   48CHL1   H7B 5971   1.058   0.180  10.006  0.5938  2.5004  2.5049
   48CHL1    C8 5972   1.181   0.001   9.960  0.5701 -0.1569  0.0069
   48CHL1    H8 5973   1.157  -0.104   9.986 -1.0825  0.6694  2.1325
   48CHL1   C14 5974   1.151   0.032   9.812 -0.4355  0.1581  0.1713
   48CHL1   H14 5975   1.167   0.141   9.799 -1.4908  0.5343  1.7292
   48CHL1   C15 5976   1.008   0.013   9.766 -0.3236  0.5091  0.2881
   48CHL1  H15A 5977   0.977  -0.088   9.801  1.8519 -0.6731 -0.9928
   48CHL1  H15B 5978   0.933   0.084   9.807 -1.2874 -1.3719  1.9726
   48CHL1   C16 5979   1.022   0.001   9.610  0.0673  0.0593 -0.3068
   48CHL1  H16A 5980   0.951  -0.081   9.587 -1.5033  0.9670  1.0831
   48CHL1  H16B 5981   0.968   0.083   9.558 -1.8278  0.5124  2.1970
   48CHL1   C17 5982   1.171  -0.011   9.571 -0.8872 -0.6206 -0.6476
   48CHL1   H17 5983   1.204   0.091   9.542  0.7825 -0.2786  2.0701
   48CHL1   C13 5984   1.235  -0.046   9.705 -0.0182  0.2044 -0.4713
   48CHL1   C18 5985   1.215  -0.194   9.717 -1.2248 -0.0858  0.9779
   48CHL1  H18A 5986   1.295  -0.256   9.671  0.5124  2.4421  0.4230
   48CHL1  H18B 5987   1.222  -0.226   9.823 -0.1401 -1.3569  0.5456
   48CHL1  H18C 5988   1.111  -0.217   9.684 -0.8781 -1.5272  0.8116
   48CHL1   C12 5989   1.379  -0.001   9.727 -0.5066  0.3691  0.1173
   48CHL1  H12A 5990   1.456  -0.051   9.665  0.2895  0.7751  0.7531
   48CHL1  H12B 5991   1.375   0.109   9.714  1.5342  0.6946  1.6107
   48CHL1   C11 5992   1.427  -0.011   9.873  1.0499 -0.1496 -1.1349
   48CHL1  H11A 5993   1.424  -0.121   9.892  1.7292 -0.1743 -1.1679
   48CHL1  H11B 5994   1.531   0.024   9.888  0.9372 -0.5990  1.0246
   48CHL1    C9 5995   1.326   0.043   9.986 -0.7328 -0.3344 -0.7769
   48CHL1    H9 5996   1.329   0.153   9.972 -0.7075 -0.4999 -2.1818
   48CHL1   C10 5997   1.381   0.030  10.136 -0.0326 -0.5128 -0.0309
   48CHL1   C19 5998   1.397  -0.124  10.168  0.6015  0.5466 -0.0725
   48CHL1  H19A 5999   1.484  -0.172  10.118  1.8173  2.4993  0.0700
   48CHL1  H19B 6000   1.414  -0.135  10.277 -1.3753  1.0773  0.3260
   48CHL1  H19C 6001   1.300  -0.174  10.145  0.0878  1.3248  0.3943
   48CHL1    C1 6002   1.521   0.101  10.145  0.5517  0.5865 -0.0408
   48CHL1   H1A 6003   1.601   0.058  10.083 -1.4266 -0.8564 -1.7057
   48CHL1   H1B 6004   1.509   0.206  10.110 -0.7115 -0.0687 -1.6833
   48CHL1    C2 6005   1.572   0.118  10.292 -0.1369 -0.2838 -0.4605
   48CHL1   H2A 6006   1.656   0.189  10.276  1.8049 -2.3986 -0.0628
   48CHL1   H2B 6007   1.592   0.027  10.352 -2.9771 -0.4655  0.4011
   48CHL1   C20 6008   1.197  -0.095   9.441 -0.4054 -0.1697 -0.4472
   48CHL1   H20 6009   1.167  -0.201   9.457  1.2927 -0.7932 -1.1157
   48CHL1   C21 6010   1.344  -0.112   9.408 -0.0059 -0.0703  0.0521
   48CHL1  H21A 6011   1.406  -0.027   9.372  0.8790 -1.0437 -0.8049
   48CHL1  H21B 6012   1.352  -0.178   9.319 -0.4718  1.3556 -1.1011
   48CHL1  H21C 6013   1.386  -0.151   9.503 -0.5695 -1.9595 -0.4271
   48CHL1   C22 6014   1.113  -0.053   9.317 -0.4314  0.0190  0.0157
   48CHL1  H22A 6015   1.009  -0.026   9.345 -0.1554  0.4168  0.6829
   48CHL1  H22B 6016   1.163   0.040   9.284 -0.3403 -0.0386 -0.0083
   48CHL1   C23 6017   1.112  -0.158   9.201  0.1553 -0.6205 -0.2028
   48CHL1  H23A 6018   1.036  -0.134   9.124  2.9443 -0.5953 -3.1629
   48CHL1  H23B 6019   1.205  -0.167   9.141  0.5850  3.9453 -0.5206
   48CHL1   C24 6020   1.057  -0.298   9.249 -0.3286  0.2670 -0.3839
   48CHL1  H24A 6021   1.147  -0.345   9.296  0.0885  0.9977 -0.4394
   48CHL1  H24B 6022   0.968  -0.284   9.313 -0.5404 -1.9758 -0.0850
   48CHL1   C25 6023   1.021  -0.392   9.143 -0.6715  0.6101  0.2459
   48CHL1   H25 6024   1.020  -0.499   9.172 -0.0315  0.5207 -0.0366
   48CHL1   C26 6025   0.864  -0.371   9.092  0.3765  0.2431 -1.4790
   48CHL1  H26A 6026   0.860  -0.269   9.049 -0.0543  1.0192  0.3455
   48CHL1  H26B 6027   0.844  -0.445   9.011 -3.2227 -1.0271  0.3723
   48CHL1  H26C 6028   0.792  -0.390   9.174  0.8554  0.0256 -1.1056
   48CHL1   C27 6029   1.108  -0.384   9.016 -0.4835 -0.3495  0.1714
   48CHL1  H27A 6030   1.212  -0.414   9.042 -0.4461 -1.4507 -1.1668
   48CHL1  H27B 6031   1.075  -0.457   8.939 -0.9954  0.3082 -0.2447
   48CHL1  H27C 6032   1.108  -0.278   8.984 -2.2883 -0.4831 -0.3579
   49CHL1    C3 6033   5.865   6.112  10.143 -0.2750  0.2875 -0.3532
   49CHL1    H3 6034   5.926   6.204  10.152 -0.1102 -0.0253  2.3555
   49CHL1    O3 6035   5.812   6.078  10.269  0.6323 -0.2576  0.3514
   49CHL1   H3' 6036   5.878   6.028  10.318 -0.9526 -2.5681  0.3205
   49CHL1    C4 6037   5.753   6.130  10.039 -0.5925 -0.1616  0.3594
   49CHL1   H4A 6038   5.691   6.039  10.026 -2.0417  1.0090 -1.4642
   49CHL1   H4B 6039   5.691   6.213  10.078 -1.9433 -0.6563 -0.6559
   49CHL1    C5 6040   5.805   6.166   9.906  0.5485 -0.1149 -0.6757
   49CHL1    C6 6041   5.761   6.277   9.837  0.6271 -0.2660 -0.0170
   49CHL1    H6 6042   5.682   6.343   9.877  0.5056 -1.0249  1.0379
   49CHL1    C7 6043   5.808   6.321   9.701  0.1660  0.0931 -0.1007
   49CHL1   H7A 6044   5.719   6.348   9.640 -0.8254 -0.6596  0.9719
   49CHL1   H7B 6045   5.885   6.401   9.709 -0.4737  0.7510 -0.4307
   49CHL1    C8 6046   5.871   6.205   9.624 -0.4501  0.3391  0.4256
   49CHL1    H8 6047   5.794   6.131   9.592  2.6256 -2.3979 -1.3065
   49CHL1   C14 6048   5.946   6.259   9.498  0.3796 -0.2428  0.1691
   49CHL1   H14 6049   6.021   6.325   9.546 -0.1207 -1.4308  2.7978
   49CHL1   C15 6050   5.872   6.349   9.395  0.1690 -0.5539  0.0650
   49CHL1  H15A 6051   5.765   6.323   9.381 -0.3641 -0.0382  2.6699
   49CHL1  H15B 6052   5.880   6.456   9.421  0.7729 -0.4107 -0.6694
   49CHL1   C16 6053   5.939   6.332   9.258  0.3047 -0.0403 -0.4137
   49CHL1  H16A 6054   5.882   6.270   9.186  0.1029 -0.6131  0.2189
   49CHL1  H16B 6055   5.966   6.431   9.216  2.2100 -0.5186 -0.4455
   49CHL1   C17 6056   6.066   6.248   9.300 -0.3667  0.0977  0.1194
   49CHL1   H17 6057   6.142   6.317   9.345 -1.0010  0.1120  1.1941
   49CHL1   C13 6058   6.013   6.153   9.413  0.5387 -0.2174  0.4141
   49CHL1   C18 6059   5.905   6.062   9.353  0.9770  0.4090 -0.0031
   49CHL1  H18A 6060   5.822   6.121   9.308  2.3934  1.4088 -1.4323
   49CHL1  H18B 6061   5.945   5.990   9.278  0.6532 -0.2522  0.4602
   49CHL1  H18C 6062   5.861   6.010   9.440  1.8932  0.6586  0.6292
   49CHL1   C12 6063   6.112   6.073   9.500  0.2666  1.1957 -0.1768
   49CHL1  H12A 6064   6.149   5.980   9.450 -1.3794  1.6288 -2.3649
   49CHL1  H12B 6065   6.192   6.142   9.531  0.8649  0.0709  0.8469
   49CHL1   C11 6066   6.053   6.019   9.625 -0.1478 -0.1171  0.3401
   49CHL1  H11A 6067   5.992   5.933   9.590 -1.5371  1.1061 -0.3526
   49CHL1  H11B 6068   6.131   5.966   9.683  1.3205  1.8813  0.2793
   49CHL1    C9 6069   5.978   6.127   9.707  0.6350 -0.4798 -0.2262
   49CHL1    H9 6070   6.043   6.206   9.749 -0.6940  1.3317 -1.4135
   49CHL1   C10 6071   5.912   6.072   9.843 -0.2464 -0.1214  0.8741
   49CHL1   C19 6072   5.844   5.937   9.808 -0.7772  0.2226 -0.4481
   49CHL1  H19A 6073   5.928   5.868   9.783  0.8028  1.3385  1.4851
   49CHL1  H19B 6074   5.786   5.906   9.897  3.2634  0.0170  2.3932
   49CHL1  H19C 6075   5.782   5.951   9.717 -0.1732  0.2389 -0.8655
   49CHL1    C1 6076   6.015   6.046   9.946 -0.5232  0.7061 -0.4637
   49CHL1   H1A 6077   6.073   5.958   9.910 -1.0434 -0.1615  0.7240
   49CHL1   H1B 6078   6.083   6.132   9.966  0.6635 -0.7516  2.4417
   49CHL1    C2 6079   5.964   6.007  10.085  0.2593  0.1364  0.0560
   49CHL1   H2A 6080   6.053   5.997  10.151 -2.2924  1.2370  4.0093
   49CHL1   H2B 6081   5.924   5.904  10.083  1.4850 -0.4547  2.5345
   49CHL1   C20 6082   6.142   6.172   9.187 -0.2501 -1.2848 -0.3082
   49CHL1   H20 6083   6.078   6.083   9.166 -1.2094 -1.2539  2.1233
   49CHL1   C21 6084   6.281   6.137   9.234 -0.1068  0.2395 -0.9867
   49CHL1  H21A 6085   6.287   6.051   9.305 -1.1977  1.2827  0.4357
   49CHL1  H21B 6086   6.316   6.226   9.289 -1.6002  1.2578 -1.6171
   49CHL1  H21C 6087   6.354   6.118   9.152  0.8549 -1.4886  0.2062
   49CHL1   C22 6088   6.149   6.250   9.050 -0.5206 -0.4805  0.0442
   49CHL1  H22A 6089   6.046   6.273   9.016 -1.1120  0.1196  2.1227
   49CHL1  H22B 6090   6.186   6.354   9.056 -1.8661  0.2050 -2.3530
   49CHL1   C23 6091   6.213   6.166   8.937 -0.7854  0.2000  0.4553
   49CHL1  H23A 6092   6.319   6.138   8.956 -1.5433 -2.6534  0.8589
   49CHL1  H23B 6093   6.166   6.068   8.917  3.1207 -1.7074 -0.3117
   49CHL1   C24 6094   6.204   6.251   8.805 -0.6059 -0.0513 -0.0553
   49CHL1  H24A 6095   6.100   6.290   8.795  0.2564  2.7859  1.0894
   49CHL1  H24B 6096   6.262   6.343   8.827 -0.0923  0.1573 -2.0833
   49CHL1   C25 6097   6.250   6.180   8.675 -0.4335 -0.0868  0.4605
   49CHL1   H25 6098   6.354   6.141   8.676  0.3923  1.9055 -0.8262
   49CHL1   C26 6099   6.148   6.069   8.632 -0.0906  0.2379  0.0539
   49CHL1  H26A 6100   6.131   5.989   8.707 -1.3795 -0.8685 -1.3623
   49CHL1  H26B 6101   6.054   6.125   8.615 -0.0697  0.8902  1.8323
   49CHL1  H26C 6102   6.181   6.008   8.545 -1.1460 -1.6641  0.9250
   49CHL1   C27 6103   6.253   6.274   8.553  0.2712  0.7383  0.3263
   49CHL1  H27A 6104   6.277   6.225   8.456  0.8445  3.6237 -1.1122
   49CHL1  H27B 6105   6.149   6.314   8.542  0.4577  0.9522 -0.8195
   49CHL1  H27C 6106   6.322   6.357   8.579 -0.3393  1.5854 -0.6391
   50CHL1    C3 6107   6.161   4.403  10.009  0.7152  0.1199  0.7338
   50CHL1    H3 6108   6.252   4.340  10.020  0.1342 -0.9520 -0.4138
   50CHL1    O3 6109   6.137   4.465  10.132 -0.0365 -0.0098  0.1272
   50CHL1   H3' 6110   6.041   4.457  10.139 -0.2649  0.6252 -1.6731
   50CHL1    C4 6111   6.187   4.515   9.902 -0.2175  0.4546  0.1398
   50CHL1   H4A 6112   6.096   4.578   9.895 -0.5660 -0.0558 -0.0268
   50CHL1   H4B 6113   6.273   4.576   9.939  0.3170  0.6835 -1.3772
   50CHL1    C5 6114   6.213   4.457   9.767  0.6348 -0.0808  0.8254
   50CHL1    C6 6115   6.331   4.483   9.708 -0.2117 -0.4000 -0.0477
   50CHL1    H6 6116   6.402   4.553   9.755 -2.7427  0.3447  3.0219
   50CHL1    C7 6117   6.369   4.412   9.577  0.0553 -0.8858  0.7689
   50CHL1   H7A 6118   6.429   4.483   9.516 -0.7353 -0.1171  0.8628
   50CHL1   H7B 6119   6.429   4.320   9.594 -0.1776 -1.2848 -0.4801
   50CHL1    C8 6120   6.248   4.358   9.502 -0.6513 -0.0880  0.5067
   50CHL1    H8 6121   6.199   4.450   9.464 -0.3408  0.3872  1.2381
   50CHL1   C14 6122   6.296   4.279   9.380  0.1677  0.0757 -0.4569
   50CHL1   H14 6123   6.345   4.185   9.414 -1.4423 -0.8705 -0.6394
   50CHL1   C15 6124   6.392   4.338   9.273 -0.2073 -0.1662 -0.1427
   50CHL1  H15A 6125   6.343   4.430   9.234 -0.5439 -1.1253 -2.1187
   50CHL1  H15B 6126   6.491   4.359   9.318 -0.4552  1.5945 -0.3541
   50CHL1   C16 6127   6.380   4.244   9.154 -0.1154 -0.0622  0.0698
   50CHL1  H16A 6128   6.372   4.307   9.063  1.3983  1.9452  1.2170
   50CHL1  H16B 6129   6.473   4.184   9.147  0.6297  0.9304  1.0178
   50CHL1   C17 6130   6.262   4.144   9.183  0.3084 -0.1858 -0.5775
   50CHL1   H17 6131   6.302   4.046   9.216 -1.8520 -1.1071 -0.5195
   50CHL1   C13 6132   6.180   4.211   9.303 -0.0886  0.6431  0.6369
   50CHL1   C18 6133   6.088   4.318   9.251  0.0602 -0.9535  0.0588
   50CHL1  H18A 6134   6.009   4.273   9.186 -2.6625  1.5411  1.4058
   50CHL1  H18B 6135   6.032   4.368   9.333  0.0968  0.3300 -0.6616
   50CHL1  H18C 6136   6.134   4.397   9.188 -1.0137  0.3997  0.9205
   50CHL1   C12 6137   6.096   4.118   9.393 -0.9461  0.4181  0.2556
   50CHL1  H12A 6138   6.013   4.074   9.334 -2.1645  1.3535  1.2095
   50CHL1  H12B 6139   6.155   4.027   9.413 -0.3175  0.6784 -0.3825
   50CHL1   C11 6140   6.046   4.195   9.516 -0.0312 -0.8826 -0.2915
   50CHL1  H11A 6141   5.959   4.260   9.495 -1.3289 -0.4274  4.9914
   50CHL1  H11B 6142   6.008   4.110   9.576 -1.1153  0.3414  0.8306
   50CHL1    C9 6143   6.154   4.274   9.591  0.1526 -0.8705 -0.0879
   50CHL1    H9 6144   6.219   4.193   9.628 -0.3202 -1.9452 -1.5093
   50CHL1   C10 6145   6.110   4.354   9.716  1.0020 -0.1726 -0.4368
   50CHL1   C19 6146   5.991   4.449   9.678 -0.0137 -0.1126  0.4546
   50CHL1  H19A 6147   5.954   4.511   9.763 -1.5492 -1.4856  0.8525
   50CHL1  H19B 6148   6.001   4.506   9.584  0.2349 -0.5682  0.2051
   50CHL1  H19C 6149   5.910   4.379   9.647  2.2913 -1.9663 -1.8168
   50CHL1    C1 6150   6.064   4.255   9.831  0.0975 -0.3895 -0.0635
   50CHL1   H1A 6151   5.969   4.210   9.796 -1.6196  3.5670 -1.1206
   50CHL1   H1B 6152   6.148   4.183   9.838  1.2524  0.9644  0.5664
   50CHL1    C2 6153   6.039   4.319   9.963  0.3292 -0.2768 -0.2988
   50CHL1   H2A 6154   6.013   4.245  10.043  0.1983 -1.4857 -1.4273
   50CHL1   H2B 6155   5.952   4.386   9.950 -2.5124 -3.7251 -0.6059
   50CHL1   C20 6156   6.186   4.093   9.051 -0.3493  0.1490 -0.7471
   50CHL1   H20 6157   6.140   4.184   9.008  1.5285  0.8489 -1.3576
   50CHL1   C21 6158   6.082   3.989   9.082  0.9700  0.0933  0.7497
   50CHL1  H21A 6159   6.114   3.910   9.153 -2.3084 -0.1470  2.1215
   50CHL1  H21B 6160   6.030   3.939   8.998  0.2824  1.9957 -0.0126
   50CHL1  H21C 6161   6.008   4.050   9.139  1.4905  0.3424  1.1664
   50CHL1   C22 6162   6.283   4.042   8.943 -0.5701 -0.0377 -0.3754
   50CHL1  H22A 6163   6.370   4.111   8.946 -0.2127 -0.4378  3.1679
   50CHL1  H22B 6164   6.320   3.938   8.961  3.0987  1.1418 -0.3226
   50CHL1   C23 6165   6.219   4.037   8.806  0.1431 -0.1184  0.0492
   50CHL1  H23A 6166   6.131   3.969   8.803  0.0083  0.0851 -1.6363
   50CHL1  H23B 6167   6.173   4.135   8.779  0.8255 -0.1391 -1.3000
   50CHL1   C24 6168   6.327   4.005   8.696  0.3215 -0.2973  0.1044
   50CHL1  H24A 6169   6.412   4.071   8.723 -1.2661  2.4912 -1.1509
   50CHL1  H24B 6170   6.360   3.899   8.691  0.2892 -0.2716 -0.8601
   50CHL1   C25 6171   6.264   4.049   8.565 -0.7467  0.1627  0.1699
   50CHL1   H25 6172   6.156   4.031   8.583 -0.6462  1.3085  2.3092
   50CHL1   C26 6173   6.302   4.204   8.542  0.3441  0.0890 -0.3061
   50CHL1  H26A 6174   6.248   4.266   8.617  0.7551 -0.2782  0.2990
   50CHL1  H26B 6175   6.411   4.216   8.557  0.3790 -0.6689  0.1331
   50CHL1  H26C 6176   6.277   4.246   8.442 -1.2236 -0.5891 -0.2342
   50CHL1   C27 6177   6.310   3.966   8.445  0.6260 -0.1174 -0.3497
   50CHL1  H27A 6178   6.420   3.973   8.433  0.7131  1.3615  1.0367
   50CHL1  H27B 6179   6.272   3.862   8.458 -0.7379  0.4612  0.5546
   50CHL1  H27C 6180   6.259   4.003   8.354 -1.9576 -0.2418  0.9674
   51CHL1    C3 6181   1.901   5.809  10.236  0.1991 -0.4524  0.2737
   51CHL1    H3 6182   2.007   5.777  10.224 -0.0808 -0.3444 -4.1325
   51CHL1    O3 6183   1.845   5.793  10.361 -0.4631 -0.1669  0.3721
   51CHL1   H3' 6184   1.920   5.763  10.413 -0.5116  0.2042  0.6603
   51CHL1    C4 6185   1.885   5.961  10.197  0.3541  0.3519  0.0822
   51CHL1   H4A 6186   1.786   6.002  10.224 -0.5802 -1.8491  0.1959
   51CHL1   H4B 6187   1.960   6.013  10.260  0.7286 -1.2299  1.0161
   51CHL1    C5 6188   1.917   6.007  10.054 -0.9669  0.2195 -0.3024
   51CHL1    C6 6189   1.995   6.107  10.021  0.2369 -0.3054  0.5114
   51CHL1    H6 6190   2.044   6.158  10.105  0.7017 -0.0595  0.0962
   51CHL1    C7 6191   2.031   6.156   9.882 -1.0049  0.4786  0.7031
   51CHL1   H7A 6192   1.999   6.262   9.868 -3.0636 -0.3356 -1.3731
   51CHL1   H7B 6193   2.140   6.140   9.866 -1.1633  0.2544 -0.1743
   51CHL1    C8 6194   1.960   6.066   9.774 -0.0604 -0.3403 -0.0493
   51CHL1    H8 6195   1.857   6.105   9.757 -0.2586 -0.2672  1.1934
   51CHL1   C14 6196   2.024   6.069   9.638 -0.0983 -0.5849  0.4484
   51CHL1   H14 6197   2.119   6.012   9.645 -0.0152 -0.9696 -2.6876
   51CHL1   C15 6198   2.059   6.207   9.579 -0.5747 -0.3514  0.4649
   51CHL1  H15A 6199   1.979   6.281   9.600 -0.5812 -0.8414  2.3067
   51CHL1  H15B 6200   2.157   6.232   9.626  0.2381 -0.4216 -1.1116
   51CHL1   C16 6201   2.077   6.188   9.430 -0.0252 -0.7183 -0.1136
   51CHL1  H16A 6202   2.005   6.255   9.379  0.7276 -0.1255 -0.4275
   51CHL1  H16B 6203   2.174   6.217   9.384 -1.1769  1.8894 -1.1132
   51CHL1   C17 6204   2.039   6.042   9.406 -0.0339  0.7055 -0.4641
   51CHL1   H17 6205   2.134   5.986   9.420  0.3257  1.4077 -0.0724
   51CHL1   C13 6206   1.952   5.995   9.528  0.3425  0.4201  0.1807
   51CHL1   C18 6207   1.812   6.049   9.508  0.2149  0.7405  0.3938
   51CHL1  H18A 6208   1.814   6.159   9.488  0.3082  0.5077 -0.9603
   51CHL1  H18B 6209   1.766   6.008   9.416  2.6214 -1.3641  0.0078
   51CHL1  H18C 6210   1.742   6.035   9.593 -0.0996  0.9853  0.1777
   51CHL1   C12 6211   1.950   5.842   9.564  0.0997 -0.4598 -0.4105
   51CHL1  H12A 6212   1.895   5.787   9.484  1.7820 -0.9779 -1.2724
   51CHL1  H12B 6213   2.053   5.799   9.566  1.0537  1.5249  3.3009
   51CHL1   C11 6214   1.883   5.825   9.702  0.2079  0.4310  0.2341
   51CHL1  H11A 6215   1.772   5.835   9.693  0.2966  0.6157 -0.8343
   51CHL1  H11B 6216   1.901   5.719   9.727  1.1927  0.6651  0.5596
   51CHL1    C9 6217   1.938   5.917   9.813 -0.4757  0.2400 -0.1113
   51CHL1    H9 6218   2.036   5.871   9.840 -1.8397 -1.8929  1.5993
   51CHL1   C10 6219   1.864   5.905   9.954  0.2665 -0.1841 -0.0715
   51CHL1   C19 6220   1.721   5.954   9.941  0.0662  0.8296 -0.8228
   51CHL1  H19A 6221   1.717   6.064   9.929  3.5045  1.5295  2.5459
   51CHL1  H19B 6222   1.663   5.905   9.860 -1.8889  0.6106  0.6215
   51CHL1  H19C 6223   1.649   5.925  10.021 -1.0100  0.5142 -1.8760
   51CHL1    C1 6224   1.870   5.759  10.002  0.1879 -0.7468  0.4806
   51CHL1   H1A 6225   1.808   5.700   9.931  0.1481 -1.2292  0.9128
   51CHL1   H1B 6226   1.979   5.738  10.006  1.2902  3.7121 -0.9577
   51CHL1    C2 6227   1.812   5.734  10.138 -0.4269  0.0453  0.8053
   51CHL1   H2A 6228   1.801   5.625  10.160  0.9682 -0.1972  0.3658
   51CHL1   H2B 6229   1.704   5.761  10.135 -1.6615 -4.0238  1.3513
   51CHL1   C20 6230   1.984   6.005   9.269  0.9343  0.1067  1.1494
   51CHL1   H20 6231   1.873   5.999   9.259  1.0287  1.0220 -1.1078
   51CHL1   C21 6232   2.049   5.863   9.235  0.7892 -0.8106  0.1196
   51CHL1  H21A 6233   2.012   5.831   9.136  0.5466 -1.1675  0.3220
   51CHL1  H21B 6234   2.014   5.780   9.301 -2.2448 -0.1923 -0.5649
   51CHL1  H21C 6235   2.159   5.864   9.216  0.9908  0.2777  1.2114
   51CHL1   C22 6236   2.018   6.111   9.155  0.5512 -0.1047  0.3189
   51CHL1  H22A 6237   1.961   6.204   9.176 -0.7834 -0.6236 -0.7970
   51CHL1  H22B 6238   2.128   6.127   9.158  0.5325  0.4763 -1.2571
   51CHL1   C23 6239   1.972   6.078   9.008 -0.6528 -0.3767  0.6399
   51CHL1  H23A 6240   1.979   6.172   8.949  1.7777 -0.0112  1.3645
   51CHL1  H23B 6241   2.053   6.017   8.960  0.7801  1.6935  0.2785
   51CHL1   C24 6242   1.832   6.027   8.980 -0.3559 -0.0406  0.4999
   51CHL1  H24A 6243   1.820   5.929   9.030 -0.1696  1.0102  2.7258
   51CHL1  H24B 6244   1.759   6.101   9.018  0.4644  0.4366  1.1993
   51CHL1   C25 6245   1.794   6.031   8.826 -0.5062 -0.4718  0.3360
   51CHL1   H25 6246   1.825   6.129   8.783 -2.1131  0.0510  0.2842
   51CHL1   C26 6247   1.868   5.916   8.745 -0.6577 -0.3391 -1.2099
   51CHL1  H26A 6248   1.849   5.944   8.639  0.4712  1.1943 -1.0346
   51CHL1  H26B 6249   1.975   5.910   8.771 -0.7038  0.7842 -0.7376
   51CHL1  H26C 6250   1.808   5.825   8.771  0.5856 -1.1794 -1.2160
   51CHL1   C27 6251   1.638   6.015   8.816 -0.2405  0.2546  0.4284
   51CHL1  H27A 6252   1.601   6.053   8.718  0.3666  2.4161  0.9933
   51CHL1  H27B 6253   1.607   5.909   8.826 -1.2198  0.2574 -1.9208
   51CHL1  H27C 6254   1.596   6.066   8.905 -2.6835 -0.5480 -0.1973
   52CHL1    C3 6255   3.406   4.135  10.233  0.4111  0.3095  1.0344
   52CHL1    H3 6256   3.451   4.234  10.211  1.3020 -0.2615  0.1872
   52CHL1    O3 6257   3.383   4.142  10.367 -0.2063  0.2016  0.1229
   52CHL1   H3' 6258   3.470   4.165  10.400  1.0685 -1.2204 -2.0493
   52CHL1    C4 6259   3.276   4.125  10.160  0.8225  0.6254  0.2344
   52CHL1   H4A 6260   3.240   4.022  10.182  0.6782 -0.3125 -3.6238
   52CHL1   H4B 6261   3.208   4.204  10.197 -0.8052 -0.4130 -0.4455
   52CHL1    C5 6262   3.303   4.139  10.013  0.4006  0.4181 -0.3398
   52CHL1    C6 6263   3.253   4.234   9.929 -0.0397 -0.3758  0.6363
   52CHL1    H6 6264   3.193   4.319   9.965  0.4811  0.0923  0.4082
   52CHL1    C7 6265   3.275   4.244   9.783 -0.5998  0.1090  0.1350
   52CHL1   H7A 6266   3.177   4.275   9.741  0.5231  1.2232 -1.8174
   52CHL1   H7B 6267   3.345   4.329   9.773 -1.3307  0.4964 -2.1230
   52CHL1    C8 6268   3.328   4.109   9.724 -0.3965  0.1833 -0.2349
   52CHL1    H8 6269   3.238   4.044   9.722 -1.6008  1.7994 -0.5769
   52CHL1   C14 6270   3.382   4.128   9.586  0.2252  0.5761  0.4544
   52CHL1   H14 6271   3.471   4.195   9.594 -0.0222  0.9028  0.4721
   52CHL1   C15 6272   3.284   4.204   9.489 -0.5234 -0.5054 -0.1869
   52CHL1  H15A 6273   3.182   4.164   9.502  0.0968 -1.4680  2.1592
   52CHL1  H15B 6274   3.271   4.314   9.499 -0.4092 -0.6377  1.7311
   52CHL1   C16 6275   3.342   4.162   9.349  0.4838 -0.1225 -0.5104
   52CHL1  H16A 6276   3.256   4.121   9.292 -0.6469  0.6868  0.5919
   52CHL1  H16B 6277   3.393   4.247   9.299  0.8536 -1.3719 -2.3699
   52CHL1   C17 6278   3.457   4.052   9.371 -0.1704  1.2472 -0.4446
   52CHL1   H17 6279   3.552   4.107   9.384 -1.5749  3.5696  0.6289
   52CHL1   C13 6280   3.430   4.003   9.512 -0.0406  0.4251 -0.2794
   52CHL1   C18 6281   3.308   3.908   9.499 -0.0336  0.6926 -0.2416
   52CHL1  H18A 6282   3.223   3.948   9.440 -0.7768 -1.5480 -0.7864
   52CHL1  H18B 6283   3.337   3.818   9.441 -0.8796 -0.5100  1.1347
   52CHL1  H18C 6284   3.274   3.877   9.600 -1.7887  1.9089 -0.4041
   52CHL1   C12 6285   3.556   3.946   9.586  0.0261 -0.4678 -0.3980
   52CHL1  H12A 6286   3.587   3.845   9.551  2.2684  1.1415 -3.5794
   52CHL1  H12B 6287   3.649   4.005   9.576  0.4152 -0.8373  0.8753
   52CHL1   C11 6288   3.518   3.934   9.736 -0.3879  0.0223  0.3037
   52CHL1  H11A 6289   3.453   3.844   9.739 -0.7354  0.2845  0.6691
   52CHL1  H11B 6290   3.613   3.907   9.787 -0.6152  0.7005  1.0903
   52CHL1    C9 6291   3.439   4.053   9.810 -0.3631  0.8581  0.1918
   52CHL1    H9 6292   3.519   4.131   9.812 -0.6696  1.2316 -1.1779
   52CHL1   C10 6293   3.394   4.034   9.957 -0.1138  0.5503  0.2298
   52CHL1   C19 6294   3.329   3.890   9.960 -0.0236 -1.3664  0.1908
   52CHL1  H19A 6295   3.404   3.808   9.962  0.6640 -0.7823 -0.9216
   52CHL1  H19B 6296   3.265   3.875  10.050 -1.2298 -2.5543 -0.8171
   52CHL1  H19C 6297   3.261   3.881   9.872  1.2906  3.4212 -1.6018
   52CHL1    C1 6298   3.519   4.028  10.043  0.5039 -0.8849 -0.1270
   52CHL1   H1A 6299   3.592   3.951  10.012  0.9636  0.3506 -2.3236
   52CHL1   H1B 6300   3.568   4.127  10.027 -0.8342 -0.1471  0.1211
   52CHL1    C2 6301   3.497   4.025  10.196  0.1053 -0.1255 -0.5727
   52CHL1   H2A 6302   3.597   4.042  10.241 -1.1273  0.1349  2.2569
   52CHL1   H2B 6303   3.454   3.927  10.227  0.1015  0.5308  1.6301
   52CHL1   C20 6304   3.469   3.959   9.248 -0.3581  0.2128  0.1230
   52CHL1   H20 6305   3.375   3.900   9.242  0.7520 -1.5866 -0.2690
   52CHL1   C21 6306   3.580   3.854   9.263  0.2054  0.0133  0.2180
   52CHL1  H21A 6307   3.579   3.795   9.169 -1.6730 -0.2153  0.3319
   52CHL1  H21B 6308   3.552   3.787   9.348 -2.6552  0.9913  0.1762
   52CHL1  H21C 6309   3.681   3.899   9.272 -0.7358  2.2961  0.1027
   52CHL1   C22 6310   3.487   4.041   9.116  0.3726 -0.1673 -0.0080
   52CHL1  H22A 6311   3.426   4.134   9.110 -0.9968 -0.4927  4.7954
   52CHL1  H22B 6312   3.591   4.079   9.104  0.7573 -0.6340  1.5867
   52CHL1   C23 6313   3.452   3.959   8.991 -0.2919  0.0042  0.0450
   52CHL1  H23A 6314   3.514   3.867   8.987  0.1940  0.3592 -3.3575
   52CHL1  H23B 6315   3.344   3.933   8.994 -0.2040 -0.3657  0.0070
   52CHL1   C24 6316   3.462   4.038   8.860  0.2042 -0.1293  0.5015
   52CHL1  H24A 6317   3.565   4.076   8.846 -0.0998  0.2833 -0.7266
   52CHL1  H24B 6318   3.426   3.974   8.776 -0.6641 -2.1030  2.2657
   52CHL1   C25 6319   3.367   4.161   8.839 -0.3222  0.0788  0.1820
   52CHL1   H25 6320   3.369   4.230   8.926 -1.9852 -0.1215  0.3960
   52CHL1   C26 6321   3.415   4.243   8.715 -0.0090 -0.3727 -0.3321
   52CHL1  H26A 6322   3.340   4.325   8.705 -1.3940 -1.5739 -0.0398
   52CHL1  H26B 6323   3.518   4.280   8.734 -0.6066  1.1199  0.1587
   52CHL1  H26C 6324   3.419   4.186   8.620 -1.5851 -1.0866 -0.0003
   52CHL1   C27 6325   3.224   4.113   8.813  0.1279  0.4596 -0.7547
   52CHL1  H27A 6326   3.150   4.195   8.818 -1.1399 -0.7232  1.7720
   52CHL1  H27B 6327   3.207   4.063   8.715 -0.8454 -0.0743 -0.3346
   52CHL1  H27C 6328   3.200   4.039   8.892  0.4000  2.2101  1.0341
   53CHL1    C3 6329   4.020   3.095  10.008 -0.2290 -0.4922  0.7639
   53CHL1    H3 6330   4.114   3.036  10.000  0.0707  0.1512 -0.7168
   53CHL1    O3 6331   4.022   3.163  10.129 -0.2039  0.3873  0.5580
   53CHL1   H3' 6332   3.974   3.245  10.117  0.7817  1.1427  1.6023
   53CHL1    C4 6333   4.042   3.200   9.898 -0.7193  0.6341  0.6371
   53CHL1   H4A 6334   3.960   3.271   9.921 -1.3520 -0.3072  1.3641
   53CHL1   H4B 6335   4.141   3.244   9.922 -1.2022  1.2330  1.5912
   53CHL1    C5 6336   4.034   3.147   9.756  0.8739 -0.2734 -0.5519
   53CHL1    C6 6337   4.133   3.172   9.667 -0.1226 -0.2442 -1.0705
   53CHL1    H6 6338   4.217   3.231   9.707  0.2730  0.2649 -2.5791
   53CHL1    C7 6339   4.147   3.125   9.527 -0.1495  0.7266 -0.7709
   53CHL1   H7A 6340   4.195   3.201   9.461  1.6932 -0.5258 -0.9404
   53CHL1   H7B 6341   4.209   3.034   9.516  0.4443  1.0593 -0.2510
   53CHL1    C8 6342   4.004   3.092   9.481  0.1146 -0.4053  0.0113
   53CHL1    H8 6343   3.951   3.187   9.458  1.7855  0.5548 -0.0370
   53CHL1   C14 6344   4.009   3.017   9.344 -0.4770  0.4307 -0.4341
   53CHL1   H14 6345   4.055   2.917   9.363 -0.7653  0.9144  3.7533
   53CHL1   C15 6346   4.091   3.079   9.237  0.1598  0.6333  0.0080
   53CHL1  H15A 6347   4.070   3.188   9.231 -0.2128  0.5910  0.4991
   53CHL1  H15B 6348   4.198   3.053   9.250 -0.1404 -1.3060 -1.0902
   53CHL1   C16 6349   4.029   3.020   9.103  0.0411 -1.0149  0.7730
   53CHL1  H16A 6350   3.999   3.110   9.045  2.7330  1.3867  2.8198
   53CHL1  H16B 6351   4.101   2.968   9.036 -0.5631  0.4153 -1.0710
   53CHL1   C17 6352   3.905   2.928   9.145 -0.0978  0.5312  0.1736
   53CHL1   H17 6353   3.947   2.828   9.170  0.8293  1.0552  0.7572
   53CHL1   C13 6354   3.871   2.981   9.285  0.4355 -0.2395  0.1431
   53CHL1   C18 6355   3.792   3.114   9.259 -0.5484 -0.2702  0.7660
   53CHL1  H18A 6356   3.856   3.188   9.207 -2.0931  1.2350  0.9006
   53CHL1  H18B 6357   3.698   3.092   9.204  0.5438 -1.7248 -0.6140
   53CHL1  H18C 6358   3.759   3.169   9.350  0.8794  2.4961 -0.2849
   53CHL1   C12 6359   3.809   2.877   9.381  0.1506  0.2814 -0.3017
   53CHL1  H12A 6360   3.710   2.849   9.340  0.0204  1.0479 -0.5303
   53CHL1  H12B 6361   3.881   2.793   9.388 -0.3606 -0.0623  1.4964
   53CHL1   C11 6362   3.790   2.944   9.519 -0.2463  0.3539 -0.1515
   53CHL1  H11A 6363   3.712   3.020   9.499  0.0549  0.1262 -2.5553
   53CHL1  H11B 6364   3.757   2.865   9.589 -0.6722  0.8300  0.1867
   53CHL1    C9 6365   3.927   2.998   9.584 -0.0409  0.1004  0.5554
   53CHL1    H9 6366   3.992   2.909   9.603 -0.3277 -0.6315 -1.5788
   53CHL1   C10 6367   3.908   3.063   9.723 -0.1425 -0.6184  0.0345
   53CHL1   C19 6368   3.788   3.162   9.720 -0.0103 -0.1626  0.3865
   53CHL1  H19A 6369   3.797   3.228   9.809 -0.6625  0.3010  0.1221
   53CHL1  H19B 6370   3.804   3.230   9.633 -0.3282  2.0854  1.9911
   53CHL1  H19C 6371   3.702   3.091   9.723  0.5612 -1.0177 -1.5780
   53CHL1    C1 6372   3.895   2.958   9.842 -0.2068  0.2700 -0.2291
   53CHL1   H1A 6373   3.794   2.914   9.830  0.8538 -2.0619 -1.2855
   53CHL1   H1B 6374   3.962   2.873   9.818 -1.2040 -0.2038 -1.4443
   53CHL1    C2 6375   3.894   3.013   9.990 -0.2992 -0.3862  0.1316
   53CHL1   H2A 6376   3.885   2.924  10.056 -1.2450 -0.3164  0.1056
   53CHL1   H2B 6377   3.798   3.067  10.003 -1.2561 -2.2664  1.4148
   53CHL1   C20 6378   3.802   2.909   9.036  0.4609 -0.1620  0.5054
   53CHL1   H20 6379   3.709   2.895   9.093  0.5823  1.1817  1.0827
   53CHL1   C21 6380   3.839   2.782   8.961 -0.0431  0.5966  0.3696
   53CHL1  H21A 6381   3.758   2.746   8.894  0.4183 -0.1802  0.2258
   53CHL1  H21B 6382   3.857   2.701   9.034 -1.0584 -0.7650 -0.8444
   53CHL1  H21C 6383   3.931   2.788   8.899 -0.0815  0.1671  0.2717
   53CHL1   C22 6384   3.773   3.025   8.936 -0.3558 -0.4736  0.5236
   53CHL1  H22A 6385   3.721   3.110   8.986 -4.2585 -2.0907 -0.4387
   53CHL1  H22B 6386   3.863   3.053   8.877 -1.1153 -2.6531 -1.7945
   53CHL1   C23 6387   3.669   3.000   8.820 -0.6033  0.0566 -0.0060
   53CHL1  H23A 6388   3.724   2.932   8.751 -1.0080 -0.8349  0.5234
   53CHL1  H23B 6389   3.593   2.941   8.876 -0.5046 -0.1459 -0.0823
   53CHL1   C24 6390   3.626   3.129   8.751 -0.1828  0.5602 -0.2502
   53CHL1  H24A 6391   3.565   3.191   8.820 -1.6483 -1.5597  0.4558
   53CHL1  H24B 6392   3.725   3.176   8.731 -0.0177  0.5859  0.5845
   53CHL1   C25 6393   3.557   3.113   8.616 -0.2915 -1.0153 -0.6632
   53CHL1   H25 6394   3.553   3.217   8.578 -2.0163 -1.0040 -0.5186
   53CHL1   C26 6395   3.662   3.048   8.513 -0.5188 -0.0332 -0.2610
   53CHL1  H26A 6396   3.752   3.113   8.519 -1.9127  2.3515 -2.8750
   53CHL1  H26B 6397   3.699   2.947   8.543  0.1861  0.5719  0.9930
   53CHL1  H26C 6398   3.624   3.047   8.409 -0.6049 -3.6631 -0.3229
   53CHL1   C27 6399   3.417   3.057   8.618  0.0674 -0.5585 -0.5381
   53CHL1  H27A 6400   3.356   3.118   8.688 -0.3644 -0.5692 -0.9065
   53CHL1  H27B 6401   3.373   3.061   8.517 -1.5582 -2.5099  0.0261
   53CHL1  H27C 6402   3.413   2.951   8.653  0.1301  0.0880  1.5567
   54CHL1    C3 6403   5.464   5.858  10.103  0.2975 -0.7127 -0.1624
   54CHL1    H3 6404   5.571   5.865  10.075 -0.0920 -0.7630 -1.7439
   54CHL1    O3 6405   5.457   5.851  10.243  0.4553  0.7928 -0.6975
   54CHL1   H3' 6406   5.503   5.930  10.273  1.3461  0.7594 -1.9042
   54CHL1    C4 6407   5.379   5.979  10.053  0.1840 -0.0569  0.2886
   54CHL1   H4A 6408   5.273   5.979  10.086 -0.7956  2.3637 -2.3819
   54CHL1   H4B 6409   5.420   6.062  10.115  2.1883 -1.5586  1.0821
   54CHL1    C5 6410   5.387   5.996   9.902 -0.7996 -0.3369  0.0986
   54CHL1    C6 6411   5.420   6.112   9.842 -0.1540  0.0446  0.0630
   54CHL1    H6 6412   5.436   6.202   9.902 -0.0719  1.2623 -1.6927
   54CHL1    C7 6413   5.424   6.145   9.694  0.0037  0.1979  0.6336
   54CHL1   H7A 6414   5.379   6.241   9.663  0.0283 -0.0581 -0.2250
   54CHL1   H7B 6415   5.528   6.149   9.656  0.1717  1.3442  1.1803
   54CHL1    C8 6416   5.353   6.024   9.618  0.0714 -0.4797  0.0818
   54CHL1    H8 6417   5.243   6.041   9.626 -0.3925 -1.4736 -3.0171
   54CHL1   C14 6418   5.400   6.026   9.477  0.2656  0.4708  0.0725
   54CHL1   H14 6419   5.507   6.000   9.488  0.1836  0.0406 -0.1529
   54CHL1   C15 6420   5.403   6.162   9.405  0.1341 -0.9001 -0.4469
   54CHL1  H15A 6421   5.313   6.226   9.414  1.3155  0.6711  0.7542
   54CHL1  H15B 6422   5.491   6.225   9.432 -0.1646 -1.6088  2.4833
   54CHL1   C16 6423   5.420   6.125   9.258 -0.3131 -0.0856  0.2721
   54CHL1  H16A 6424   5.336   6.171   9.201 -0.0925  0.2062  0.1828
   54CHL1  H16B 6425   5.515   6.173   9.225 -0.5426  0.7339  0.7579
   54CHL1   C17 6426   5.409   5.967   9.257 -0.1532 -0.5063  0.1310
   54CHL1   H17 6427   5.514   5.934   9.273 -0.7489 -3.0888 -0.8346
   54CHL1   C13 6428   5.334   5.924   9.382  0.7690  0.2384  0.0988
   54CHL1   C18 6429   5.181   5.946   9.369  0.2321  0.0860  0.5189
   54CHL1  H18A 6430   5.132   5.865   9.310  0.3249  0.7565 -0.4963
   54CHL1  H18B 6431   5.133   5.947   9.469  1.4913  1.7760  1.1430
   54CHL1  H18C 6432   5.145   6.039   9.321 -2.0870 -0.8186  0.3546
   54CHL1   C12 6433   5.367   5.783   9.435 -0.0488  0.1542 -0.0936
   54CHL1  H12A 6434   5.313   5.709   9.372 -0.2899  0.7286 -0.5816
   54CHL1  H12B 6435   5.478   5.785   9.433  0.0259  0.3470  2.2078
   54CHL1   C11 6436   5.323   5.771   9.581  0.5515 -0.0046 -0.0059
   54CHL1  H11A 6437   5.214   5.753   9.599  0.8056 -0.5194  1.1329
   54CHL1  H11B 6438   5.368   5.679   9.623  0.8533 -0.0394 -0.4000
   54CHL1    C9 6439   5.381   5.886   9.672 -0.2335 -0.1300 -0.4831
   54CHL1    H9 6440   5.491   5.872   9.666 -0.0913  1.0108 -0.7860
   54CHL1   C10 6441   5.352   5.868   9.827  0.3164 -0.1189  0.0619
   54CHL1   C19 6442   5.201   5.847   9.850  0.2008 -0.0932 -0.2664
   54CHL1  H19A 6443   5.168   5.873   9.953  2.2442 -1.1793  0.7076
   54CHL1  H19B 6444   5.133   5.895   9.776  0.4053 -2.6804 -2.2645
   54CHL1  H19C 6445   5.163   5.743   9.841  0.5044 -0.1272 -1.3376
   54CHL1    C1 6446   5.426   5.743   9.892 -0.3906 -0.0392  0.8629
   54CHL1   H1A 6447   5.393   5.661   9.826  1.0369 -0.2622  0.4114
   54CHL1   H1B 6448   5.535   5.762   9.882 -0.0526 -1.8463  0.8226
   54CHL1    C2 6449   5.406   5.730  10.036  0.0132  0.3088 -0.0728
   54CHL1   H2A 6450   5.455   5.641  10.081  1.1631  1.6049  1.3660
   54CHL1   H2B 6451   5.296   5.726  10.051 -0.2761 -0.1901 -2.0989
   54CHL1   C20 6452   5.355   5.920   9.117  0.9519  0.2897  0.3416
   54CHL1   H20 6453   5.247   5.948   9.118  1.4177  2.5179 -1.8461
   54CHL1   C21 6454   5.361   5.771   9.093  0.3003 -0.4194  0.8099
   54CHL1  H21A 6455   5.298   5.718   9.167 -1.0840 -2.6866 -1.7935
   54CHL1  H21B 6456   5.466   5.736   9.098  0.8471  1.1742  1.0949
   54CHL1  H21C 6457   5.322   5.751   8.991  2.2922  0.7653 -0.2563
   54CHL1   C22 6458   5.419   5.993   8.988  0.7376  0.1016 -0.6026
   54CHL1  H22A 6459   5.366   5.957   8.897 -0.5046  2.6140 -0.9509
   54CHL1  H22B 6460   5.401   6.102   8.997  2.7687  0.4822 -0.6216
   54CHL1   C23 6461   5.569   5.979   8.964  0.6571  0.0911 -0.7532
   54CHL1  H23A 6462   5.612   6.053   9.036 -0.5573  1.2228 -1.1414
   54CHL1  H23B 6463   5.593   5.872   8.980 -0.6417 -0.0192  0.6276
   54CHL1   C24 6464   5.615   6.021   8.826 -0.0573  0.5119  0.0184
   54CHL1  H24A 6465   5.558   5.961   8.752  0.0495 -1.6036  1.5413
   54CHL1  H24B 6466   5.579   6.123   8.802 -0.4387  0.0051 -1.6481
   54CHL1   C25 6467   5.772   6.015   8.805  0.9718  0.1547  0.2390
   54CHL1   H25 6468   5.789   6.037   8.698 -0.4157 -0.3442 -0.1058
   54CHL1   C26 6469   5.841   6.126   8.885 -0.2976 -1.1605  0.2206
   54CHL1  H26A 6470   5.847   6.108   8.995 -2.2201 -0.4868  0.4751
   54CHL1  H26B 6471   5.943   6.134   8.843  0.0206 -1.3210  0.9514
   54CHL1  H26C 6472   5.793   6.223   8.862  0.9026 -0.8468 -1.0461
   54CHL1   C27 6473   5.839   5.879   8.811 -0.2047  0.1332 -0.6840
   54CHL1  H27A 6474   5.950   5.891   8.814 -0.1806  0.0044  2.7607
   54CHL1  H27B 6475   5.808   5.825   8.903 -2.2562  2.3338  0.0127
   54CHL1  H27C 6476   5.818   5.816   8.721  0.4596  0.5142 -1.1208
   55CHL1    C3 6477   4.928   2.445  10.131 -0.4966  0.5418 -0.4129
   55CHL1    H3 6478   5.016   2.384  10.106 -0.3364  0.1181  1.1163
   55CHL1    O3 6479   4.900   2.444  10.266  0.4128 -0.0924  0.2117
   55CHL1   H3' 6480   4.860   2.360  10.291 -1.3838  1.0767  1.5455
   55CHL1    C4 6481   4.956   2.590  10.100  0.1123  0.3601  0.0586
   55CHL1   H4A 6482   4.865   2.651  10.113 -0.6242 -0.4858 -0.9708
   55CHL1   H4B 6483   5.035   2.630  10.167  0.8005  1.8155 -1.5396
   55CHL1    C5 6484   4.996   2.601   9.953 -0.3720  0.4596  0.4028
   55CHL1    C6 6485   5.113   2.653   9.912  0.4689 -0.2816  0.5891
   55CHL1    H6 6486   5.173   2.691   9.997 -0.5535  2.2336  0.2832
   55CHL1    C7 6487   5.160   2.658   9.771 -0.2930 -0.2510  0.5348
   55CHL1   H7A 6488   5.196   2.760   9.744  0.4023 -0.4302  0.7642
   55CHL1   H7B 6489   5.244   2.585   9.765  0.5835  0.5913  1.9019
   55CHL1    C8 6490   5.042   2.634   9.670 -0.6814  0.4471 -1.1939
   55CHL1    H8 6491   4.980   2.726   9.666  0.4531  1.4159  1.3904
   55CHL1   C14 6492   5.084   2.606   9.531 -0.5369 -0.4622 -0.0119
   55CHL1   H14 6493   5.125   2.503   9.536  1.8557  0.4038 -0.0720
   55CHL1   C15 6494   5.207   2.681   9.471 -0.1210 -0.1124 -0.2352
   55CHL1  H15A 6495   5.202   2.785   9.511 -0.0223 -0.5180  0.8675
   55CHL1  H15B 6496   5.305   2.647   9.509 -0.6839 -0.4912  0.9195
   55CHL1   C16 6497   5.186   2.670   9.317 -0.3822  0.1413 -0.3506
   55CHL1  H16A 6498   5.173   2.773   9.277 -0.7294 -0.5098 -1.9730
   55CHL1  H16B 6499   5.271   2.617   9.269 -1.4177 -2.1151  0.1752
   55CHL1   C17 6500   5.063   2.578   9.291 -0.3815 -0.1504  0.2162
   55CHL1   H17 6501   5.114   2.479   9.291  2.0888  1.0158  2.2678
   55CHL1   C13 6502   4.977   2.592   9.421  0.6515  0.0780 -0.1834
   55CHL1   C18 6503   4.897   2.726   9.415  0.0099  0.0983 -0.6037
   55CHL1  H18A 6504   4.841   2.741   9.510  2.1108  0.0908  0.6972
   55CHL1  H18B 6505   4.959   2.815   9.391 -3.3376  2.2359 -1.9872
   55CHL1  H18C 6506   4.817   2.718   9.339  2.0591 -1.2173 -2.7539
   55CHL1   C12 6507   4.888   2.475   9.456 -0.2609  0.6823 -0.0602
   55CHL1  H12A 6508   4.803   2.464   9.385 -1.0948  1.0821  0.8409
   55CHL1  H12B 6509   4.955   2.387   9.448  0.9721  1.2467  2.7939
   55CHL1   C11 6510   4.841   2.488   9.600  0.0190 -0.7306 -0.8462
   55CHL1  H11A 6511   4.772   2.574   9.609 -0.1681 -1.0277  0.9185
   55CHL1  H11B 6512   4.784   2.400   9.638  3.1211 -2.8891 -0.8451
   55CHL1    C9 6513   4.954   2.521   9.711  0.0056  0.1691  0.7158
   55CHL1    H9 6514   5.007   2.423   9.713 -1.1475 -0.5519 -0.9150
   55CHL1   C10 6515   4.894   2.538   9.854 -0.3797 -0.6455 -0.1878
   55CHL1   C19 6516   4.779   2.644   9.861  0.0337 -0.4258 -0.0717
   55CHL1  H19A 6517   4.732   2.656   9.961 -0.6127  0.3625 -0.4644
   55CHL1  H19B 6518   4.813   2.746   9.835 -0.0512 -0.4419 -0.2448
   55CHL1  H19C 6519   4.698   2.613   9.791  0.6121 -1.8666 -0.1502
   55CHL1    C1 6520   4.835   2.397   9.901  0.7135 -0.1263  0.8367
   55CHL1   H1A 6521   4.739   2.370   9.854  0.8970 -2.5398  1.7162
   55CHL1   H1B 6522   4.900   2.316   9.863  0.3449 -0.0698  0.0762
   55CHL1    C2 6523   4.811   2.387  10.048 -0.4292  0.3363 -0.1983
   55CHL1   H2A 6524   4.796   2.284  10.089  0.1852  1.1045  2.1360
   55CHL1   H2B 6525   4.720   2.435  10.090 -1.1959 -2.3309  1.4390
   55CHL1   C20 6526   4.994   2.611   9.155 -0.0333  0.0380 -0.2587
   55CHL1   H20 6527   4.955   2.714   9.172  1.6151  0.5084  0.9327
   55CHL1   C21 6528   4.885   2.513   9.114  0.0058  0.2713 -0.3926
   55CHL1  H21A 6529   4.798   2.508   9.182  0.0311  1.3989 -0.2653
   55CHL1  H21B 6530   4.919   2.407   9.113 -0.1681  0.2064  0.3412
   55CHL1  H21C 6531   4.845   2.529   9.011 -0.4301 -2.2100 -0.6787
   55CHL1   C22 6532   5.091   2.634   9.034  0.0447 -0.2029  0.7333
   55CHL1  H22A 6533   5.157   2.719   9.063 -1.2498  1.6433 -1.4585
   55CHL1  H22B 6534   5.146   2.540   9.010 -2.2409 -1.1067 -1.3860
   55CHL1   C23 6535   5.023   2.697   8.916  0.0295 -0.0540  0.3035
   55CHL1  H23A 6536   4.984   2.616   8.851 -1.2549  1.3709 -0.7655
   55CHL1  H23B 6537   4.943   2.766   8.949  1.6108  3.0091 -1.7778
   55CHL1   C24 6538   5.121   2.778   8.822  0.3113  0.5425 -0.3508
   55CHL1  H24A 6539   5.150   2.867   8.881 -0.4811 -0.4039  1.5414
   55CHL1  H24B 6540   5.212   2.721   8.794  0.3839  0.9999 -1.0949
   55CHL1   C25 6541   5.070   2.836   8.690 -0.3801 -0.3531 -0.2743
   55CHL1   H25 6542   5.031   2.938   8.711  0.5828  0.2069 -1.1313
   55CHL1   C26 6543   5.184   2.854   8.588 -0.5008 -0.0148  0.8952
   55CHL1  H26A 6544   5.161   2.947   8.531  0.2054  0.0283  0.6721
   55CHL1  H26B 6545   5.282   2.887   8.629  0.7688  0.4989 -2.2370
   55CHL1  H26C 6546   5.199   2.764   8.525 -1.4601  1.1982 -1.2016
   55CHL1   C27 6547   4.951   2.756   8.627  0.2651 -0.1213  0.1660
   55CHL1  H27A 6548   4.923   2.797   8.528 -0.4240 -0.5310  0.1837
   55CHL1  H27B 6549   4.982   2.651   8.608  1.7235  0.0816  1.2294
   55CHL1  H27C 6550   4.862   2.743   8.692 -1.3661  2.3015 -1.4213
   56CHL1    C3 6551   4.958   1.515   9.974 -0.0778  0.1229 -0.3913
   56CHL1    H3 6552   4.848   1.524   9.958 -0.7413 -0.1896  3.1097
   56CHL1    O3 6553   4.974   1.513  10.113 -0.1896 -0.0762  0.1121
   56CHL1   H3' 6554   5.064   1.544  10.118  0.1070 -0.6570 -1.1096
   56CHL1    C4 6555   5.024   1.391   9.918  0.0400 -0.1321 -1.1728
   56CHL1   H4A 6556   5.131   1.387   9.948 -0.0655  0.3295 -0.7025
   56CHL1   H4B 6557   4.971   1.309   9.970  1.1788 -0.2527 -0.1696
   56CHL1    C5 6558   5.001   1.386   9.771 -0.0331 -0.5521  0.0340
   56CHL1    C6 6559   4.928   1.293   9.710 -0.1371 -0.6697  0.2150
   56CHL1    H6 6560   4.880   1.220   9.776  3.2812 -0.6879  2.9893
   56CHL1    C7 6561   4.890   1.289   9.565  0.1158 -0.3025 -0.0957
   56CHL1   H7A 6562   4.901   1.183   9.531 -1.7979 -1.8262  3.4988
   56CHL1   H7B 6563   4.784   1.316   9.549  0.0489 -0.9793 -0.8971
   56CHL1    C8 6564   4.979   1.374   9.480 -0.6845  0.4562  0.6564
   56CHL1    H8 6565   5.078   1.323   9.474  0.7205  3.1111 -0.3855
   56CHL1   C14 6566   4.938   1.390   9.334  0.1220 -0.0792  0.7452
   56CHL1   H14 6567   4.835   1.432   9.346 -0.4672 -1.6746  1.5230
   56CHL1   C15 6568   4.919   1.264   9.253 -0.4098  0.0239 -0.2035
   56CHL1  H15A 6569   5.001   1.192   9.274 -0.2991 -0.5266 -2.3058
   56CHL1  H15B 6570   4.823   1.216   9.285 -0.8772  1.4485  0.6089
   56CHL1   C16 6571   4.926   1.308   9.107  0.0494  0.1711 -0.3145
   56CHL1  H16A 6572   4.995   1.240   9.053  1.3031 -2.7536  4.4149
   56CHL1  H16B 6573   4.822   1.295   9.070 -0.9328 -0.2533  2.3493
   56CHL1   C17 6574   4.978   1.456   9.107 -0.5989  0.3270 -0.0552
   56CHL1   H17 6575   4.880   1.508   9.092 -0.8753 -0.4678 -1.1593
   56CHL1   C13 6576   5.032   1.481   9.249  0.6904  0.3561  0.2231
   56CHL1   C18 6577   5.171   1.416   9.251  0.0460 -0.5381 -0.2413
   56CHL1  H18A 6578   5.227   1.394   9.344  0.0284 -2.0351 -0.5552
   56CHL1  H18B 6579   5.164   1.319   9.196 -0.7053 -1.2941  1.1526
   56CHL1  H18C 6580   5.232   1.488   9.193  0.5571  0.6753  1.7141
   56CHL1   C12 6581   5.027   1.628   9.303  0.4790  0.5012 -0.6317
   56CHL1  H12A 6582   5.083   1.699   9.238 -0.1318  0.9715 -0.6540
   56CHL1  H12B 6583   4.921   1.660   9.311  0.1485 -0.7821  0.6869
   56CHL1   C11 6584   5.076   1.616   9.446 -0.6214  0.9267 -0.2117
   56CHL1  H11A 6585   5.180   1.575   9.449 -0.8086  0.4653  0.2765
   56CHL1  H11B 6586   5.061   1.714   9.496 -0.2583  1.3375 -0.8882
   56CHL1    C9 6587   4.994   1.517   9.536 -0.6611  0.1829  0.2676
   56CHL1    H9 6588   4.889   1.550   9.553 -0.4953  0.8540  0.0115
   56CHL1   C10 6589   5.049   1.508   9.688  0.1276  1.0952  0.4653
   56CHL1   C19 6590   5.206   1.497   9.689 -0.2529  0.1663  0.4225
   56CHL1  H19A 6591   5.235   1.497   9.796 -0.5355 -0.6587  0.5015
   56CHL1  H19B 6592   5.232   1.400   9.643 -1.2189 -1.2148  2.6339
   56CHL1  H19C 6593   5.251   1.581   9.631 -0.4461  0.2105  0.3365
   56CHL1    C1 6594   5.004   1.638   9.761  0.0031 -0.5018  0.1511
   56CHL1   H1A 6595   5.070   1.712   9.711 -3.4248  1.8623 -1.2659
   56CHL1   H1B 6596   4.896   1.644   9.734 -0.4720 -2.2223  1.4779
   56CHL1    C2 6597   5.019   1.640   9.909 -0.5007  0.5235  0.1327
   56CHL1   H2A 6598   4.959   1.720   9.956 -2.2685 -0.9598  0.5333
   56CHL1   H2B 6599   5.127   1.647   9.934 -0.9444  1.0317  2.0894
   56CHL1   C20 6600   5.054   1.503   8.974  0.9632  0.8913 -0.6310
   56CHL1   H20 6601   5.150   1.447   8.971 -1.4492 -3.7703  0.1527
   56CHL1   C21 6602   5.091   1.648   8.976  0.5038 -0.3471  1.0956
   56CHL1  H21A 6603   5.155   1.674   9.063 -0.4538  2.9583  0.9526
   56CHL1  H21B 6604   4.996   1.705   8.981 -1.1793 -2.8919  0.2775
   56CHL1  H21C 6605   5.155   1.682   8.892 -1.0824  1.4027  0.5332
   56CHL1   C22 6606   4.977   1.466   8.845  0.1979 -0.4432  0.1003
   56CHL1  H22A 6607   4.965   1.357   8.834  2.0065 -0.5035 -1.7476
   56CHL1  H22B 6608   4.872   1.503   8.843  0.8933  1.6429 -0.6537
   56CHL1   C23 6609   5.050   1.523   8.720 -1.2215 -1.1860  0.0489
   56CHL1  H23A 6610   5.036   1.632   8.730  1.1566 -1.0184  2.9614
   56CHL1  H23B 6611   5.160   1.511   8.726 -1.1135 -0.4855 -0.5158
   56CHL1   C24 6612   5.000   1.466   8.587  0.5588  0.0241  0.3542
   56CHL1  H24A 6613   5.088   1.464   8.520 -0.2548  1.7154 -0.8564
   56CHL1  H24B 6614   4.983   1.358   8.607  0.0375 -0.3453 -1.8268
   56CHL1   C25 6615   4.867   1.502   8.519 -0.0164 -0.0941 -0.4915
   56CHL1   H25 6616   4.779   1.479   8.582  0.4783  0.7973  0.5560
   56CHL1   C26 6617   4.865   1.655   8.496  0.1215 -0.3502  0.2278
   56CHL1  H26A 6618   4.791   1.681   8.417  1.8183  0.0015 -1.3095
   56CHL1  H26B 6619   4.841   1.713   8.588  0.8205 -0.8777  0.7542
   56CHL1  H26C 6620   4.964   1.699   8.473  0.3164  0.1616  1.8786
   56CHL1   C27 6621   4.861   1.428   8.387  0.6259  0.8016 -0.1232
   56CHL1  H27A 6622   4.763   1.448   8.341  0.6768  0.7804 -0.2415
   56CHL1  H27B 6623   4.937   1.474   8.320  0.6411 -1.5962 -1.8914
   56CHL1  H27C 6624   4.881   1.318   8.385 -2.9441 -0.0200  1.6020
   57CHL1    C3 6625   6.366   4.068  10.112 -0.7202  0.5631 -0.0940
   57CHL1    H3 6626   6.263   4.106  10.092 -0.2071  0.7173 -2.9321
   57CHL1    O3 6627   6.397   4.072  10.248  0.2000 -0.3101  0.0094
   57CHL1   H3' 6628   6.492   4.090  10.251  0.2444  0.1468 -2.3693
   57CHL1    C4 6629   6.376   3.922  10.063  0.6516 -0.1344  0.2175
   57CHL1   H4A 6630   6.474   3.887  10.103  1.6013  2.0609 -0.0066
   57CHL1   H4B 6631   6.289   3.864  10.099  0.3693 -0.9965 -1.7480
   57CHL1    C5 6632   6.379   3.913   9.912  1.0004  0.1531 -0.3669
   57CHL1    C6 6633   6.287   3.840   9.841 -0.6612  0.1690 -0.2609
   57CHL1    H6 6634   6.210   3.788   9.899 -0.6650  1.7661  1.2576
   57CHL1    C7 6635   6.303   3.822   9.691 -0.4808 -0.4447  0.3529
   57CHL1   H7A 6636   6.286   3.719   9.654 -0.8523  0.6504 -2.8058
   57CHL1   H7B 6637   6.241   3.900   9.641  2.8762  1.9401 -0.4933
   57CHL1    C8 6638   6.446   3.865   9.637  0.3877 -0.0585 -0.1835
   57CHL1    H8 6639   6.519   3.782   9.653  1.3835 -0.0877 -4.0477
   57CHL1   C14 6640   6.438   3.891   9.489  0.4390  0.0001  0.3333
   57CHL1   H14 6641   6.377   3.982   9.470 -2.5437 -1.3311  2.6339
   57CHL1   C15 6642   6.371   3.779   9.407 -1.0143  0.2112 -0.6602
   57CHL1  H15A 6643   6.391   3.679   9.452 -0.4727 -0.6113 -2.6235
   57CHL1  H15B 6644   6.260   3.778   9.396 -1.1818 -1.0933  0.7436
   57CHL1   C16 6645   6.440   3.789   9.265  0.3902  0.6249 -0.1701
   57CHL1  H16A 6646   6.484   3.688   9.248 -1.3868 -0.3942  0.9471
   57CHL1  H16B 6647   6.356   3.811   9.196 -2.3585 -1.1120  2.4053
   57CHL1   C17 6648   6.557   3.892   9.273  0.0073  0.3052 -0.4593
   57CHL1   H17 6649   6.519   3.988   9.231  2.8557  1.6602 -0.2239
   57CHL1   C13 6650   6.574   3.911   9.427  0.3478 -0.6938  0.4855
   57CHL1   C18 6651   6.667   3.803   9.474 -0.0761  0.1032  0.0254
   57CHL1  H18A 6652   6.633   3.700   9.452  3.2558 -1.5936  2.0235
   57CHL1  H18B 6653   6.769   3.814   9.430  0.4377 -1.7226  0.6705
   57CHL1  H18C 6654   6.689   3.810   9.583  1.4396  0.9461 -0.2975
   57CHL1   C12 6655   6.622   4.053   9.473  0.1284  0.3397 -0.0649
   57CHL1  H12A 6656   6.728   4.071   9.444  1.0044  1.4034  3.2822
   57CHL1  H12B 6657   6.568   4.138   9.427 -0.3157 -0.7204 -1.5652
   57CHL1   C11 6658   6.617   4.062   9.623 -0.9811 -0.1984 -0.3121
   57CHL1  H11A 6659   6.706   4.012   9.667  1.6097  3.2716 -1.1903
   57CHL1  H11B 6660   6.626   4.168   9.655 -0.5956 -0.0460 -0.9112
   57CHL1    C9 6661   6.493   3.997   9.694 -0.1036 -0.3525 -0.1204
   57CHL1    H9 6662   6.408   4.060   9.660  0.8094  0.8724 -0.1934
   57CHL1   C10 6663   6.496   3.994   9.850  0.2148  0.2614 -0.1514
   57CHL1   C19 6664   6.631   3.948   9.907 -0.5746 -0.8089 -0.6799
   57CHL1  H19A 6665   6.639   3.961  10.017  0.1817 -1.5947 -0.6335
   57CHL1  H19B 6666   6.650   3.839   9.893 -0.8454 -0.6465 -2.6158
   57CHL1  H19C 6667   6.719   3.999   9.863  2.1966 -3.2278  1.6244
   57CHL1    C1 6668   6.466   4.145   9.891  0.2661  0.1366 -0.0686
   57CHL1   H1A 6669   6.543   4.206   9.839  0.0876 -0.4924 -1.0849
   57CHL1   H1B 6670   6.365   4.164   9.849 -0.0013  0.6047  0.7573
   57CHL1    C2 6671   6.467   4.167  10.044  0.5505 -0.1319  0.7432
   57CHL1   H2A 6672   6.448   4.275  10.060  0.6083  0.0460 -0.3337
   57CHL1   H2B 6673   6.569   4.139  10.076  0.9544  1.0554  0.5355
   57CHL1   C20 6674   6.671   3.853   9.174 -0.5134  0.2419 -0.9472
   57CHL1   H20 6675   6.700   3.749   9.199 -0.1149  0.3635 -0.9050
   57CHL1   C21 6676   6.798   3.944   9.190  0.1387  0.9116 -0.3925
   57CHL1  H21A 6677   6.881   3.920   9.119  0.8490  0.1079  0.6812
   57CHL1  H21B 6678   6.842   3.938   9.292 -1.4279  0.9132  0.3150
   57CHL1  H21C 6679   6.771   4.052   9.180  1.8020  1.5449  1.4610
   57CHL1   C22 6680   6.605   3.848   9.030 -0.5440 -0.3380  0.4425
   57CHL1  H22A 6681   6.517   3.781   9.023 -0.2164 -0.6499 -1.1290
   57CHL1  H22B 6682   6.583   3.954   9.002 -0.2443 -0.6126 -0.9217
   57CHL1   C23 6683   6.694   3.803   8.912 -0.0769 -0.0381 -0.6517
   57CHL1  H23A 6684   6.791   3.857   8.906  0.5386 -0.9874  0.2124
   57CHL1  H23B 6685   6.718   3.696   8.931  0.5471  0.3044  0.5991
   57CHL1   C24 6686   6.622   3.809   8.773 -0.4292 -0.3154 -0.1744
   57CHL1  H24A 6687   6.528   3.753   8.789  0.4350 -1.7559  0.0136
   57CHL1  H24B 6688   6.594   3.915   8.752 -0.6582 -0.1600  0.8529
   57CHL1   C25 6689   6.711   3.750   8.662  0.0408 -0.6683  0.3243
   57CHL1   H25 6690   6.813   3.793   8.666 -0.1152 -0.3437  0.9044
   57CHL1   C26 6691   6.720   3.596   8.669  0.2017 -0.7653  0.9102
   57CHL1  H26A 6692   6.617   3.562   8.645 -0.2118  2.1089 -1.9127
   57CHL1  H26B 6693   6.802   3.562   8.602  0.1044 -1.4598  1.1323
   57CHL1  H26C 6694   6.730   3.565   8.776  1.6765  0.0718  1.0504
   57CHL1   C27 6695   6.659   3.791   8.519  0.7954  0.2945  0.0179
   57CHL1  H27A 6696   6.628   3.897   8.516  0.2886  0.2135  1.7363
   57CHL1  H27B 6697   6.735   3.764   8.443 -0.3653 -0.1114 -1.0395
   57CHL1  H27C 6698   6.575   3.722   8.494  0.4538  1.1097 -1.1981
   58CHL1    C3 6699   2.227   3.277  10.046 -0.8933 -0.3499  0.0310
   58CHL1    H3 6700   2.192   3.368   9.992 -0.1066  0.3955  0.7430
   58CHL1    O3 6701   2.240   3.299  10.186  0.1571 -0.0522  0.2114
   58CHL1   H3' 6702   2.242   3.216  10.234  0.8054  0.8290  1.8143
   58CHL1    C4 6703   2.115   3.169  10.014 -0.7008  0.5500 -0.4714
   58CHL1   H4A 6704   2.138   3.080  10.076 -1.5388  0.1623 -0.6995
   58CHL1   H4B 6705   2.018   3.213  10.045 -1.8024 -1.9005 -0.1827
   58CHL1    C5 6706   2.111   3.124   9.867  0.3463 -0.9332  0.2179
   58CHL1    C6 6707   1.996   3.123   9.807  0.0228 -0.6936  0.4339
   58CHL1    H6 6708   1.909   3.148   9.868 -0.1996  0.0722 -0.1767
   58CHL1    C7 6709   1.971   3.092   9.663  0.1307 -0.1600  0.1214
   58CHL1   H7A 6710   1.888   3.019   9.655 -0.9233  0.8843  1.0561
   58CHL1   H7B 6711   1.967   3.183   9.600  2.5915 -1.4549 -2.1457
   58CHL1    C8 6712   2.098   3.010   9.624  0.4794  1.2741 -0.6165
   58CHL1    H8 6713   2.085   2.910   9.672 -0.4446  0.8027 -1.7855
   58CHL1   C14 6714   2.086   2.979   9.476 -0.2378  0.4132 -0.3749
   58CHL1   H14 6715   2.089   3.079   9.426  2.1240 -0.1172 -1.4401
   58CHL1   C15 6716   1.960   2.917   9.409  0.0433  0.3093  0.9504
   58CHL1  H15A 6717   1.923   2.830   9.468  2.7418 -1.6928 -0.0946
   58CHL1  H15B 6718   1.887   2.996   9.381 -1.0964 -1.6574 -2.1607
   58CHL1   C16 6719   2.009   2.864   9.270  0.6373  0.3212  0.7477
   58CHL1  H16A 6720   1.986   2.755   9.273  1.5757  0.0776 -0.3542
   58CHL1  H16B 6721   1.945   2.903   9.188 -1.0975 -1.7079  1.0405
   58CHL1   C17 6722   2.154   2.898   9.260  0.0924 -0.5481  0.1648
   58CHL1   H17 6723   2.150   3.001   9.219 -0.7211  0.6423  3.0225
   58CHL1   C13 6724   2.205   2.911   9.407 -0.0559 -0.1482 -0.3125
   58CHL1   C18 6725   2.232   2.779   9.470 -0.3088  1.0014 -0.4858
   58CHL1  H18A 6726   2.229   2.794   9.580  2.5975  1.8154 -0.4256
   58CHL1  H18B 6727   2.161   2.699   9.444 -0.1251  1.0123 -1.0426
   58CHL1  H18C 6728   2.333   2.733   9.460  0.9404  3.5149 -0.4473
   58CHL1   C12 6729   2.331   3.000   9.436  0.4428 -0.5927 -0.2489
   58CHL1  H12A 6730   2.425   2.964   9.390  1.2779  2.2685 -0.9964
   58CHL1  H12B 6731   2.317   3.098   9.385 -0.3071  1.8365  4.0845
   58CHL1   C11 6732   2.356   3.019   9.585 -0.8934 -0.2909 -0.1005
   58CHL1  H11A 6733   2.407   2.926   9.618 -0.2258 -0.8743 -2.5137
   58CHL1  H11B 6734   2.435   3.098   9.592 -1.0017 -0.2573  0.8419
   58CHL1    C9 6735   2.231   3.073   9.658 -0.5133  0.1131 -0.3227
   58CHL1    H9 6736   2.214   3.179   9.626  0.0897  0.3299  0.0524
   58CHL1   C10 6737   2.240   3.087   9.810 -0.5837  0.5143 -0.4490
   58CHL1   C19 6738   2.287   2.949   9.870 -0.5479  0.7968 -0.5557
   58CHL1  H19A 6739   2.394   2.934   9.845 -0.8250 -0.4630 -1.0439
   58CHL1  H19B 6740   2.278   2.938   9.980  2.2318  1.2267 -0.2129
   58CHL1  H19C 6741   2.242   2.863   9.816  0.0156  0.3640 -0.3475
   58CHL1    C1 6742   2.347   3.191   9.845  0.2057  0.2094 -0.5429
   58CHL1   H1A 6743   2.447   3.152   9.816  1.2359  2.3547 -0.0424
   58CHL1   H1B 6744   2.318   3.287   9.796 -0.7731 -0.2890 -0.9731
   58CHL1    C2 6745   2.357   3.223   9.998 -0.3777 -0.1491 -0.7236
   58CHL1   H2A 6746   2.439   3.298   9.995 -0.3937  0.0176  1.6873
   58CHL1   H2B 6747   2.399   3.131  10.044 -0.2751 -0.1098 -0.7393
   58CHL1   C20 6748   2.224   2.792   9.170  0.3448 -0.6959 -0.0362
   58CHL1   H20 6749   2.224   2.697   9.228 -1.8032 -0.5532  0.2524
   58CHL1   C21 6750   2.357   2.855   9.136  0.1296  0.8018  0.2106
   58CHL1  H21A 6751   2.402   2.809   9.045 -2.6044  1.7917 -1.7849
   58CHL1  H21B 6752   2.429   2.842   9.219 -2.0206  0.3279  2.0924
   58CHL1  H21C 6753   2.347   2.965   9.119  1.7481  0.7290 -1.6035
   58CHL1   C22 6754   2.143   2.756   9.040 -0.5943  0.3272  0.5389
   58CHL1  H22A 6755   2.198   2.673   8.993 -0.6581  0.5875 -0.0037
   58CHL1  H22B 6756   2.044   2.713   9.069 -1.6242  1.1739 -1.5300
   58CHL1   C23 6757   2.123   2.874   8.935 -0.1585 -0.2270  0.5523
   58CHL1  H23A 6758   2.052   2.946   8.979  0.9809 -0.2587  2.5493
   58CHL1  H23B 6759   2.221   2.921   8.912 -0.6906  0.1046 -1.2450
   58CHL1   C24 6760   2.066   2.818   8.799 -0.2922 -0.0202 -0.5294
   58CHL1  H24A 6761   2.136   2.744   8.755  0.0913  0.0535 -0.0471
   58CHL1  H24B 6762   1.973   2.762   8.820 -1.7168  1.0491 -3.3792
   58CHL1   C25 6763   2.026   2.916   8.687 -0.7057  0.7940 -0.7396
   58CHL1   H25 6764   1.962   2.993   8.734 -2.7882 -0.4093 -1.4464
   58CHL1   C26 6765   2.156   2.961   8.611 -0.0549  0.1462  0.4109
   58CHL1  H26A 6766   2.222   2.871   8.606 -0.2350  0.0802 -1.5658
   58CHL1  H26B 6767   2.121   2.989   8.510  1.3422 -1.2620 -0.5060
   58CHL1  H26C 6768   2.202   3.053   8.652 -0.5747  0.8384 -0.5377
   58CHL1   C27 6769   1.936   2.852   8.588  0.1448 -0.1745  0.0470
   58CHL1  H27A 6770   1.845   2.821   8.644 -0.1282  3.0820  1.6121
   58CHL1  H27B 6771   1.912   2.928   8.511  0.8466  0.0122  0.0028
   58CHL1  H27C 6772   1.974   2.764   8.530  1.4134 -0.0890  0.7130
   59CHL1    C3 6773   0.724   3.439  10.031 -0.1668 -0.6262  0.1929
   59CHL1    H3 6774   0.826   3.470  10.002 -0.6345  1.5588  0.7282
   59CHL1    O3 6775   0.712   3.436  10.167 -0.0523  0.1173  0.2704
   59CHL1   H3' 6776   0.647   3.369  10.187  0.5455  0.3389  3.4993
   59CHL1    C4 6777   0.615   3.532   9.967 -0.0587  0.7247 -0.3079
   59CHL1   H4A 6778   0.515   3.494   9.997  0.5564  0.6138  1.7286
   59CHL1   H4B 6779   0.621   3.631  10.017  0.7184  0.0901  0.8970
   59CHL1    C5 6780   0.639   3.533   9.814  0.9054 -0.1022 -0.8229
   59CHL1    C6 6781   0.653   3.648   9.751 -0.8837  0.0135  0.1921
   59CHL1    H6 6782   0.631   3.740   9.808  1.9532 -0.5625  2.4792
   59CHL1    C7 6783   0.673   3.651   9.606 -0.1676 -0.1619 -0.2123
   59CHL1   H7A 6784   0.622   3.739   9.562 -0.8458  0.2197  1.2675
   59CHL1   H7B 6785   0.783   3.665   9.600  0.1000 -2.0247 -0.2006
   59CHL1    C8 6786   0.634   3.520   9.527 -0.0814 -0.2830 -0.2314
   59CHL1    H8 6787   0.523   3.517   9.524 -0.0367 -2.7915 -1.7172
   59CHL1   C14 6788   0.702   3.516   9.392  0.4814  0.3329  0.0833
   59CHL1   H14 6789   0.810   3.504   9.419  0.6015  1.9087  0.4258
   59CHL1   C15 6790   0.685   3.635   9.300 -0.0584  0.3296 -0.1546
   59CHL1  H15A 6791   0.577   3.662   9.304  0.2321  1.3486  2.7061
   59CHL1  H15B 6792   0.738   3.725   9.338 -0.7533  0.3836  0.7109
   59CHL1   C16 6793   0.729   3.581   9.165  0.2011 -0.4445 -0.6206
   59CHL1  H16A 6794   0.643   3.577   9.096 -0.5766 -3.1961  0.4028
   59CHL1  H16B 6795   0.819   3.624   9.116  0.3293  1.2008  0.9252
   59CHL1   C17 6796   0.757   3.424   9.177  0.3683  0.5498 -0.0138
   59CHL1   H17 6797   0.864   3.421   9.206  0.5972  0.8223 -0.8361
   59CHL1   C13 6798   0.675   3.387   9.304 -0.1243  0.5404 -0.2464
   59CHL1   C18 6799   0.521   3.383   9.274  0.1097 -0.2214 -0.4741
   59CHL1  H18A 6800   0.463   3.379   9.369  3.2907 -1.2869  1.5808
   59CHL1  H18B 6801   0.492   3.466   9.206 -0.1385  0.7690  0.8012
   59CHL1  H18C 6802   0.504   3.288   9.219 -1.1128 -0.6975  0.6765
   59CHL1   C12 6803   0.715   3.262   9.381 -0.5094 -0.3372 -0.1006
   59CHL1  H12A 6804   0.673   3.170   9.334  0.5040 -0.4702 -0.7716
   59CHL1  H12B 6805   0.825   3.251   9.382 -0.5355 -0.7104 -0.7233
   59CHL1   C11 6806   0.654   3.265   9.522 -0.1435 -0.3944 -0.0560
   59CHL1  H11A 6807   0.545   3.248   9.513 -0.0556 -1.2410  0.3036
   59CHL1  H11B 6808   0.705   3.176   9.565  1.3792  0.1116 -0.7347
   59CHL1    C9 6809   0.685   3.398   9.597 -0.3131  0.1625  0.0257
   59CHL1    H9 6810   0.796   3.399   9.591 -0.3109 -1.9584 -1.3001
   59CHL1   C10 6811   0.641   3.395   9.747  0.1207  0.2057 -0.0761
   59CHL1   C19 6812   0.491   3.345   9.745 -0.3192 -0.5130 -0.9038
   59CHL1  H19A 6813   0.423   3.399   9.676 -1.2131 -0.2544  0.1496
   59CHL1  H19B 6814   0.479   3.240   9.710 -1.5701 -0.4309 -0.7492
   59CHL1  H19C 6815   0.446   3.345   9.847  0.0328  0.5609 -0.7390
   59CHL1    C1 6816   0.733   3.299   9.829  0.0648 -0.0103  0.3295
   59CHL1   H1A 6817   0.743   3.198   9.786  0.8670 -0.1275  0.7785
   59CHL1   H1B 6818   0.839   3.329   9.814 -0.4399  1.1723 -1.1321
   59CHL1    C2 6819   0.715   3.291   9.984  0.2286  0.2032  0.1116
   59CHL1   H2A 6820   0.796   3.226  10.022 -1.1344 -1.5196  0.1906
   59CHL1   H2B 6821   0.624   3.235  10.015 -0.2526  1.3538  0.8158
   59CHL1   C20 6822   0.744   3.333   9.049  0.0968  0.0094 -0.2308
   59CHL1   H20 6823   0.639   3.329   9.014  0.1930  2.1131 -0.8561
   59CHL1   C21 6824   0.791   3.184   9.080  0.2892  0.0786 -0.0120
   59CHL1  H21A 6825   0.806   3.132   8.983 -1.5157  1.5884 -1.1914
   59CHL1  H21B 6826   0.720   3.117   9.133  1.5540 -1.3437 -0.0489
   59CHL1  H21C 6827   0.885   3.188   9.138  1.9540 -2.8401 -2.2223
   59CHL1   C22 6828   0.827   3.391   8.925  0.6160  0.2439 -0.0745
   59CHL1  H22A 6829   0.795   3.495   8.901  1.2419  0.8721  1.6769
   59CHL1  H22B 6830   0.937   3.395   8.942  0.6361  2.5585 -0.3217
   59CHL1   C23 6831   0.795   3.313   8.798 -0.6709 -0.2786 -0.4046
   59CHL1  H23A 6832   0.840   3.212   8.806  0.8768  0.2832 -1.4650
   59CHL1  H23B 6833   0.685   3.295   8.796 -0.5432 -1.1423 -0.0746
   59CHL1   C24 6834   0.850   3.375   8.671 -0.8626 -0.9144 -0.4555
   59CHL1  H24A 6835   0.780   3.451   8.629 -1.1710  1.2921  3.5535
   59CHL1  H24B 6836   0.949   3.423   8.684 -0.9300 -1.4145  2.4707
   59CHL1   C25 6837   0.872   3.272   8.557  0.0851 -0.8206  0.0373
   59CHL1   H25 6838   0.935   3.190   8.599 -0.4412 -1.9301 -1.2411
   59CHL1   C26 6839   0.740   3.200   8.517  0.3785 -0.1698  0.3625
   59CHL1  H26A 6840   0.695   3.146   8.603 -1.4226 -1.6241 -1.3972
   59CHL1  H26B 6841   0.661   3.272   8.490  0.2428 -0.2261  0.6109
   59CHL1  H26C 6842   0.751   3.130   8.431  1.6690 -1.3578  1.4499
   59CHL1   C27 6843   0.951   3.339   8.442  0.2859  0.0850  0.2733
   59CHL1  H27A 6844   0.979   3.260   8.369  1.3096 -0.7514  1.5292
   59CHL1  H27B 6845   0.887   3.405   8.380 -0.5847 -1.2560 -0.3155
   59CHL1  H27C 6846   1.047   3.379   8.481  0.3383 -0.9616  1.2713
   60CHL1    C3 6847   2.865   6.036  10.227 -0.2343 -0.0612  0.7510
   60CHL1    H3 6848   2.842   5.928  10.233 -0.2516 -0.1157 -0.2581
   60CHL1    O3 6849   2.926   6.083  10.340  0.4028  0.3823  0.2941
   60CHL1   H3' 6850   2.922   6.179  10.329  2.8844  0.5170 -0.0769
   60CHL1    C4 6851   2.969   6.060  10.119  0.4785  0.0013  0.2727
   60CHL1   H4A 6852   3.011   6.163  10.128  2.2172 -0.7847  1.8437
   60CHL1   H4B 6853   3.056   5.997  10.149  0.1998  0.4984  2.2648
   60CHL1    C5 6854   2.915   6.025   9.980 -0.6117 -0.6029  0.1031
   60CHL1    C6 6855   2.969   5.937   9.904 -0.2174 -0.6622  0.3037
   60CHL1    H6 6856   3.060   5.890   9.945 -0.9062 -1.4697  0.9273
   60CHL1    C7 6857   2.927   5.909   9.766 -0.1469 -0.3773  0.6704
   60CHL1   H7A 6858   3.012   5.925   9.696 -1.2340 -1.1668 -0.8929
   60CHL1   H7B 6859   2.897   5.805   9.742  0.2103 -0.0448 -1.4410
   60CHL1    C8 6860   2.819   6.005   9.712  0.2690 -0.4328 -0.4240
   60CHL1    H8 6861   2.878   6.097   9.692  2.2838 -2.0533 -2.4782
   60CHL1   C14 6862   2.748   5.955   9.592 -0.2104  0.6320 -0.4698
   60CHL1   H14 6863   2.709   5.858   9.628  2.7963 -0.9359 -1.0764
   60CHL1   C15 6864   2.837   5.896   9.490 -0.4287 -0.3781 -0.1988
   60CHL1  H15A 6865   2.916   5.969   9.461 -1.6489  0.0825 -2.6325
   60CHL1  H15B 6866   2.884   5.799   9.517  1.0775  0.0774 -1.0486
   60CHL1   C16 6867   2.752   5.885   9.364 -0.2877  0.6666  0.5900
   60CHL1  H16A 6868   2.803   5.918   9.271  0.1942 -2.6753 -0.4591
   60CHL1  H16B 6869   2.749   5.777   9.340 -0.1999  0.5381  1.1288
   60CHL1   C17 6870   2.612   5.943   9.403  0.1667 -0.7077 -0.2513
   60CHL1   H17 6871   2.557   5.853   9.438 -1.0937  0.1435  0.0491
   60CHL1   C13 6872   2.638   6.033   9.525  0.1527 -0.4820 -0.2290
   60CHL1   C18 6873   2.700   6.173   9.480 -0.1235  0.0303  0.3200
   60CHL1  H18A 6874   2.620   6.236   9.436  1.6002  2.9404  1.1142
   60CHL1  H18B 6875   2.747   6.235   9.559  1.1891 -0.2668 -0.2053
   60CHL1  H18C 6876   2.775   6.160   9.399  0.2193  0.3710  0.5799
   60CHL1   C12 6877   2.532   6.051   9.638  0.3425 -0.1550  0.4057
   60CHL1  H12A 6878   2.440   6.106   9.608 -0.1710 -2.1095 -1.9303
   60CHL1  H12B 6879   2.499   5.949   9.667  0.1342  0.3822  2.1723
   60CHL1   C11 6880   2.593   6.115   9.769 -0.6228 -0.2103  0.2000
   60CHL1  H11A 6881   2.628   6.213   9.732 -0.2724 -0.0773  0.8513
   60CHL1  H11B 6882   2.506   6.134   9.836  0.6305  0.2200  1.7768
   60CHL1    C9 6883   2.717   6.043   9.821 -0.0921  0.1188 -0.2915
   60CHL1    H9 6884   2.687   5.937   9.838 -0.8664  0.3090 -0.4217
   60CHL1   C10 6885   2.787   6.104   9.947  1.2958 -0.7237 -0.2804
   60CHL1   C19 6886   2.818   6.252   9.930 -0.0002  0.5480  0.0716
   60CHL1  H19A 6887   2.854   6.300  10.024  0.6160 -1.9797  1.2094
   60CHL1  H19B 6888   2.894   6.262   9.850  1.2423 -1.7199  0.8786
   60CHL1  H19C 6889   2.726   6.306   9.900  0.0798  2.1190  2.3980
   60CHL1    C1 6890   2.683   6.080  10.070 -0.3049 -0.6376  1.2743
   60CHL1   H1A 6891   2.585   6.132  10.062 -0.4014 -1.0404 -0.4256
   60CHL1   H1B 6892   2.662   5.972  10.080  1.2035 -1.0362  0.4090
   60CHL1    C2 6893   2.734   6.119  10.210  0.8729  0.1016 -0.7174
   60CHL1   H2A 6894   2.666   6.102  10.296  1.5266  0.7778 -0.0496
   60CHL1   H2B 6895   2.754   6.228  10.207 -0.5825  0.5697  2.2362
   60CHL1   C20 6896   2.540   6.002   9.286  0.1543  0.0007 -1.0137
   60CHL1   H20 6897   2.587   6.099   9.259 -0.9268  0.0953 -2.7069
   60CHL1   C21 6898   2.395   6.031   9.330 -0.3123 -0.2284  0.1152
   60CHL1  H21A 6899   2.348   5.937   9.366 -0.2458 -1.5050 -2.8378
   60CHL1  H21B 6900   2.336   6.053   9.238  0.3419 -0.4102 -0.3612
   60CHL1  H21C 6901   2.387   6.120   9.396 -2.5657  2.6154 -3.5509
   60CHL1   C22 6902   2.545   5.902   9.170 -0.3770  0.3715  0.0866
   60CHL1  H22A 6903   2.651   5.881   9.146 -0.4635 -0.1210  0.1222
   60CHL1  H22B 6904   2.479   5.815   9.191  0.6626 -0.1405  1.4143
   60CHL1   C23 6905   2.504   5.966   9.033  0.1835  0.4175 -0.2787
   60CHL1  H23A 6906   2.403   6.014   9.032  1.2203  2.6973 -0.4174
   60CHL1  H23B 6907   2.569   6.055   9.022 -0.5943  0.7948 -2.3332
   60CHL1   C24 6908   2.533   5.870   8.922  0.1693  0.1844 -0.1590
   60CHL1  H24A 6909   2.643   5.875   8.931  0.0278  2.1800  1.0377
   60CHL1  H24B 6910   2.499   5.769   8.955  0.8027 -0.5541 -1.7039
   60CHL1   C25 6911   2.467   5.899   8.784  0.3138 -1.1831 -1.0041
   60CHL1   H25 6912   2.494   6.005   8.767  2.2566 -1.1117  1.7590
   60CHL1   C26 6913   2.543   5.816   8.677  0.2007 -0.3969  0.1542
   60CHL1  H26A 6914   2.650   5.844   8.671  0.0976 -0.2866 -1.6471
   60CHL1  H26B 6915   2.535   5.706   8.687 -3.4517 -0.2174  0.6481
   60CHL1  H26C 6916   2.502   5.830   8.574  4.2929  1.8716 -1.3912
   60CHL1   C27 6917   2.321   5.882   8.778 -0.0376  0.2981  0.3380
   60CHL1  H27A 6918   2.296   5.780   8.815  1.3531  0.0731  0.7020
   60CHL1  H27B 6919   2.257   5.942   8.846  0.3626 -0.4603  1.3979
   60CHL1  H27C 6920   2.279   5.894   8.675  0.1235  0.8822  0.3383
   61CHL1    C3 6921   0.164   1.389  10.346 -0.5284  0.5128  0.1038
   61CHL1    H3 6922   0.093   1.474  10.331 -1.0337 -0.0354 -0.6955
   61CHL1    O3 6923   0.170   1.365  10.486 -0.0606 -0.4468  0.0646
   61CHL1   H3' 6924   0.188   1.448  10.531 -1.9701 -1.6037  3.3432
   61CHL1    C4 6925   0.109   1.265  10.277 -0.2358 -0.4968 -0.6476
   61CHL1   H4A 6926   0.173   1.183  10.316 -1.0605 -0.0551  1.7991
   61CHL1   H4B 6927   0.006   1.248  10.317  0.3005 -2.5316 -0.0190
   61CHL1    C5 6928   0.115   1.281  10.126 -0.2793  0.1777 -0.9103
   61CHL1    C6 6929   0.001   1.276  10.054  0.5404  0.6660 -0.4207
   61CHL1    H6 6930  -0.094   1.252  10.103  1.1084  1.5914  1.2087
   61CHL1    C7 6931  -0.008   1.295   9.909  0.1353 -0.0856 -0.3885
   61CHL1   H7A 6932  -0.061   1.206   9.868  0.6306 -0.4837 -0.1756
   61CHL1   H7B 6933  -0.055   1.392   9.880 -0.3532 -0.5215 -1.0912
   61CHL1    C8 6934   0.123   1.289   9.840 -0.9626  0.9276 -0.2691
   61CHL1    H8 6935   0.162   1.185   9.842 -0.2231  1.1898  1.4712
   61CHL1   C14 6936   0.111   1.335   9.700 -1.5934  0.0126 -0.2036
   61CHL1   H14 6937   0.090   1.444   9.695  2.2206  1.0095  1.8422
   61CHL1   C15 6938  -0.004   1.271   9.606 -0.4055 -0.8288  0.3588
   61CHL1  H15A 6939  -0.013   1.164   9.634 -0.1774 -0.8208  0.4688
   61CHL1  H15B 6940  -0.097   1.327   9.630 -0.8572 -1.8837  1.1536
   61CHL1   C16 6941   0.053   1.282   9.471  0.3935 -0.1271  0.7968
   61CHL1  H16A 6942   0.064   1.176   9.437  1.8374  0.2976 -0.1724
   61CHL1  H16B 6943  -0.013   1.338   9.402 -0.0104 -2.9993 -1.3506
   61CHL1   C17 6944   0.191   1.355   9.478 -0.2392 -0.0707 -0.1244
   61CHL1   H17 6945   0.157   1.460   9.479 -1.7411 -0.4802 -1.8984
   61CHL1   C13 6946   0.241   1.324   9.624  0.7810  0.0224  0.1495
   61CHL1   C18 6947   0.294   1.178   9.614  0.0679 -0.1413  0.0828
   61CHL1  H18A 6948   0.221   1.117   9.557 -1.0861 -1.1943  2.5201
   61CHL1  H18B 6949   0.394   1.184   9.566  0.4037  0.2978  0.8230
   61CHL1  H18C 6950   0.311   1.138   9.717  1.8303 -1.2234 -0.5796
   61CHL1   C12 6951   0.346   1.410   9.693 -0.7257  0.5494 -0.4734
   61CHL1  H12A 6952   0.440   1.392   9.637  0.5273  1.2859  1.2911
   61CHL1  H12B 6953   0.325   1.519   9.696 -0.3652  0.6038  0.4279
   61CHL1   C11 6954   0.373   1.365   9.842 -0.7240  0.3147 -0.0657
   61CHL1  H11A 6955   0.414   1.262   9.843  0.7343  0.8778 -0.2317
   61CHL1  H11B 6956   0.445   1.437   9.887  0.2402 -0.7419  0.1218
   61CHL1    C9 6957   0.233   1.365   9.916 -0.0607  0.1160  1.0324
   61CHL1    H9 6958   0.200   1.471   9.917  1.0343  0.4704  1.9790
   61CHL1   C10 6959   0.251   1.327  10.066 -0.3112 -0.3839 -0.0487
   61CHL1   C19 6960   0.348   1.205  10.078  1.1403 -0.0249 -0.2244
   61CHL1  H19A 6961   0.307   1.124  10.015  0.5230  1.1616 -1.4093
   61CHL1  H19B 6962   0.452   1.239  10.055  0.2762  2.2269 -1.1675
   61CHL1  H19C 6963   0.351   1.180  10.186 -0.7873 -0.5189 -0.2550
   61CHL1    C1 6964   0.309   1.445  10.143 -0.0208 -0.1336  0.4234
   61CHL1   H1A 6965   0.415   1.465  10.116  1.1906 -0.3413  4.3811
   61CHL1   H1B 6966   0.255   1.536  10.111  0.0947 -0.1863  0.0802
   61CHL1    C2 6967   0.302   1.425  10.296  0.0269 -0.5545 -0.3315
   61CHL1   H2A 6968   0.329   1.517  10.352  1.6791  0.3073 -2.3667
   61CHL1   H2B 6969   0.373   1.343  10.321 -1.0517 -1.0460  1.2647
   61CHL1   C20 6970   0.278   1.334   9.355 -0.5461  0.3151 -0.0136
   61CHL1   H20 6971   0.345   1.246   9.364  0.0751  0.5833 -1.7219
   61CHL1   C21 6972   0.382   1.445   9.343 -0.0898  0.1670  0.0845
   61CHL1  H21A 6973   0.332   1.531   9.294 -0.4293 -1.3421 -2.3802
   61CHL1  H21B 6974   0.471   1.404   9.291 -0.9639 -1.6176 -0.0762
   61CHL1  H21C 6975   0.417   1.485   9.440  0.5786  2.0288 -0.8724
   61CHL1   C22 6976   0.202   1.312   9.219 -1.3673  0.1464 -0.0290
   61CHL1  H22A 6977   0.152   1.213   9.220 -1.3600  0.1075  2.2245
   61CHL1  H22B 6978   0.127   1.392   9.199 -2.6989 -0.0085  3.5383
   61CHL1   C23 6979   0.290   1.296   9.091 -0.4820 -0.4847  0.1096
   61CHL1  H23A 6980   0.359   1.381   9.074 -0.9086 -0.4874 -1.9170
   61CHL1  H23B 6981   0.368   1.218   9.102  0.2515  0.4624  2.0893
   61CHL1   C24 6982   0.212   1.269   8.957 -0.1577 -0.1715  0.5565
   61CHL1  H24A 6983   0.164   1.170   8.974  0.4335 -0.7235 -0.8627
   61CHL1  H24B 6984   0.136   1.348   8.942 -1.0085 -0.8764  1.0449
   61CHL1   C25 6985   0.295   1.267   8.829 -0.5740  0.2366  0.0221
   61CHL1   H25 6986   0.350   1.362   8.814  1.7483 -1.2354 -1.3271
   61CHL1   C26 6987   0.401   1.152   8.835  0.0600 -0.5627  0.0402
   61CHL1  H26A 6988   0.425   1.121   8.731 -0.6106 -0.0403 -0.2751
   61CHL1  H26B 6989   0.485   1.181   8.902 -0.9987  1.1448  0.6780
   61CHL1  H26C 6990   0.355   1.060   8.877  0.8890 -1.9756 -1.9987
   61CHL1   C27 6991   0.200   1.239   8.712  0.6167 -0.4165  0.1975
   61CHL1  H27A 6992   0.117   1.310   8.734  1.0754  0.8854 -2.0431
   61CHL1  H27B 6993   0.240   1.266   8.612 -2.0121 -0.2921 -0.9034
   61CHL1  H27C 6994   0.165   1.134   8.702 -0.5043  0.1584 -3.0059
   62CHL1    C3 6995   4.718   3.174  10.142 -0.1432  0.5848 -0.2873
   62CHL1    H3 6996   4.828   3.164  10.143  0.0763  2.5213 -1.1237
   62CHL1    O3 6997   4.688   3.191  10.280 -0.2012 -0.1430  0.6022
   62CHL1   H3' 6998   4.600   3.229  10.286 -1.6130 -2.1581 -3.4691
   62CHL1    C4 6999   4.669   3.300  10.066 -0.6389  0.4077 -0.3754
   62CHL1   H4A 7000   4.567   3.333  10.094 -1.1108 -1.4944  0.2875
   62CHL1   H4B 7001   4.720   3.391  10.104 -1.5982 -0.1039  2.3445
   62CHL1    C5 7002   4.679   3.286   9.918 -0.3029 -0.8641  0.3677
   62CHL1    C6 7003   4.745   3.376   9.848 -0.7506 -0.8042  0.5113
   62CHL1    H6 7004   4.784   3.466   9.897 -1.1231  0.2804 -1.1103
   62CHL1    C7 7005   4.756   3.379   9.693 -0.5565  0.6922 -0.6799
   62CHL1   H7A 7006   4.730   3.476   9.645  2.2567  0.7402 -2.2836
   62CHL1   H7B 7007   4.859   3.353   9.662 -0.2599  3.0424 -1.9085
   62CHL1    C8 7008   4.665   3.272   9.634  0.4412  0.4656  0.0910
   62CHL1    H8 7009   4.560   3.305   9.647  0.4873  0.1423  1.5438
   62CHL1   C14 7010   4.706   3.252   9.487 -0.1684  0.6767  0.1982
   62CHL1   H14 7011   4.806   3.203   9.490 -1.0086 -1.0649  1.7797
   62CHL1   C15 7012   4.701   3.385   9.398  0.4620  0.3910  0.2707
   62CHL1  H15A 7013   4.619   3.448   9.438 -2.8238 -3.1573 -0.4030
   62CHL1  H15B 7014   4.797   3.441   9.414  0.4754  0.8172 -1.1402
   62CHL1   C16 7015   4.687   3.324   9.253 -0.3671 -0.1783 -0.6078
   62CHL1  H16A 7016   4.596   3.372   9.212  0.5262 -0.7669 -3.4964
   62CHL1  H16B 7017   4.776   3.355   9.194  0.6105 -0.4120  0.6830
   62CHL1   C17 7018   4.686   3.170   9.275  0.5644 -0.0557  0.0930
   62CHL1   H17 7019   4.791   3.136   9.284  0.6406  0.4198  1.1263
   62CHL1   C13 7020   4.625   3.152   9.418 -0.1884  0.1678  0.0711
   62CHL1   C18 7021   4.478   3.181   9.409 -0.0433 -0.3176 -0.0799
   62CHL1  H18A 7022   4.423   3.167   9.505 -1.2281  0.6066 -0.6055
   62CHL1  H18B 7023   4.455   3.286   9.378  1.9001  0.1211 -0.1717
   62CHL1  H18C 7024   4.430   3.108   9.341 -2.2450 -0.3608  1.4141
   62CHL1   C12 7025   4.655   3.019   9.496  0.2581  0.2510  0.9112
   62CHL1  H12A 7026   4.596   2.942   9.442  1.2552 -0.5180  0.8992
   62CHL1  H12B 7027   4.764   3.002   9.494  0.1309 -0.9869  2.5033
   62CHL1   C11 7028   4.608   3.022   9.639  0.7837  0.0009 -0.6657
   62CHL1  H11A 7029   4.498   3.030   9.652  0.6017  0.0340 -2.0594
   62CHL1  H11B 7030   4.629   2.927   9.692 -0.6049  0.4774  0.8335
   62CHL1    C9 7031   4.661   3.146   9.717 -0.1444  0.0793  0.1968
   62CHL1    H9 7032   4.767   3.112   9.725 -0.2756 -0.9001 -1.6324
   62CHL1   C10 7033   4.617   3.167   9.864  0.5844 -0.4024 -0.1221
   62CHL1   C19 7034   4.463   3.183   9.867  0.3733  0.0171 -0.0070
   62CHL1  H19A 7035   4.443   3.279   9.815 -0.4760  0.3030  0.8285
   62CHL1  H19B 7036   4.404   3.104   9.816 -0.1870  0.6077 -0.2854
   62CHL1  H19C 7037   4.430   3.204   9.971 -2.0804  0.1026 -0.7518
   62CHL1    C1 7038   4.657   3.040   9.939 -0.7835 -0.4548 -0.0784
   62CHL1   H1A 7039   4.618   2.945   9.895  2.4914 -2.5277  1.0717
   62CHL1   H1B 7040   4.768   3.031   9.941 -0.9338 -3.2620  2.0606
   62CHL1    C2 7041   4.648   3.046  10.091 -0.0957  0.4694  0.0139
   62CHL1   H2A 7042   4.693   2.953  10.133  3.0667  1.4633 -0.8981
   62CHL1   H2B 7043   4.541   3.052  10.121  0.0376  1.7622  0.2862
   62CHL1   C20 7044   4.637   3.098   9.155  0.3451  0.3825  0.4935
   62CHL1   H20 7045   4.534   3.136   9.142  0.6191  1.2659  0.8409
   62CHL1   C21 7046   4.626   2.946   9.175  0.2565 -0.6668 -0.3431
   62CHL1  H21A 7047   4.714   2.904   9.228  0.1688  1.6233  1.7694
   62CHL1  H21B 7048   4.592   2.886   9.087  0.4114 -0.1697 -0.7451
   62CHL1  H21C 7049   4.547   2.935   9.253  1.4308  3.4491  1.6956
   62CHL1   C22 7050   4.720   3.134   9.031  0.1469  0.2787  0.3517
   62CHL1  H22A 7051   4.749   3.241   9.033 -0.9168  0.6023 -0.6127
   62CHL1  H22B 7052   4.811   3.069   9.027  0.5955  0.9368 -0.5821
   62CHL1   C23 7053   4.642   3.108   8.896  0.8699  0.4384  0.5805
   62CHL1  H23A 7054   4.593   3.009   8.887 -1.0468  1.3756  0.1455
   62CHL1  H23B 7055   4.562   3.186   8.898 -0.6172 -1.0263  2.3855
   62CHL1   C24 7056   4.733   3.110   8.767 -0.2245  0.1371 -0.0566
   62CHL1  H24A 7057   4.797   3.200   8.778 -2.1721  1.6920 -0.9230
   62CHL1  H24B 7058   4.793   3.018   8.783  0.8843  1.0016  0.9466
   62CHL1   C25 7059   4.669   3.102   8.632  0.7257 -0.4915 -0.2773
   62CHL1   H25 7060   4.600   3.189   8.625  2.0387  0.5727 -0.3537
   62CHL1   C26 7061   4.777   3.116   8.521  0.6491  0.3866  0.0975
   62CHL1  H26A 7062   4.730   3.118   8.421 -0.8504 -0.0554  0.7646
   62CHL1  H26B 7063   4.833   3.209   8.545  0.2736  0.8320 -0.7208
   62CHL1  H26C 7064   4.849   3.031   8.522  2.5498  1.9206 -0.1589
   62CHL1   C27 7065   4.590   2.974   8.612 -0.2343  0.6655 -0.3618
   62CHL1  H27A 7066   4.597   2.937   8.507  2.7081 -0.2402  0.0861
   62CHL1  H27B 7067   4.631   2.894   8.678 -0.8657  1.3601  0.9054
   62CHL1  H27C 7068   4.480   2.979   8.628 -0.2745  0.9915 -0.7313
   63CHL1    C3 7069   0.910   5.478  10.256 -0.6349  0.4642 -0.1206
   63CHL1    H3 7070   0.883   5.585  10.244 -0.5964  0.2406 -2.7302
   63CHL1    O3 7071   0.888   5.445  10.394 -0.2084  0.1718 -0.1795
   63CHL1   H3' 7072   0.969   5.483  10.430  1.6778 -0.9093 -2.9882
   63CHL1    C4 7073   0.822   5.392  10.164 -0.5385  0.3399 -0.6340
   63CHL1   H4A 7074   0.849   5.288  10.192  0.9039  0.2593 -2.1396
   63CHL1   H4B 7075   0.715   5.417  10.180 -0.8912 -1.8517  0.8888
   63CHL1    C5 7076   0.848   5.412  10.017 -0.9777 -0.6874 -0.0916
   63CHL1    C6 7077   0.755   5.465   9.930 -0.4334 -0.7484 -0.0983
   63CHL1    H6 7078   0.663   5.505   9.974  1.3794  0.1585  3.2404
   63CHL1    C7 7079   0.775   5.477   9.780 -0.3455  0.3910  0.0617
   63CHL1   H7A 7080   0.682   5.440   9.733  0.1037  1.5131 -1.8170
   63CHL1   H7B 7081   0.786   5.584   9.752  0.0064 -0.5913 -4.1779
   63CHL1    C8 7082   0.905   5.403   9.730  0.1950  0.7343 -0.2023
   63CHL1    H8 7083   0.878   5.295   9.730  0.4979  0.6491  0.5900
   63CHL1   C14 7084   0.945   5.452   9.593  0.1393 -0.2471  0.2005
   63CHL1   H14 7085   0.972   5.559   9.600 -1.4365  0.1544  0.6652
   63CHL1   C15 7086   0.836   5.440   9.489  0.3224  0.0553  0.0037
   63CHL1  H15A 7087   0.788   5.341   9.506  1.2741 -0.4450 -0.1552
   63CHL1  H15B 7088   0.757   5.515   9.511 -0.7398 -0.8803 -0.5054
   63CHL1   C16 7089   0.909   5.443   9.352  0.1599 -0.0575 -0.1855
   63CHL1  H16A 7090   0.889   5.346   9.302  0.3612 -0.2139  0.0354
   63CHL1  H16B 7091   0.880   5.532   9.291  1.4376  0.0887 -0.6042
   63CHL1   C17 7092   1.068   5.447   9.389  0.2323 -0.1055 -0.5160
   63CHL1   H17 7093   1.090   5.554   9.407  2.8152 -0.6816  0.1143
   63CHL1   C13 7094   1.071   5.390   9.535 -0.0267  0.0174 -0.2199
   63CHL1   C18 7095   1.047   5.234   9.518 -0.0833 -0.5274 -0.7513
   63CHL1  H18A 7096   0.970   5.221   9.439 -0.1358  0.5242 -0.8926
   63CHL1  H18B 7097   1.138   5.178   9.487  0.3236  0.4959 -1.4738
   63CHL1  H18C 7098   1.002   5.194   9.611 -1.1346  1.1678 -0.4851
   63CHL1   C12 7099   1.188   5.412   9.625 -0.5395  0.0304 -0.4914
   63CHL1  H12A 7100   1.279   5.358   9.591  0.6924  1.5865  0.1685
   63CHL1  H12B 7101   1.202   5.522   9.630 -1.2888  0.1577 -1.0606
   63CHL1   C11 7102   1.153   5.371   9.775 -0.8966  0.1077  0.1361
   63CHL1  H11A 7103   1.145   5.261   9.767 -0.5651  0.1279 -0.4844
   63CHL1  H11B 7104   1.243   5.401   9.834 -1.2022  0.4064  0.4638
   63CHL1    C9 7105   1.021   5.429   9.826  0.3643 -0.5439 -0.4499
   63CHL1    H9 7106   1.035   5.539   9.833 -0.8827 -0.3158 -1.1857
   63CHL1   C10 7107   0.989   5.381   9.970  0.2237  0.8872  0.8259
   63CHL1   C19 7108   1.006   5.230   9.982  0.6158 -0.5610 -0.1493
   63CHL1  H19A 7109   0.930   5.173   9.924 -0.3363 -0.4504  0.9700
   63CHL1  H19B 7110   1.111   5.203   9.956  0.3819 -1.2294 -0.4175
   63CHL1  H19C 7111   0.994   5.191  10.085 -1.3739  1.0550  0.2979
   63CHL1    C1 7112   1.084   5.463  10.067 -0.2708  0.1071  0.1265
   63CHL1   H1A 7113   1.186   5.430  10.038 -0.3865  0.2252 -0.4239
   63CHL1   H1B 7114   1.069   5.569  10.037 -0.1986 -0.3668 -1.7278
   63CHL1    C2 7115   1.059   5.451  10.219  0.1845 -0.1203  0.4633
   63CHL1   H2A 7116   1.122   5.529  10.267 -1.3187  0.5169  1.4557
   63CHL1   H2B 7117   1.083   5.347  10.250  0.0715 -0.4541 -0.5229
   63CHL1   C20 7118   1.164   5.408   9.275 -0.1446 -0.0094 -0.2692
   63CHL1   H20 7119   1.161   5.298   9.259  2.3909 -0.0338 -1.0682
   63CHL1   C21 7120   1.305   5.462   9.308  1.0776  0.0791 -0.0556
   63CHL1  H21A 7121   1.331   5.429   9.410 -1.2401 -1.4001  0.1275
   63CHL1  H21B 7122   1.294   5.573   9.303  1.6050  0.0879 -1.7948
   63CHL1  H21C 7123   1.376   5.428   9.230  0.1093  1.8143 -1.7930
   63CHL1   C22 7124   1.136   5.473   9.135  1.1333 -0.0160  0.0957
   63CHL1  H22A 7125   1.029   5.485   9.110  1.0710 -1.2326 -0.2613
   63CHL1  H22B 7126   1.187   5.572   9.133  0.1810  0.4901  0.3549
   63CHL1   C23 7127   1.196   5.393   9.016  0.1873 -0.6584  0.2179
   63CHL1  H23A 7128   1.307   5.396   9.015  0.1749  0.2364 -1.1934
   63CHL1  H23B 7129   1.155   5.289   9.012  1.2195 -1.0511 -3.0368
   63CHL1   C24 7130   1.176   5.457   8.875 -0.3524 -0.1155 -0.0620
   63CHL1  H24A 7131   1.215   5.386   8.799  2.7229  0.8893  0.4536
   63CHL1  H24B 7132   1.067   5.474   8.858 -0.4102 -0.9498 -0.6026
   63CHL1   C25 7133   1.251   5.598   8.851  0.2747 -0.1451  0.2220
   63CHL1   H25 7134   1.222   5.667   8.932 -1.2874  1.2174 -1.4115
   63CHL1   C26 7135   1.404   5.565   8.852  0.4036  0.0573 -0.4542
   63CHL1  H26A 7136   1.431   5.481   8.785  2.1667  0.3640 -0.1739
   63CHL1  H26B 7137   1.463   5.655   8.821  2.1873 -1.0393 -0.3861
   63CHL1  H26C 7138   1.435   5.546   8.958 -0.6816  0.9505  0.0446
   63CHL1   C27 7139   1.212   5.661   8.718 -0.2973  1.1093 -0.3308
   63CHL1  H27A 7140   1.113   5.711   8.714 -0.2812  1.0812 -3.5892
   63CHL1  H27B 7141   1.275   5.752   8.709 -0.0085  1.1228  1.4714
   63CHL1  H27C 7142   1.238   5.601   8.628 -2.7628  0.6232 -0.7868
   64CHL1    C3 7143   0.441   5.273  10.164 -0.2951 -0.0521 -0.5504
   64CHL1    H3 7144   0.508   5.360  10.148  0.8394 -0.7037  0.5290
   64CHL1    O3 7145   0.375   5.273  10.284  0.1999 -0.0518 -0.4590
   64CHL1   H3' 7146   0.376   5.181  10.310 -1.7806  0.4047  1.5849
   64CHL1    C4 7147   0.332   5.254  10.061  0.0170  0.0669  0.3823
   64CHL1   H4A 7148   0.257   5.175  10.081  0.1368  0.1350  1.1119
   64CHL1   H4B 7149   0.281   5.353  10.052 -1.9620 -1.0607 -2.1151
   64CHL1    C5 7150   0.378   5.224   9.917 -0.5788  0.2859  0.2773
   64CHL1    C6 7151   0.351   5.305   9.811  0.6612  0.1871  0.3252
   64CHL1    H6 7152   0.286   5.392   9.822 -2.1405 -1.9098  1.4887
   64CHL1    C7 7153   0.394   5.278   9.670  0.4964  0.6118  0.6830
   64CHL1   H7A 7154   0.317   5.269   9.591  1.9443 -1.4336 -0.5957
   64CHL1   H7B 7155   0.466   5.355   9.634 -0.7318  1.4504 -0.0103
   64CHL1    C8 7156   0.470   5.148   9.663  0.8870  0.4060 -0.2662
   64CHL1    H8 7157   0.399   5.063   9.658 -0.1677  1.1693  1.1889
   64CHL1   C14 7158   0.548   5.139   9.533 -0.1471  0.1209  0.0132
   64CHL1   H14 7159   0.616   5.227   9.538  1.0643 -0.6894 -1.3968
   64CHL1   C15 7160   0.475   5.180   9.402  0.4649  0.1453 -0.1496
   64CHL1  H15A 7161   0.382   5.120   9.391  0.6842 -0.1851 -0.2110
   64CHL1  H15B 7162   0.461   5.290   9.388 -0.6684 -0.0157 -0.3661
   64CHL1   C16 7163   0.578   5.128   9.291  0.6832  0.3419  0.0323
   64CHL1  H16A 7164   0.520   5.060   9.225 -0.7349  0.9727  0.5795
   64CHL1  H16B 7165   0.615   5.212   9.229 -0.5476 -0.6652 -2.1834
   64CHL1   C17 7166   0.694   5.055   9.368  0.1382  0.4842  0.5061
   64CHL1   H17 7167   0.770   5.135   9.383 -0.2122  1.1883 -1.1422
   64CHL1   C13 7168   0.636   5.016   9.504  0.0420 -0.3919  0.0476
   64CHL1   C18 7169   0.554   4.887   9.497  0.1817 -0.5491  0.0553
   64CHL1  H18A 7170   0.508   4.861   9.595 -0.1951  2.2235  0.6910
   64CHL1  H18B 7171   0.475   4.898   9.421  2.8293  0.9798 -2.6854
   64CHL1  H18C 7172   0.609   4.796   9.465 -1.5322 -0.7221 -2.6524
   64CHL1   C12 7173   0.738   5.016   9.623  0.3106 -0.3178 -0.3742
   64CHL1  H12A 7174   0.804   4.928   9.609  1.8361  0.6898  0.1975
   64CHL1  H12B 7175   0.814   5.098   9.619  1.0393 -0.9875 -0.6448
   64CHL1   C11 7176   0.665   5.005   9.758  0.1498 -0.1951 -0.1972
   64CHL1  H11A 7177   0.608   4.910   9.761 -0.8479  0.3488 -1.1846
   64CHL1  H11B 7178   0.746   5.010   9.834 -0.3202 -0.8073  0.3484
   64CHL1    C9 7179   0.565   5.123   9.781  0.7192  0.5220 -0.1590
   64CHL1    H9 7180   0.626   5.216   9.782  0.7901  0.4711  0.0823
   64CHL1   C10 7181   0.486   5.111   9.918 -1.1105 -0.3600  0.6730
   64CHL1   C19 7182   0.416   4.972   9.928  0.0959  0.0884  0.2630
   64CHL1  H19A 7183   0.489   4.889   9.941 -0.4127 -0.1213  2.0542
   64CHL1  H19B 7184   0.343   4.961  10.011 -1.2136 -0.7004 -0.9552
   64CHL1  H19C 7185   0.368   4.943   9.832 -0.0622 -1.3087  0.7352
   64CHL1    C1 7186   0.591   5.118  10.033  0.3665  0.1564 -0.6028
   64CHL1   H1A 7187   0.630   5.015  10.040  0.4541  0.0752 -2.1038
   64CHL1   H1B 7188   0.664   5.201  10.017  1.5337 -0.7635 -0.1742
   64CHL1    C2 7189   0.528   5.147  10.172 -0.3360 -0.2953 -0.3287
   64CHL1   H2A 7190   0.605   5.153  10.252  0.9104 -0.5745 -1.4625
   64CHL1   H2B 7191   0.465   5.057  10.189 -0.7972 -0.0632 -0.7752
   64CHL1   C20 7192   0.751   4.950   9.280 -0.1085 -0.1550 -0.3119
   64CHL1   H20 7193   0.674   4.871   9.276 -1.9516  1.4911  0.8865
   64CHL1   C21 7194   0.888   4.902   9.340 -0.5209  0.2385  0.1315
   64CHL1  H21A 7195   0.956   4.985   9.369 -1.4246  0.2874  2.3631
   64CHL1  H21B 7196   0.936   4.826   9.275 -3.6831 -1.4952 -0.3773
   64CHL1  H21C 7197   0.867   4.852   9.437 -0.4267  0.7043  0.3948
   64CHL1   C22 7198   0.775   4.985   9.128 -0.5384  0.0764  0.7335
   64CHL1  H22A 7199   0.685   5.028   9.079 -0.4714  0.2243  0.7404
   64CHL1  H22B 7200   0.857   5.058   9.115 -0.0311 -0.7067 -0.8408
   64CHL1   C23 7201   0.809   4.867   9.035 -0.0939  0.3081 -0.4723
   64CHL1  H23A 7202   0.906   4.816   9.052 -0.4035  0.2281  1.3370
   64CHL1  H23B 7203   0.742   4.784   9.067 -0.2407  0.7095  0.2851
   64CHL1   C24 7204   0.782   4.896   8.888  0.3903 -0.1234 -0.0637
   64CHL1  H24A 7205   0.790   4.806   8.822 -0.1277  0.8666 -1.5462
   64CHL1  H24B 7206   0.673   4.917   8.885 -0.1815 -2.5041  1.3268
   64CHL1   C25 7207   0.868   5.007   8.825 -0.3164 -0.5382  0.4112
   64CHL1   H25 7208   0.854   5.100   8.883  0.0587 -0.7042  0.7768
   64CHL1   C26 7209   1.018   4.965   8.825 -0.7860  0.1659  0.3023
   64CHL1  H26A 7210   1.080   5.053   8.797  1.2174 -0.2944  2.8696
   64CHL1  H26B 7211   1.052   4.945   8.929 -1.0433  1.2597  0.6132
   64CHL1  H26C 7212   1.053   4.891   8.750  0.3127  0.5859  0.3827
   64CHL1   C27 7213   0.824   5.045   8.676 -0.0126 -0.0164 -0.6681
   64CHL1  H27A 7214   0.715   5.067   8.671 -0.2627 -1.1015 -0.4404
   64CHL1  H27B 7215   0.886   5.128   8.636 -0.0674 -0.1002 -0.9291
   64CHL1  H27C 7216   0.854   4.951   8.624  0.2139 -1.3863  1.7573
   65CHL1    C3 7217   2.056   1.429  10.037  0.2313  0.0867 -0.6896
   65CHL1    H3 7218   1.952   1.431   9.997 -0.3237  1.1595  0.7138
   65CHL1    O3 7219   2.057   1.464  10.175  0.1235  0.0787 -0.6917
   65CHL1   H3' 7220   2.149   1.454  10.201 -0.2295  1.0497  1.1280
   65CHL1    C4 7221   2.123   1.298  10.004  0.0844 -0.0049  0.0680
   65CHL1   H4A 7222   2.222   1.313  10.054  0.9279  1.7289 -1.9343
   65CHL1   H4B 7223   2.073   1.211  10.049  0.9379 -0.8286 -0.5333
   65CHL1    C5 7224   2.155   1.275   9.855 -0.4490 -0.4185 -0.8436
   65CHL1    C6 7225   2.119   1.161   9.799 -0.0545 -0.0098  0.4446
   65CHL1    H6 7226   2.086   1.076   9.861 -0.1536  0.8408  1.5871
   65CHL1    C7 7227   2.135   1.127   9.653  0.2576  0.6177 -0.2189
   65CHL1   H7A 7228   2.173   1.025   9.631 -0.4211  0.6505 -1.6473
   65CHL1   H7B 7229   2.037   1.127   9.600  0.4787 -0.1483 -0.6447
   65CHL1    C8 7230   2.223   1.233   9.581  0.6500 -0.1352 -1.0647
   65CHL1    H8 7231   2.322   1.207   9.623 -0.6761  2.5921  4.9135
   65CHL1   C14 7232   2.210   1.224   9.430 -0.2605  0.3694  0.1756
   65CHL1   H14 7233   2.107   1.237   9.390  0.5057  1.5347 -1.5485
   65CHL1   C15 7234   2.248   1.087   9.371  0.2349 -0.6192 -0.7270
   65CHL1  H15A 7235   2.335   1.054   9.431 -1.7578  0.8555  3.3829
   65CHL1  H15B 7236   2.171   1.009   9.391 -1.9696  1.6416  0.1620
   65CHL1   C16 7237   2.258   1.114   9.220 -0.9722  0.3278  0.0766
   65CHL1  H16A 7238   2.341   1.046   9.191 -0.3475  0.2816  1.8016
   65CHL1  H16B 7239   2.168   1.089   9.162 -0.3239 -0.3510 -0.6476
   65CHL1   C17 7240   2.288   1.260   9.214 -0.4136 -0.4515 -0.1858
   65CHL1   H17 7241   2.196   1.309   9.175  0.1341 -0.1374 -1.1250
   65CHL1   C13 7242   2.308   1.316   9.353  0.0395  0.4326 -0.6425
   65CHL1   C18 7243   2.462   1.292   9.389 -0.0315 -0.9269 -0.6467
   65CHL1  H18A 7244   2.484   1.313   9.496  1.0205  2.2595 -1.3799
   65CHL1  H18B 7245   2.503   1.193   9.359 -0.4470 -1.2007 -0.3200
   65CHL1  H18C 7246   2.526   1.365   9.335  3.5996 -0.4925  3.6978
   65CHL1   C12 7247   2.264   1.463   9.386 -0.8571  0.8560 -0.1145
   65CHL1  H12A 7248   2.332   1.543   9.352 -0.1134  1.5405  2.7396
   65CHL1  H12B 7249   2.163   1.484   9.344 -1.2437 -1.5397 -0.5513
   65CHL1   C11 7250   2.259   1.485   9.539  0.7474 -0.5059 -0.3988
   65CHL1  H11A 7251   2.362   1.495   9.579  0.2179 -0.0366  0.9188
   65CHL1  H11B 7252   2.220   1.584   9.571  2.1337 -0.6059  1.8606
   65CHL1    C9 7253   2.187   1.375   9.623 -0.3339 -0.7662 -0.0012
   65CHL1    H9 7254   2.081   1.389   9.593 -0.0132 -0.8216 -1.2490
   65CHL1   C10 7255   2.212   1.393   9.774 -0.2674 -0.1309 -0.7160
   65CHL1   C19 7256   2.367   1.379   9.803 -0.6317 -0.6503  0.7857
   65CHL1  H19A 7257   2.388   1.348   9.907  1.0836 -1.6689  0.1852
   65CHL1  H19B 7258   2.415   1.294   9.749 -3.3481 -1.6822 -0.2254
   65CHL1  H19C 7259   2.420   1.474   9.780  2.0043 -2.0782  0.5911
   65CHL1    C1 7260   2.149   1.531   9.823  0.1599  0.5117  0.4844
   65CHL1   H1A 7261   2.218   1.612   9.793  0.7338  0.2614  1.0908
   65CHL1   H1B 7262   2.056   1.555   9.767  0.1047  1.0891  0.8232
   65CHL1    C2 7263   2.127   1.540   9.974  0.2585  0.0136 -0.2462
   65CHL1   H2A 7264   2.081   1.640   9.991  0.3205 -0.0412  0.2598
   65CHL1   H2B 7265   2.227   1.545  10.022  1.1554  0.7286 -2.0839
   65CHL1   C20 7266   2.386   1.286   9.103  0.6138 -0.1484  0.3053
   65CHL1   H20 7267   2.480   1.231   9.124  0.7741 -0.4852 -1.1870
   65CHL1   C21 7268   2.409   1.438   9.098 -1.1258  0.2145  0.2332
   65CHL1  H21A 7269   2.492   1.467   9.166 -1.4045 -0.1323  0.7334
   65CHL1  H21B 7270   2.318   1.500   9.110 -1.1139  0.6622 -1.6683
   65CHL1  H21C 7271   2.455   1.462   9.000  1.4559  2.9333  1.9627
   65CHL1   C22 7272   2.328   1.234   8.964 -0.5221 -0.3498 -0.1125
   65CHL1  H22A 7273   2.316   1.123   8.971  0.1921 -0.5034 -1.1670
   65CHL1  H22B 7274   2.225   1.271   8.949 -0.0435  0.9339 -0.3165
   65CHL1   C23 7275   2.408   1.261   8.832  0.7061 -0.8405  0.6461
   65CHL1  H23A 7276   2.339   1.213   8.760  1.7761 -2.2102  0.5083
   65CHL1  H23B 7277   2.405   1.370   8.810 -3.2047 -1.1693 -1.4500
   65CHL1   C24 7278   2.550   1.208   8.831  0.5368  0.1870  0.1780
   65CHL1  H24A 7279   2.606   1.227   8.737  1.5729  0.9174  0.9190
   65CHL1  H24B 7280   2.594   1.272   8.911  0.8756  0.8044 -0.4923
   65CHL1   C25 7281   2.561   1.058   8.862 -0.1718  0.3650  0.7692
   65CHL1   H25 7282   2.520   1.045   8.964  0.3310 -1.1775  0.8061
   65CHL1   C26 7283   2.487   0.973   8.753 -0.4382 -0.4114  0.2609
   65CHL1  H26A 7284   2.402   0.922   8.803  0.3938  0.8395  3.1853
   65CHL1  H26B 7285   2.448   1.024   8.663  1.9284  0.2944 -0.4269
   65CHL1  H26C 7286   2.551   0.892   8.710 -0.5483 -1.2612  1.6042
   65CHL1   C27 7287   2.706   1.016   8.854  0.1911  0.1204  0.0195
   65CHL1  H27A 7288   2.734   1.042   8.750 -0.0068  1.2322  0.2302
   65CHL1  H27B 7289   2.765   1.076   8.926  0.2979  0.0280  0.0098
   65CHL1  H27C 7290   2.718   0.907   8.874  0.2968  0.3751  1.4327
   66CHL1    C3 7291   0.223   5.887  10.381 -0.5536  0.4253 -0.5950
   66CHL1    H3 7292   0.300   5.808  10.395 -0.3586  0.6456 -0.4271
   66CHL1    O3 7293   0.167   5.909  10.509 -0.2467  0.0662 -0.0295
   66CHL1   H3' 7294   0.244   5.913  10.566 -0.7846 -0.1628  0.7291
   66CHL1    C4 7295   0.305   6.009  10.333  0.1848  0.9296 -0.0573
   66CHL1   H4A 7296   0.238   6.095  10.313 -2.2624 -1.4083 -2.8014
   66CHL1   H4B 7297   0.387   6.032  10.405 -0.1211 -0.8218  0.9029
   66CHL1    C5 7298   0.366   5.972  10.197 -0.3667 -0.2591  0.0045
   66CHL1    C6 7299   0.500   5.976  10.184 -0.6649 -0.2256  0.6563
   66CHL1    H6 7300   0.568   6.019  10.259 -0.7290  3.1024 -1.0105
   66CHL1    C7 7301   0.580   5.943  10.061  0.9985  0.5683 -0.1819
   66CHL1   H7A 7302   0.651   6.025  10.041 -0.5768  1.6345 -1.7453
   66CHL1   H7B 7303   0.637   5.850  10.082  0.3388  0.5305  1.5726
   66CHL1    C8 7304   0.489   5.925   9.933 -0.0752  0.1061  0.6654
   66CHL1    H8 7305   0.467   6.025   9.890  0.6145 -0.7241 -1.8241
   66CHL1   C14 7306   0.556   5.853   9.818  0.6002  0.1641 -0.3545
   66CHL1   H14 7307   0.590   5.758   9.862 -1.7345  0.4554  2.3531
   66CHL1   C15 7308   0.682   5.925   9.764  0.1187  0.4946  0.3710
   66CHL1  H15A 7309   0.666   6.035   9.759  1.8153  0.7293 -0.6200
   66CHL1  H15B 7310   0.765   5.916   9.837 -0.2312 -0.2861  0.6768
   66CHL1   C16 7311   0.703   5.863   9.625  0.4013 -0.0305  0.2938
   66CHL1  H16A 7312   0.700   5.945   9.550 -0.9832 -0.6458 -0.3534
   66CHL1  H16B 7313   0.789   5.793   9.613  0.4605  0.2977 -1.4360
   66CHL1   C17 7314   0.578   5.769   9.592 -0.5037 -0.6547 -0.0758
   66CHL1   H17 7315   0.597   5.669   9.634  0.1048 -0.3917  0.2776
   66CHL1   C13 7316   0.474   5.835   9.692  0.0679 -0.1609 -0.1184
   66CHL1   C18 7317   0.418   5.967   9.627 -0.0372  0.2108  0.9555
   66CHL1  H18A 7318   0.346   5.939   9.547  0.0519 -1.4051  1.4124
   66CHL1  H18B 7319   0.361   6.020   9.707 -0.7818 -1.8848  1.8821
   66CHL1  H18C 7320   0.497   6.030   9.580 -0.4893  0.5064  0.5828
   66CHL1   C12 7321   0.357   5.746   9.738 -0.4702  0.1725  0.5284
   66CHL1  H12A 7322   0.302   5.720   9.645  2.1969  0.4882 -1.2304
   66CHL1  H12B 7323   0.409   5.654   9.772  0.1605  0.3523  0.0691
   66CHL1   C11 7324   0.275   5.803   9.850 -0.7339  0.2413 -0.1513
   66CHL1  H11A 7325   0.219   5.895   9.823 -3.1185  0.0400  3.3714
   66CHL1  H11B 7326   0.202   5.730   9.892 -1.5707  0.6578 -0.8261
   66CHL1    C9 7327   0.365   5.843   9.972 -0.4602  0.3783  0.8383
   66CHL1    H9 7328   0.403   5.750  10.019  2.4046  0.6558 -0.7297
   66CHL1   C10 7329   0.279   5.917  10.079 -0.2571 -0.1558 -0.5999
   66CHL1   C19 7330   0.201   6.046  10.024  0.5297 -0.0741 -0.0105
   66CHL1  H19A 7331   0.118   6.005   9.963  0.1419  0.7154 -0.0220
   66CHL1  H19B 7332   0.158   6.112  10.103 -1.2028 -0.0723 -0.9074
   66CHL1  H19C 7333   0.273   6.107   9.965 -0.8338  0.8560 -0.7707
   66CHL1    C1 7334   0.187   5.802  10.140  0.6851  0.5629  0.3919
   66CHL1   H1A 7335   0.104   5.770  10.074  1.2026  0.0664 -0.0298
   66CHL1   H1B 7336   0.255   5.720  10.171  0.8475 -0.9226 -3.4141
   66CHL1    C2 7337   0.123   5.832  10.278 -0.2324  0.0267  0.0672
   66CHL1   H2A 7338   0.078   5.737  10.315  0.9925 -1.4927 -2.1028
   66CHL1   H2B 7339   0.046   5.909  10.253 -1.0000  0.2011  2.6859
   66CHL1   C20 7340   0.544   5.747   9.438  0.1570  0.0096  0.2126
   66CHL1   H20 7341   0.463   5.818   9.410  1.2477  1.1192 -0.1889
   66CHL1   C21 7342   0.479   5.606   9.425 -0.7370 -0.2529  0.6980
   66CHL1  H21A 7343   0.445   5.596   9.320  1.9325  0.6992 -0.3430
   66CHL1  H21B 7344   0.398   5.592   9.500  1.1085  4.1050  3.9039
   66CHL1  H21C 7345   0.551   5.524   9.444 -2.0852 -1.5420  0.4189
   66CHL1   C22 7346   0.665   5.763   9.341 -0.1082  0.3018  0.4979
   66CHL1  H22A 7347   0.694   5.869   9.321 -1.1264 -0.0451 -3.7395
   66CHL1  H22B 7348   0.750   5.704   9.381  0.1065  0.0613 -0.2959
   66CHL1   C23 7349   0.644   5.710   9.198  0.0878 -0.4982  0.0646
   66CHL1  H23A 7350   0.648   5.599   9.209  0.8213 -0.4257  0.6141
   66CHL1  H23B 7351   0.546   5.734   9.152  0.3607  1.1870  0.3096
   66CHL1   C24 7352   0.764   5.757   9.105 -0.3401  0.6217 -0.9795
   66CHL1  H24A 7353   0.757   5.864   9.079 -0.3036  0.9996  0.4378
   66CHL1  H24B 7354   0.855   5.750   9.169 -0.5136 -0.3196 -0.8244
   66CHL1   C25 7355   0.791   5.675   8.975  0.3112 -0.6489  0.5202
   66CHL1   H25 7356   0.823   5.575   9.011 -0.9129 -1.3896 -0.3185
   66CHL1   C26 7357   0.672   5.663   8.874  0.0424 -0.7078  0.5590
   66CHL1  H26A 7358   0.635   5.766   8.857  1.9784 -0.3062 -1.7442
   66CHL1  H26B 7359   0.698   5.617   8.776 -0.6677  0.5335 -0.2249
   66CHL1  H26C 7360   0.580   5.618   8.916 -1.9032  2.2448 -0.2568
   66CHL1   C27 7361   0.914   5.731   8.913 -0.4891 -0.2578  0.9112
   66CHL1  H27A 7362   0.947   5.660   8.835  2.2157 -0.8331  2.4449
   66CHL1  H27B 7363   0.909   5.837   8.880 -1.5582 -0.2957  0.9114
   66CHL1  H27C 7364   0.997   5.722   8.986 -1.7667 -0.8593  2.3554
   67CHL1    C3 7365   0.482   1.812  10.361 -0.6461 -0.0057  0.4234
   67CHL1    H3 7366   0.477   1.702  10.366 -0.3755  0.0353  2.1064
   67CHL1    O3 7367   0.449   1.863  10.490  0.2387 -0.5069 -0.1686
   67CHL1   H3' 7368   0.506   1.824  10.557 -1.9656  0.2267  2.2876
   67CHL1    C4 7369   0.615   1.865  10.306  0.1502 -0.3970 -0.5399
   67CHL1   H4A 7370   0.614   1.975  10.316  0.4841 -0.2371 -2.1181
   67CHL1   H4B 7371   0.696   1.839  10.377  0.4773 -0.0420 -0.7841
   67CHL1    C5 7372   0.641   1.826  10.169  0.2992  0.9433 -0.1572
   67CHL1    C6 7373   0.744   1.743  10.141  0.1381 -0.2749  0.3132
   67CHL1    H6 7374   0.817   1.723  10.221 -3.1878 -1.0006  3.4718
   67CHL1    C7 7375   0.780   1.694  10.008  0.4113 -0.4306  0.9879
   67CHL1   H7A 7376   0.888   1.708   9.987  0.2135  0.4598  0.5151
   67CHL1   H7B 7377   0.755   1.586   9.998  0.3448 -0.3539  0.2724
   67CHL1    C8 7378   0.704   1.764   9.894 -0.4032 -0.5144  0.0363
   67CHL1    H8 7379   0.758   1.860   9.885  0.8487 -0.9644  2.0689
   67CHL1   C14 7380   0.715   1.694   9.756 -0.0469  0.1915  0.0984
   67CHL1   H14 7381   0.652   1.602   9.765  1.3281 -0.5976  2.9049
   67CHL1   C15 7382   0.855   1.642   9.714 -0.0296 -0.1369 -0.2457
   67CHL1  H15A 7383   0.933   1.716   9.743  1.5334 -0.4328 -3.2808
   67CHL1  H15B 7384   0.878   1.542   9.757 -3.4035 -0.6665  0.6120
   67CHL1   C16 7385   0.844   1.632   9.563  0.4977  0.0688 -0.4961
   67CHL1  H16A 7386   0.922   1.690   9.510 -0.5264  3.1871  1.1887
   67CHL1  H16B 7387   0.874   1.531   9.526  0.0379  0.1178 -1.0176
   67CHL1   C17 7388   0.701   1.683   9.516 -0.7151 -0.6237 -0.4638
   67CHL1   H17 7389   0.634   1.595   9.512 -2.0391  0.3784 -1.0476
   67CHL1   C13 7390   0.653   1.771   9.637  0.7586 -0.3990  0.3329
   67CHL1   C18 7391   0.713   1.918   9.633 -0.0586  0.1599 -0.6140
   67CHL1  H18A 7392   0.660   1.972   9.552  1.0681  1.2210 -0.6772
   67CHL1  H18B 7393   0.682   1.974   9.724 -0.8967  0.6841 -1.1998
   67CHL1  H18C 7394   0.823   1.922   9.622  0.1549  2.9206  1.3762
   67CHL1   C12 7395   0.503   1.764   9.676  0.1676 -0.7626 -0.2837
   67CHL1  H12A 7396   0.431   1.812   9.606 -0.1751 -1.2388 -0.2643
   67CHL1  H12B 7397   0.479   1.655   9.682  0.5802 -0.7999  1.0739
   67CHL1   C11 7398   0.478   1.829   9.815 -0.1443  0.1125 -0.4837
   67CHL1  H11A 7399   0.481   1.939   9.799  1.1025  0.2233  0.4488
   67CHL1  H11B 7400   0.371   1.810   9.838 -0.1263 -1.4619 -1.5735
   67CHL1    C9 7401   0.560   1.779   9.932  0.6778 -0.0138 -0.3162
   67CHL1    H9 7402   0.530   1.673   9.948  1.6685 -0.1402  0.9131
   67CHL1   C10 7403   0.539   1.860  10.063  0.7131 -0.2744  0.3078
   67CHL1   C19 7404   0.543   2.012  10.036 -0.4477  0.4401  0.6254
   67CHL1  H19A 7405   0.646   2.038  10.002 -0.6496  0.1868 -0.1874
   67CHL1  H19B 7406   0.474   2.055   9.960  0.0242  1.0935  0.5527
   67CHL1  H19C 7407   0.529   2.068  10.131 -0.2777  0.4947  0.6201
   67CHL1    C1 7408   0.394   1.823  10.123 -0.3614  0.8962  0.1956
   67CHL1   H1A 7409   0.317   1.880  10.066 -0.9841  0.3915  0.5180
   67CHL1   H1B 7410   0.378   1.717  10.094  2.1856  0.1740  1.1914
   67CHL1    C2 7411   0.371   1.856  10.264 -0.0869  0.2014  0.5435
   67CHL1   H2A 7412   0.275   1.813  10.302  0.3511 -0.9687  0.3578
   67CHL1   H2B 7413   0.375   1.967  10.273  0.4401  0.1072  1.7835
   67CHL1   C20 7414   0.702   1.753   9.378  0.7660 -0.3776  0.1280
   67CHL1   H20 7415   0.759   1.848   9.386 -1.6525  1.0766  1.3051
   67CHL1   C21 7416   0.554   1.794   9.325  0.1727  0.1812  0.2979
   67CHL1  H21A 7417   0.500   1.698   9.317  1.0869 -0.4615  1.5173
   67CHL1  H21B 7418   0.548   1.858   9.234 -0.8531  0.2185  0.3757
   67CHL1  H21C 7419   0.503   1.860   9.398  3.1860  1.6420  1.2493
   67CHL1   C22 7420   0.760   1.671   9.259  0.6971  0.3887 -0.5198
   67CHL1  H22A 7421   0.818   1.592   9.311  1.5149  0.6293 -1.0514
   67CHL1  H22B 7422   0.674   1.608   9.229  0.2196  1.1689 -0.8342
   67CHL1   C23 7423   0.834   1.758   9.157  0.4105 -0.1937 -0.3479
   67CHL1  H23A 7424   0.758   1.819   9.104 -3.3696 -3.7187  0.5077
   67CHL1  H23B 7425   0.892   1.834   9.214  0.9737 -1.3878  0.7178
   67CHL1   C24 7426   0.908   1.674   9.048 -0.2615 -0.5184 -0.1874
   67CHL1  H24A 7427   0.849   1.585   9.018 -0.1008 -0.5192 -0.4986
   67CHL1  H24B 7428   0.928   1.734   8.958  2.4861 -1.9517 -0.6388
   67CHL1   C25 7429   1.052   1.641   9.096 -0.0491  0.6335 -0.6538
   67CHL1   H25 7430   1.098   1.735   9.133  2.7896 -1.0431  0.3411
   67CHL1   C26 7431   1.062   1.534   9.200 -0.0652  0.3654  0.7068
   67CHL1  H26A 7432   1.166   1.497   9.209  1.5562  3.9333 -1.3653
   67CHL1  H26B 7433   1.025   1.572   9.298  0.2302  0.2914  0.8480
   67CHL1  H26C 7434   1.001   1.444   9.172 -1.0035  1.6730 -1.7566
   67CHL1   C27 7435   1.134   1.603   8.969  0.2519  0.8915  0.7007
   67CHL1  H27A 7436   1.076   1.526   8.914 -0.4049  2.1925 -0.4667
   67CHL1  H27B 7437   1.156   1.690   8.904 -0.9013  1.0937  0.5702
   67CHL1  H27C 7438   1.233   1.558   8.994  0.2252  1.1461  1.2755
   68CHL1    C3 7439   3.112   2.454  10.187  0.5025 -0.3801 -0.1012
   68CHL1    H3 7440   3.013   2.494  10.154  0.3696 -0.0840  0.6224
   68CHL1    O3 7441   3.125   2.496  10.321 -0.2066 -0.1019  0.2893
   68CHL1   H3' 7442   3.100   2.588  10.327  1.3680  0.3481  0.6182
   68CHL1    C4 7443   3.111   2.298  10.193  0.0765  0.3450 -0.3098
   68CHL1   H4A 7444   3.199   2.260  10.249  0.1684  0.1078 -0.6132
   68CHL1   H4B 7445   3.022   2.263  10.248  1.0861 -1.3215  0.3386
   68CHL1    C5 7446   3.107   2.226  10.052 -0.2317  0.3086 -0.3241
   68CHL1    C6 7447   3.023   2.121  10.018  0.3856 -0.7425 -0.1884
   68CHL1    H6 7448   2.960   2.073  10.094  2.8428 -0.7124  2.0283
   68CHL1    C7 7449   3.009   2.071   9.879 -0.1171 -0.0806 -0.0315
   68CHL1   H7A 7450   2.996   1.961   9.879  0.4427 -0.1673 -1.3529
   68CHL1   H7B 7451   2.913   2.112   9.840 -0.7995 -0.5199  1.1339
   68CHL1    C8 7452   3.123   2.112   9.779 -0.4768  0.2114  0.4764
   68CHL1    H8 7453   3.215   2.055   9.806 -2.4663 -3.1497  0.7086
   68CHL1   C14 7454   3.091   2.081   9.633  0.2289  0.7490  0.2933
   68CHL1   H14 7455   3.001   2.142   9.612 -2.5409 -2.5876  1.3690
   68CHL1   C15 7456   3.053   1.941   9.600  0.1865 -0.3810 -0.5254
   68CHL1  H15A 7457   3.126   1.871   9.646 -2.0074 -2.6574 -0.2776
   68CHL1  H15B 7458   2.957   1.917   9.649  0.4801  2.0087  1.3574
   68CHL1   C16 7459   3.055   1.935   9.451 -0.0983 -0.1411  0.4425
   68CHL1  H16A 7460   3.112   1.846   9.418 -1.3432 -0.7071 -0.2480
   68CHL1  H16B 7461   2.954   1.923   9.405  1.2969  0.9291 -3.1708
   68CHL1   C17 7462   3.119   2.071   9.402 -0.3579  1.0812 -0.2189
   68CHL1   H17 7463   3.032   2.140   9.393  0.0826  2.4127  3.9371
   68CHL1   C13 7464   3.196   2.121   9.529 -0.0764  0.1133  0.1961
   68CHL1   C18 7465   3.336   2.049   9.558  0.5963 -0.0819 -0.0100
   68CHL1  H18A 7466   3.371   2.070   9.662  3.0658 -0.7071 -0.6440
   68CHL1  H18B 7467   3.308   1.942   9.547  0.3783 -0.1847  1.3781
   68CHL1  H18C 7468   3.421   2.071   9.490  1.2838 -0.7136  0.6240
   68CHL1   C12 7469   3.216   2.272   9.540 -0.4548  0.2043 -0.0861
   68CHL1  H12A 7470   3.281   2.313   9.459 -0.4484  0.4990  0.0656
   68CHL1  H12B 7471   3.116   2.319   9.528 -0.3303  0.5822  0.3227
   68CHL1   C11 7472   3.265   2.309   9.687  0.3516  0.3484  0.3927
   68CHL1  H11A 7473   3.364   2.261   9.705  1.6567  2.9505  0.7338
   68CHL1  H11B 7474   3.279   2.419   9.693  2.4694  0.2816 -1.8336
   68CHL1    C9 7475   3.163   2.258   9.800  0.0609 -0.3628  0.4920
   68CHL1    H9 7476   3.066   2.307   9.776  0.6280 -1.0184 -4.2541
   68CHL1   C10 7477   3.204   2.290   9.944  0.6133 -0.0735 -0.0866
   68CHL1   C19 7478   3.340   2.233   9.973 -0.4040 -0.0280 -0.6046
   68CHL1  H19A 7479   3.338   2.124   9.952 -1.9953  0.2421 -2.0893
   68CHL1  H19B 7480   3.419   2.287   9.916 -0.3354  0.2803 -0.2228
   68CHL1  H19C 7481   3.350   2.252  10.082  2.0169 -2.2048 -0.3280
   68CHL1    C1 7482   3.202   2.441   9.962 -0.5459 -0.6923 -0.2276
   68CHL1   H1A 7483   3.269   2.490   9.889 -1.3914 -1.4305 -1.5224
   68CHL1   H1B 7484   3.095   2.462   9.940 -0.9368 -0.1183  1.9694
   68CHL1    C2 7485   3.226   2.503  10.104 -0.0664 -0.1576 -0.0009
   68CHL1   H2A 7486   3.221   2.614  10.095 -0.5071 -0.0877  0.9085
   68CHL1   H2B 7487   3.324   2.464  10.137  0.5941 -0.2051 -1.9161
   68CHL1   C20 7488   3.199   2.054   9.273 -0.6949  0.1430 -0.6867
   68CHL1   H20 7489   3.267   1.967   9.285  0.0310  0.7496 -0.3667
   68CHL1   C21 7490   3.282   2.183   9.238  0.5630  0.1399 -0.4840
   68CHL1  H21A 7491   3.337   2.182   9.141 -0.1513  1.8656 -0.9372
   68CHL1  H21B 7492   3.352   2.192   9.324 -1.1541 -0.4308  1.0393
   68CHL1  H21C 7493   3.222   2.276   9.239  1.9369  1.1158 -2.3823
   68CHL1   C22 7494   3.110   2.009   9.152 -0.3492  0.6626  0.5970
   68CHL1  H22A 7495   3.067   1.910   9.179 -2.9895  1.4228 -0.4921
   68CHL1  H22B 7496   3.029   2.083   9.134 -0.3971  0.1538 -1.5532
   68CHL1   C23 7497   3.189   1.985   9.017  0.2304 -0.4534  0.2402
   68CHL1  H23A 7498   3.229   2.081   8.976  1.7607 -1.4691 -0.7636
   68CHL1  H23B 7499   3.275   1.923   9.051 -0.4420 -2.1181 -0.9455
   68CHL1   C24 7500   3.104   1.907   8.912 -0.2595  0.6668  0.7527
   68CHL1  H24A 7501   3.079   1.808   8.957 -1.5934  0.9308  0.6378
   68CHL1  H24B 7502   3.012   1.968   8.899 -1.1499 -0.1692  2.7171
   68CHL1   C25 7503   3.167   1.888   8.774  0.0319 -0.1674 -0.0490
   68CHL1   H25 7504   3.264   1.843   8.804  1.9211  2.8466 -1.2135
   68CHL1   C26 7505   3.076   1.821   8.670 -0.4634  0.7242 -0.0698
   68CHL1  H26A 7506   3.051   1.717   8.699  2.7485 -0.3238 -0.5782
   68CHL1  H26B 7507   2.982   1.876   8.650 -1.4952 -1.1226 -0.5801
   68CHL1  H26C 7508   3.128   1.802   8.573  0.9733 -0.3449  0.8693
   68CHL1   C27 7509   3.214   2.021   8.716 -0.3291  0.2688 -0.2857
   68CHL1  H27A 7510   3.125   2.088   8.716 -2.7727 -2.6164  2.7153
   68CHL1  H27B 7511   3.281   2.071   8.790 -1.9133  0.8951  0.7977
   68CHL1  H27C 7512   3.258   2.001   8.616 -0.8591 -2.4336 -0.0536
   69CHL1    C3 7513   4.823   3.238   6.915 -0.6857  0.1789 -0.4549
   69CHL1    H3 7514   4.727   3.195   6.952 -0.2356 -0.7652 -0.3592
   69CHL1    O3 7515   4.820   3.234   6.772  0.0026 -0.2668 -0.2041
   69CHL1   H3' 7516   4.913   3.236   6.748  0.4116 -1.1946  1.1830
   69CHL1    C4 7517   4.864   3.378   6.969  0.0016  0.0044  0.0780
   69CHL1   H4A 7518   4.961   3.403   6.920  0.1148  2.3098  1.3367
   69CHL1   H4B 7519   4.793   3.449   6.921 -0.8658 -0.8341  0.0908
   69CHL1    C5 7520   4.881   3.390   7.115  0.3257  0.5482  0.5081
   69CHL1    C6 7521   4.815   3.483   7.180  0.3265 -0.1474  0.0937
   69CHL1    H6 7522   4.743   3.548   7.129  0.9634  0.1975 -0.3838
   69CHL1    C7 7523   4.849   3.510   7.326 -0.0634 -0.5469  0.6474
   69CHL1   H7A 7524   4.873   3.617   7.342 -0.4892 -0.4591  0.6999
   69CHL1   H7B 7525   4.762   3.485   7.390 -1.2568 -1.3918 -1.2380
   69CHL1    C8 7526   4.965   3.424   7.392  0.0164  0.6522  0.2486
   69CHL1    H8 7527   5.060   3.478   7.376  1.5263 -2.0563 -0.6434
   69CHL1   C14 7528   4.943   3.401   7.539  0.1190 -0.1966 -0.4343
   69CHL1   H14 7529   4.841   3.362   7.558 -0.3752  1.4247  0.5289
   69CHL1   C15 7530   4.932   3.527   7.623 -0.1135  0.0070 -0.1204
   69CHL1  H15A 7531   5.015   3.598   7.603 -0.4701  0.7567  0.9629
   69CHL1  H15B 7532   4.841   3.591   7.614 -1.4788 -1.6787  1.0178
   69CHL1   C16 7533   4.942   3.481   7.771 -0.8011  0.2370 -0.6662
   69CHL1  H16A 7534   5.015   3.545   7.824 -0.0415  0.4353 -1.9276
   69CHL1  H16B 7535   4.850   3.489   7.834 -0.5879 -0.1718 -0.2970
   69CHL1   C17 7536   4.993   3.331   7.758  0.1758 -0.2173  0.1369
   69CHL1   H17 7537   4.905   3.264   7.764  0.7280 -1.1520 -1.4386
   69CHL1   C13 7538   5.048   3.321   7.608 -0.9596  0.0742  0.0628
   69CHL1   C18 7539   5.194   3.388   7.609 -0.4924 -0.0337 -0.9845
   69CHL1  H18A 7540   5.276   3.314   7.625  0.5217  1.2474  0.0068
   69CHL1  H18B 7541   5.225   3.421   7.507 -0.9374 -0.8262 -1.3888
   69CHL1  H18C 7542   5.191   3.471   7.682 -0.8854  0.9310 -2.0711
   69CHL1   C12 7543   5.061   3.183   7.547  0.8014  0.1239  0.1230
   69CHL1  H12A 7544   5.143   3.123   7.593  0.5004 -0.4276 -0.0533
   69CHL1  H12B 7545   4.961   3.140   7.571  1.7114 -1.3755  1.4900
   69CHL1   C11 7546   5.079   3.192   7.396 -0.0048  0.0422 -0.7993
   69CHL1  H11A 7547   5.180   3.237   7.389 -0.1040  0.7037  1.2945
   69CHL1  H11B 7548   5.090   3.092   7.349  1.7680 -0.4633  0.5807
   69CHL1    C9 7549   4.973   3.281   7.330  0.0963 -0.0820  0.1032
   69CHL1    H9 7550   4.882   3.224   7.360  1.0650 -2.2695 -0.9014
   69CHL1   C10 7551   4.980   3.286   7.174  0.0864 -0.1639 -0.8581
   69CHL1   C19 7552   5.126   3.323   7.133 -0.2148 -0.3597  0.4173
   69CHL1  H19A 7553   5.169   3.404   7.196 -1.5208  0.6943  0.0011
   69CHL1  H19B 7554   5.197   3.241   7.157  0.7110 -0.0937 -1.2754
   69CHL1  H19C 7555   5.128   3.360   7.028 -0.6474 -1.7516 -0.1004
   69CHL1    C1 7556   4.939   3.144   7.116 -0.4637 -0.4433  0.0066
   69CHL1   H1A 7557   5.018   3.072   7.144  0.2096  0.8553  1.5802
   69CHL1   H1B 7558   4.840   3.112   7.155 -1.8787  2.3674 -0.9780
   69CHL1    C2 7559   4.933   3.139   6.961  0.1778 -0.2850 -0.1948
   69CHL1   H2A 7560   4.907   3.038   6.924  0.7558 -1.5252  2.5521
   69CHL1   H2B 7561   5.034   3.173   6.930 -0.2904  2.6217  1.1145
   69CHL1   C20 7562   5.076   3.300   7.880 -0.4709  0.6764 -0.5833
   69CHL1   H20 7563   5.175   3.351   7.879  0.9521 -1.9461 -0.5843
   69CHL1   C21 7564   5.120   3.151   7.867 -0.1201  0.3432  0.0505
   69CHL1  H21A 7565   5.198   3.152   7.788  1.0056 -1.8556  1.0675
   69CHL1  H21B 7566   5.036   3.082   7.843  0.5124 -0.8723  1.2721
   69CHL1  H21C 7567   5.171   3.114   7.958 -2.9325 -0.1428  1.5521
   69CHL1   C22 7568   5.000   3.315   8.017  0.4908 -0.7341 -0.1548
   69CHL1  H22A 7569   4.947   3.412   8.018  0.3549 -0.8094  0.6618
   69CHL1  H22B 7570   4.927   3.233   8.032 -1.6853  1.1731  0.1452
   69CHL1   C23 7571   5.083   3.322   8.151 -0.3727  0.3429 -0.2587
   69CHL1  H23A 7572   5.118   3.220   8.179  2.2276  1.6784  1.7646
   69CHL1  H23B 7573   5.163   3.396   8.134 -0.7583  0.7665 -0.2451
   69CHL1   C24 7574   5.007   3.368   8.277 -0.1883  0.3577  0.9544
   69CHL1  H24A 7575   4.949   3.460   8.255 -0.2716  0.1821  0.4384
   69CHL1  H24B 7576   4.934   3.291   8.311 -0.9503 -0.3576 -2.0082
   69CHL1   C25 7577   5.099   3.406   8.395 -0.7254 -0.1999  0.5543
   69CHL1   H25 7578   5.187   3.469   8.370 -1.3853  0.7964  0.6996
   69CHL1   C26 7579   5.023   3.469   8.512 -0.2360 -0.4379  0.1921
   69CHL1  H26A 7580   4.945   3.543   8.482 -0.5326 -1.0390 -0.5805
   69CHL1  H26B 7581   4.963   3.399   8.575 -4.0936  3.3448  1.1531
   69CHL1  H26C 7582   5.091   3.530   8.573  1.1156 -0.5501 -1.1366
   69CHL1   C27 7583   5.161   3.271   8.443 -0.2894 -0.4993 -0.2332
   69CHL1  H27A 7584   5.242   3.236   8.375 -0.0009  0.1048 -0.2104
   69CHL1  H27B 7585   5.196   3.289   8.547 -0.4375  0.9843 -0.4254
   69CHL1  H27C 7586   5.081   3.195   8.455 -0.9557 -0.1859 -2.2394
   70CHL1    C3 7587   6.395   2.136   7.055  0.2125 -0.0276  0.6083
   70CHL1    H3 7588   6.284   2.136   7.046  0.3210 -1.6000 -2.0223
   70CHL1    O3 7589   6.448   2.146   6.927 -0.1494  0.0150  0.0800
   70CHL1   H3' 7590   6.542   2.135   6.946  0.5492  0.8313 -2.3836
   70CHL1    C4 7591   6.445   2.250   7.139  0.5851 -0.3346  0.5618
   70CHL1   H4A 7592   6.556   2.257   7.149  0.6758  1.9107 -1.2769
   70CHL1   H4B 7593   6.429   2.345   7.085  2.5429 -0.5307 -0.4810
   70CHL1    C5 7594   6.362   2.239   7.266  0.0211  0.0817 -1.2128
   70CHL1    C6 7595   6.266   2.328   7.291  0.0719 -0.5166 -0.3060
   70CHL1    H6 7596   6.249   2.417   7.229 -0.7561  0.4755  1.3037
   70CHL1    C7 7597   6.186   2.318   7.420  0.6462 -0.4449  0.4235
   70CHL1   H7A 7598   6.187   2.423   7.455 -1.3311  0.1882 -1.2000
   70CHL1   H7B 7599   6.083   2.288   7.392  0.0605  1.0980  0.8066
   70CHL1    C8 7600   6.228   2.223   7.533 -0.2545 -0.0208  0.1115
   70CHL1    H8 7601   6.315   2.269   7.586 -0.3201  0.8262 -0.4981
   70CHL1   C14 7602   6.115   2.194   7.624  0.8950 -0.1448 -0.3358
   70CHL1   H14 7603   6.031   2.160   7.559  1.6297  1.4941 -2.2463
   70CHL1   C15 7604   6.052   2.314   7.692 -0.1314 -0.5315  0.5892
   70CHL1  H15A 7605   6.133   2.386   7.719  0.8564 -1.0696 -0.8382
   70CHL1  H15B 7606   5.987   2.366   7.619  1.5387  0.4084 -0.2809
   70CHL1   C16 7607   5.969   2.254   7.807  0.3643  0.5542  0.2772
   70CHL1  H16A 7608   6.015   2.302   7.896  0.2988  1.9728 -0.4247
   70CHL1  H16B 7609   5.865   2.292   7.803  0.5364  0.9027 -1.4539
   70CHL1   C17 7610   5.995   2.107   7.798  0.0800 -0.0297  0.3914
   70CHL1   H17 7611   5.925   2.063   7.724 -1.4207 -0.8329  2.2222
   70CHL1   C13 7612   6.132   2.095   7.734 -0.6047  0.0038  0.0784
   70CHL1   C18 7613   6.246   2.134   7.835  0.3079 -0.5990 -0.0510
   70CHL1  H18A 7614   6.268   2.061   7.915  2.3256 -1.5652 -1.3810
   70CHL1  H18B 7615   6.342   2.155   7.782 -0.0333 -2.1918 -1.3606
   70CHL1  H18C 7616   6.223   2.230   7.887 -0.5898 -0.9488  0.2024
   70CHL1   C12 7617   6.169   1.957   7.664 -0.4236 -0.3340  0.7696
   70CHL1  H12A 7618   6.196   1.885   7.744 -0.0986 -0.4266  0.5770
   70CHL1  H12B 7619   6.080   1.913   7.613 -1.9926  3.3559  0.0407
   70CHL1   C11 7620   6.293   1.968   7.567  0.2481  0.0735 -0.1116
   70CHL1  H11A 7621   6.392   1.980   7.617  0.9672  0.0106 -1.4952
   70CHL1  H11B 7622   6.290   1.876   7.506  0.8120 -0.3056  0.4113
   70CHL1    C9 7623   6.266   2.086   7.470 -0.2702 -0.7138  0.2245
   70CHL1    H9 7624   6.177   2.059   7.410 -0.3266 -1.2043  0.5262
   70CHL1   C10 7625   6.369   2.111   7.357  0.8117  0.4843  0.1171
   70CHL1   C19 7626   6.511   2.103   7.407 -0.2423  0.2810  0.0581
   70CHL1  H19A 7627   6.534   2.008   7.458 -0.1669 -0.0939 -0.6604
   70CHL1  H19B 7628   6.580   2.115   7.321 -0.9803  0.8192 -0.4702
   70CHL1  H19C 7629   6.530   2.186   7.479  0.8709 -0.1155  0.2427
   70CHL1    C1 7630   6.354   1.989   7.256  0.0733  0.4450 -0.3687
   70CHL1   H1A 7631   6.379   1.892   7.303 -0.7537  0.5710  0.3480
   70CHL1   H1B 7632   6.246   1.979   7.232  0.1787  0.0735 -0.6986
   70CHL1    C2 7633   6.424   2.000   7.119  0.6988 -0.2059  0.7432
   70CHL1   H2A 7634   6.387   1.912   7.062 -1.3154 -0.2117  1.9657
   70CHL1   H2B 7635   6.535   1.991   7.124  0.6928 -0.0812  1.1382
   70CHL1   C20 7636   5.970   2.034   7.926  0.0939  0.1774 -0.9221
   70CHL1   H20 7637   6.064   2.039   7.985  0.3462 -1.3933 -1.1526
   70CHL1   C21 7638   5.929   1.891   7.889 -0.3504  0.8274  0.0594
   70CHL1  H21A 7639   5.925   1.836   7.985  0.3030  1.1405  0.2749
   70CHL1  H21B 7640   6.008   1.834   7.836 -1.3671 -0.7694  0.2202
   70CHL1  H21C 7641   5.829   1.887   7.842 -0.5696  0.8685  0.5176
   70CHL1   C22 7642   5.865   2.098   8.022  0.6127 -0.3428  0.0363
   70CHL1  H22A 7643   5.878   2.206   8.046 -1.0224  0.0243 -0.5939
   70CHL1  H22B 7644   5.761   2.091   7.983 -0.9918  1.2223  3.6041
   70CHL1   C23 7645   5.853   2.029   8.158  0.2114 -0.4645  0.0343
   70CHL1  H23A 7646   5.775   2.083   8.216  1.2669 -0.5204  1.5613
   70CHL1  H23B 7647   5.814   1.925   8.149  0.5919 -0.7714  1.6660
   70CHL1   C24 7648   5.985   2.044   8.237 -0.4813  1.1276 -0.3016
   70CHL1  H24A 7649   6.060   1.985   8.181 -1.6075 -0.0097 -0.6696
   70CHL1  H24B 7650   6.010   2.152   8.243 -1.1011  1.2152  1.4629
   70CHL1   C25 7651   5.989   2.006   8.382  0.4789 -0.6631 -0.2025
   70CHL1   H25 7652   5.922   2.070   8.442 -0.2652 -0.4178 -1.2611
   70CHL1   C26 7653   5.955   1.855   8.397 -0.0560 -1.1058 -0.6753
   70CHL1  H26A 7654   5.962   1.830   8.506 -1.6898  0.4751 -0.1679
   70CHL1  H26B 7655   5.852   1.839   8.358 -0.4577  2.8406 -1.6167
   70CHL1  H26C 7656   6.020   1.803   8.323 -0.0571 -0.5737 -1.0546
   70CHL1   C27 7657   6.123   2.039   8.436 -0.1766  0.5574 -0.5125
   70CHL1  H27A 7658   6.118   2.029   8.546  1.3776  1.9475 -0.2904
   70CHL1  H27B 7659   6.191   1.954   8.412 -3.5506 -2.7041  0.4919
   70CHL1  H27C 7660   6.167   2.137   8.410 -2.0201  1.0897 -1.9301
   71CHL1    C3 7661   3.467   5.099   6.813  0.2732  0.1182 -0.3275
   71CHL1    H3 7662   3.380   5.034   6.835  0.8183 -0.4066  0.3169
   71CHL1    O3 7663   3.446   5.163   6.692  0.4305 -0.5119  0.1667
   71CHL1   H3' 7664   3.503   5.241   6.694 -1.3431  0.8432  2.1826
   71CHL1    C4 7665   3.505   5.199   6.923 -0.3450  0.4013 -0.7424
   71CHL1   H4A 7666   3.591   5.259   6.885  0.0322  0.8500  0.7566
   71CHL1   H4B 7667   3.427   5.277   6.924 -0.7700  0.0168 -1.9307
   71CHL1    C5 7668   3.542   5.119   7.053 -0.0613 -0.4868  0.2676
   71CHL1    C6 7669   3.484   5.138   7.168  0.0611  0.5541 -0.2409
   71CHL1    H6 7670   3.410   5.220   7.171 -1.3603 -0.6925  0.3686
   71CHL1    C7 7671   3.511   5.070   7.302 -0.4763 -0.5162  0.0499
   71CHL1   H7A 7672   3.529   5.130   7.393  1.2690 -0.3299 -0.3862
   71CHL1   H7B 7673   3.423   5.009   7.331 -1.0591  1.0466  1.7350
   71CHL1    C8 7674   3.655   4.991   7.295  0.4202  0.8343 -0.4777
   71CHL1    H8 7675   3.743   5.058   7.306  0.2716  0.7631  1.4295
   71CHL1   C14 7676   3.661   4.889   7.414 -0.1858 -0.8639  0.0131
   71CHL1   H14 7677   3.576   4.819   7.404 -0.2777 -0.5868 -1.2668
   71CHL1   C15 7678   3.638   4.945   7.549  0.8774  0.0343 -0.5616
   71CHL1  H15A 7679   3.695   5.038   7.569 -0.2332  0.8377 -1.0116
   71CHL1  H15B 7680   3.531   4.970   7.564  1.6094  2.1041  1.6072
   71CHL1   C16 7681   3.686   4.834   7.638 -0.0984  0.1867 -0.2586
   71CHL1  H16A 7682   3.748   4.882   7.717 -2.2372 -0.0072  1.6353
   71CHL1  H16B 7683   3.610   4.786   7.703  1.8547  1.4083  3.1808
   71CHL1   C17 7684   3.765   4.734   7.552  0.7555 -0.2595 -0.0216
   71CHL1   H17 7685   3.684   4.661   7.529 -0.6003  0.9613  0.6679
   71CHL1   C13 7686   3.793   4.811   7.419 -0.1948  0.7411 -0.2953
   71CHL1   C18 7687   3.913   4.904   7.439  0.8018  0.7027  0.9142
   71CHL1  H18A 7688   3.931   4.961   7.345  2.7464  0.2655  0.9781
   71CHL1  H18B 7689   3.908   4.968   7.530  2.8997 -1.7768  2.9337
   71CHL1  H18C 7690   4.007   4.844   7.439  0.2033 -0.2609  1.6396
   71CHL1   C12 7691   3.801   4.724   7.285 -0.3274 -0.0897  0.0239
   71CHL1  H12A 7692   3.900   4.677   7.268 -0.3170  0.7071 -2.4677
   71CHL1  H12B 7693   3.728   4.640   7.292  0.3932 -0.6748  0.8109
   71CHL1   C11 7694   3.784   4.812   7.161 -0.7804  0.3165  0.0751
   71CHL1  H11A 7695   3.885   4.858   7.146  0.3285 -2.8717 -4.5383
   71CHL1  H11B 7696   3.779   4.738   7.078  0.5028  0.0189  0.2322
   71CHL1    C9 7697   3.669   4.917   7.165  0.1797 -0.5183  0.1805
   71CHL1    H9 7698   3.580   4.850   7.168  1.4441 -2.2386  0.9528
   71CHL1   C10 7699   3.656   5.011   7.041  0.0239  0.2216  0.1211
   71CHL1   C19 7700   3.791   5.092   7.023  0.2654 -0.4146  0.2554
   71CHL1  H19A 7701   3.877   5.022   7.027 -0.9425 -1.9004  1.7019
   71CHL1  H19B 7702   3.792   5.154   6.931  1.0709 -0.8263 -0.0225
   71CHL1  H19C 7703   3.804   5.165   7.106 -0.1873 -0.3458  0.2720
   71CHL1    C1 7704   3.622   4.928   6.913  0.4909  0.4995 -0.5126
   71CHL1   H1A 7705   3.710   4.868   6.881 -0.9024 -0.1541 -3.5117
   71CHL1   H1B 7706   3.538   4.860   6.937 -0.3854  1.7507  0.0217
   71CHL1    C2 7707   3.590   5.016   6.791 -0.5255  0.2083  0.0020
   71CHL1   H2A 7708   3.582   4.963   6.693 -0.0533  1.9038 -1.0027
   71CHL1   H2B 7709   3.677   5.084   6.777 -0.0897 -0.3401  0.0026
   71CHL1   C20 7710   3.883   4.665   7.615 -0.0167  0.0525  0.2076
   71CHL1   H20 7711   3.963   4.739   7.633 -0.6000  0.7505 -0.0112
   71CHL1   C21 7712   3.940   4.553   7.521 -0.5873 -0.8548  0.1822
   71CHL1  H21A 7713   3.971   4.588   7.421  2.0038  2.3279  1.9129
   71CHL1  H21B 7714   3.858   4.479   7.510 -2.1900  0.7917  0.4435
   71CHL1  H21C 7715   4.029   4.508   7.570 -0.0265  0.8737  0.8520
   71CHL1   C22 7716   3.844   4.589   7.745  0.1469 -0.3488 -0.7166
   71CHL1  H22A 7717   3.790   4.668   7.802  0.7661 -0.6729  0.3558
   71CHL1  H22B 7718   3.776   4.509   7.712  1.0906 -1.0855 -0.9185
   71CHL1   C23 7719   3.948   4.540   7.846 -0.5534 -0.2752 -1.3719
   71CHL1  H23A 7720   4.019   4.470   7.797  1.4365  1.0220 -0.5095
   71CHL1  H23B 7721   4.018   4.624   7.866  0.7560 -1.5839 -0.2090
   71CHL1   C24 7722   3.886   4.481   7.973 -0.2734 -1.3353  0.4362
   71CHL1  H24A 7723   3.830   4.557   8.031  0.0089  0.4750 -1.5391
   71CHL1  H24B 7724   3.813   4.410   7.929  0.7378 -0.8821 -2.2207
   71CHL1   C25 7725   3.983   4.415   8.071 -0.6635 -0.5970  0.6260
   71CHL1   H25 7726   4.084   4.453   8.045 -0.1752 -1.2695  1.5119
   71CHL1   C26 7727   3.957   4.471   8.215  0.0669  0.0646 -0.5501
   71CHL1  H26A 7728   3.978   4.579   8.229 -1.4975  0.5663 -1.6935
   71CHL1  H26B 7729   3.856   4.441   8.251 -1.1244  0.2952 -3.4119
   71CHL1  H26C 7730   4.036   4.422   8.276  1.6746  1.2719 -1.5868
   71CHL1   C27 7731   3.983   4.263   8.060  0.6589 -0.5421 -0.1100
   71CHL1  H27A 7732   3.885   4.226   8.096  0.6612  0.1386  0.6203
   71CHL1  H27B 7733   3.998   4.228   7.955  0.2634 -0.9033 -0.0454
   71CHL1  H27C 7734   4.060   4.221   8.128  0.8982  0.1715  0.0657
   72CHL1    C3 7735   6.006   0.982   7.105  0.8178  0.4715  0.5348
   72CHL1    H3 7736   5.912   1.022   7.150  0.0140 -0.7135 -0.0526
   72CHL1    O3 7737   6.013   1.039   6.978 -0.1252 -0.3884  0.0915
   72CHL1   H3' 7738   6.059   0.982   6.916 -0.0602  0.2147 -0.4204
   72CHL1    C4 7739   6.129   1.037   7.178 -0.7882  0.3577 -0.1999
   72CHL1   H4A 7740   6.217   1.005   7.118 -1.8760  0.4323 -1.9096
   72CHL1   H4B 7741   6.131   1.148   7.173 -1.1770  0.3687 -0.1390
   72CHL1    C5 7742   6.144   0.988   7.317 -0.3821 -0.2772 -0.6553
   72CHL1    C6 7743   6.154   1.068   7.422  0.3777 -0.6710 -0.5737
   72CHL1    H6 7744   6.164   1.175   7.403 -2.5151  0.1081  1.4791
   72CHL1    C7 7745   6.167   1.016   7.563  0.0052 -0.1318  0.0304
   72CHL1   H7A 7746   6.262   1.052   7.606 -0.2869 -0.6466  1.1383
   72CHL1   H7B 7747   6.084   1.057   7.624  0.1937  0.1381  0.1056
   72CHL1    C8 7748   6.173   0.866   7.583  0.2092 -0.4023  0.2315
   72CHL1    H8 7749   6.278   0.832   7.569 -0.0259 -0.7944 -0.6148
   72CHL1   C14 7750   6.123   0.817   7.718 -0.1212 -0.5702 -0.1836
   72CHL1   H14 7751   6.015   0.841   7.722 -0.0547 -0.3680  3.4188
   72CHL1   C15 7752   6.178   0.887   7.843  0.4455  0.1752  0.4487
   72CHL1  H15A 7753   6.289   0.894   7.848  0.6985 -2.9933  2.1702
   72CHL1  H15B 7754   6.122   0.981   7.861 -1.0726 -0.8373  1.2521
   72CHL1   C16 7755   6.145   0.785   7.959 -0.1391 -0.6125 -0.5552
   72CHL1  H16A 7756   6.237   0.750   8.011 -1.0589 -3.1105 -0.5050
   72CHL1  H16B 7757   6.084   0.821   8.044 -0.5139 -1.3083 -0.5232
   72CHL1   C17 7758   6.086   0.656   7.897  0.0719 -0.0102  0.2069
   72CHL1   H17 7759   5.976   0.673   7.892 -0.2907 -2.1881 -0.7022
   72CHL1   C13 7760   6.139   0.666   7.749  0.6126  0.1215 -0.2115
   72CHL1   C18 7761   6.281   0.622   7.735 -0.4883  1.2660 -0.7481
   72CHL1  H18A 7762   6.287   0.511   7.737 -0.5607  1.2157  2.1429
   72CHL1  H18B 7763   6.326   0.656   7.640  1.4870  0.7189 -0.0516
   72CHL1  H18C 7764   6.338   0.660   7.823  0.4399 -0.5597 -0.5069
   72CHL1   C12 7765   6.041   0.602   7.640 -0.3292 -0.0934 -0.9695
   72CHL1  H12A 7766   6.042   0.492   7.647 -0.0627  0.0376  2.0446
   72CHL1  H12B 7767   5.936   0.636   7.645 -0.0294  1.2928 -2.8213
   72CHL1   C11 7768   6.088   0.640   7.497  0.2341  0.6226  0.4419
   72CHL1  H11A 7769   6.189   0.596   7.481  0.1824  0.6677 -0.0242
   72CHL1  H11B 7770   6.002   0.585   7.454 -0.1086 -1.2371  3.2403
   72CHL1    C9 7771   6.093   0.797   7.470  0.5393  0.3153  0.0122
   72CHL1    H9 7772   5.989   0.834   7.485 -0.8555 -2.9944 -0.6333
   72CHL1   C10 7773   6.122   0.835   7.323 -0.2627  0.1134 -0.4287
   72CHL1   C19 7774   6.251   0.766   7.284  0.1092  0.0105  0.4368
   72CHL1  H19A 7775   6.305   0.814   7.199  2.7366 -0.6166  1.6762
   72CHL1  H19B 7776   6.329   0.770   7.362  0.8681  1.5934 -0.3533
   72CHL1  H19C 7777   6.226   0.668   7.238  1.6589  0.2266 -0.9618
   72CHL1    C1 7778   6.001   0.780   7.237 -0.4274  0.3780 -0.3309
   72CHL1   H1A 7779   5.996   0.672   7.258  2.1572  0.5542  1.7171
   72CHL1   H1B 7780   5.911   0.831   7.276 -1.0917  0.6588 -2.1165
   72CHL1    C2 7781   6.006   0.829   7.096 -0.1173  0.5833 -0.0205
   72CHL1   H2A 7782   5.923   0.795   7.031  0.0887  1.9794 -1.0554
   72CHL1   H2B 7783   6.101   0.788   7.057  0.2363 -0.4240  1.7813
   72CHL1   C20 7784   6.131   0.529   7.980  0.7673  0.3532 -0.2901
   72CHL1   H20 7785   6.240   0.521   8.003  0.1432  0.4937  3.3242
   72CHL1   C21 7786   6.086   0.399   7.919  0.1804 -0.5510  0.0344
   72CHL1  H21A 7787   6.143   0.383   7.825 -0.7332 -1.0951 -0.4350
   72CHL1  H21B 7788   5.980   0.406   7.887  0.7629  0.1581 -1.8627
   72CHL1  H21C 7789   6.112   0.313   7.985 -1.3389 -1.3249 -0.3326
   72CHL1   C22 7790   6.053   0.540   8.117 -0.0435  0.0813 -1.1306
   72CHL1  H22A 7791   6.057   0.641   8.164  0.2183 -0.2635 -0.3938
   72CHL1  H22B 7792   5.944   0.526   8.104  0.1109 -2.0609 -0.5619
   72CHL1   C23 7793   6.101   0.447   8.228  0.3468 -0.1303 -0.0908
   72CHL1  H23A 7794   6.083   0.343   8.195 -1.7127  0.0555  0.2906
   72CHL1  H23B 7795   6.209   0.468   8.242  0.6189 -1.0123 -0.7946
   72CHL1   C24 7796   6.029   0.464   8.363  0.7921 -0.3679  0.7206
   72CHL1  H24A 7797   6.016   0.573   8.381  0.9220 -0.5635  2.1130
   72CHL1  H24B 7798   5.924   0.427   8.358 -0.3943  2.7278 -0.0809
   72CHL1   C25 7799   6.109   0.415   8.484 -0.0717  0.8126  0.6780
   72CHL1   H25 7800   6.216   0.433   8.460 -0.2163 -1.1996 -1.8912
   72CHL1   C26 7801   6.070   0.488   8.614 -0.2001  0.5463 -0.3119
   72CHL1  H26A 7802   6.155   0.471   8.684 -0.8958  3.2147  1.3379
   72CHL1  H26B 7803   6.062   0.598   8.601 -2.3457  0.5448  0.5741
   72CHL1  H26C 7804   5.977   0.448   8.662  0.5861  1.7897  2.4137
   72CHL1   C27 7805   6.091   0.264   8.508  0.2204 -0.1125 -0.0224
   72CHL1  H27A 7806   6.117   0.209   8.415  1.0887 -1.0978  0.7739
   72CHL1  H27B 7807   6.158   0.213   8.580  2.1192  1.4562 -0.6053
   72CHL1  H27C 7808   5.983   0.248   8.529  0.5887 -0.8456  1.4623
   73CHL1    C3 7809   3.863   2.194   6.779  0.2264 -0.6093  0.0975
   73CHL1    H3 7810   3.913   2.096   6.762 -0.0451 -1.0338  1.5571
   73CHL1    O3 7811   3.812   2.242   6.655 -0.0350  0.4876  0.5188
   73CHL1   H3' 7812   3.767   2.166   6.617  0.4811 -0.7158  2.1992
   73CHL1    C4 7813   3.752   2.180   6.881 -0.2024 -0.5174 -0.0274
   73CHL1   H4A 7814   3.687   2.270   6.884 -0.6681 -0.8037 -0.9426
   73CHL1   H4B 7815   3.680   2.102   6.848  0.5086 -0.8404 -0.8522
   73CHL1    C5 7816   3.806   2.141   7.020  0.1376 -0.3457 -0.2456
   73CHL1    C6 7817   3.768   2.023   7.075  0.4190  0.2550 -0.2232
   73CHL1    H6 7818   3.694   1.967   7.016  1.4651  0.3752 -1.7266
   73CHL1    C7 7819   3.824   1.973   7.205  0.5118 -0.1010 -0.0967
   73CHL1   H7A 7820   3.733   1.938   7.258  0.0651  2.3718  0.9045
   73CHL1   H7B 7821   3.894   1.888   7.188 -0.6090 -0.8734 -1.0114
   73CHL1    C8 7822   3.883   2.090   7.289  0.3648  0.4746 -0.5185
   73CHL1    H8 7823   3.809   2.163   7.327  1.8985  0.9524  1.7753
   73CHL1   C14 7824   3.945   2.027   7.421 -0.2226  0.2844  0.7387
   73CHL1   H14 7825   4.012   1.945   7.389  0.2479  1.7382 -2.4419
   73CHL1   C15 7826   3.841   1.966   7.525  0.5443 -0.0853  0.5005
   73CHL1  H15A 7827   3.755   2.036   7.538  1.2800  1.1461 -0.8989
   73CHL1  H15B 7828   3.813   1.864   7.490 -1.8002  0.5778  0.2213
   73CHL1   C16 7829   3.921   1.962   7.650 -0.7926 -0.1104 -0.8396
   73CHL1  H16A 7830   3.864   1.993   7.740 -1.1091  0.7945 -1.3349
   73CHL1  H16B 7831   3.961   1.860   7.668 -0.0542  0.1634 -0.8676
   73CHL1   C17 7832   4.054   2.046   7.629  0.0668  0.1283  0.3829
   73CHL1   H17 7833   4.136   1.980   7.596  0.1975  0.8090 -0.6962
   73CHL1   C13 7834   4.023   2.138   7.506 -0.5095  0.7219  0.2020
   73CHL1   C18 7835   3.923   2.241   7.549  0.2853  0.2826 -0.8382
   73CHL1  H18A 7836   3.983   2.308   7.614  0.8083  0.7972 -1.8258
   73CHL1  H18B 7837   3.881   2.300   7.465  1.2124  1.2873 -0.6216
   73CHL1  H18C 7838   3.848   2.200   7.620  1.8078  1.8224  1.8711
   73CHL1   C12 7839   4.133   2.197   7.418 -0.3910  0.2335 -0.3797
   73CHL1  H12A 7840   4.199   2.274   7.464  0.7950 -0.3626 -1.0288
   73CHL1  H12B 7841   4.202   2.111   7.414 -1.8442 -0.9803 -0.0750
   73CHL1   C11 7842   4.085   2.248   7.279 -0.3748  0.3620 -0.1753
   73CHL1  H11A 7843   4.034   2.343   7.306 -0.7055 -0.0980  0.8805
   73CHL1  H11B 7844   4.164   2.260   7.202  1.1944  1.5678  1.5283
   73CHL1    C9 7845   3.983   2.158   7.203  0.1037 -0.2101 -0.1139
   73CHL1    H9 7846   4.046   2.076   7.163  0.4122  0.1901 -0.4634
   73CHL1   C10 7847   3.920   2.228   7.079  0.0365  0.3541 -0.5006
   73CHL1   C19 7848   3.864   2.370   7.119  0.3461  0.7971  0.6207
   73CHL1  H19A 7849   3.951   2.437   7.134 -0.0727  1.2041  1.2702
   73CHL1  H19B 7850   3.791   2.408   7.045  1.3166 -1.0299 -1.3717
   73CHL1  H19C 7851   3.811   2.358   7.216 -0.3224  1.6006  0.3588
   73CHL1    C1 7852   4.031   2.249   6.967 -0.6066  0.1063  0.0113
   73CHL1   H1A 7853   4.102   2.316   7.020 -0.1185 -1.8266  1.9592
   73CHL1   H1B 7854   4.078   2.151   6.943 -2.3132 -0.4123 -1.3909
   73CHL1    C2 7855   3.965   2.290   6.831 -0.5742 -0.2176  0.3877
   73CHL1   H2A 7856   4.041   2.315   6.753 -1.3639  0.8980 -0.0572
   73CHL1   H2B 7857   3.910   2.383   6.855 -0.1884 -0.2910  1.6296
   73CHL1   C20 7858   4.105   2.109   7.757  0.1303 -0.0716 -0.1041
   73CHL1   H20 7859   4.028   2.170   7.810 -0.3002  0.4624 -1.2998
   73CHL1   C21 7860   4.222   2.204   7.739  0.1573  0.3547  0.1246
   73CHL1  H21A 7861   4.184   2.298   7.693  0.9896  0.5793 -0.1065
   73CHL1  H21B 7862   4.315   2.170   7.689 -0.2940  0.8156 -1.0601
   73CHL1  H21C 7863   4.253   2.240   7.839 -1.7137 -0.7229  1.1587
   73CHL1   C22 7864   4.133   1.995   7.865  0.5935  0.0023 -0.0242
   73CHL1  H22A 7865   4.048   1.924   7.868 -0.8430  1.5706 -1.7378
   73CHL1  H22B 7866   4.209   1.922   7.830 -2.4572 -2.0052 -3.1437
   73CHL1   C23 7867   4.153   2.034   8.013 -0.0801 -0.0278 -0.5160
   73CHL1  H23A 7868   4.251   2.087   8.024 -0.2358 -0.1821  2.4037
   73CHL1  H23B 7869   4.063   2.087   8.051 -1.2031  0.0432 -3.0722
   73CHL1   C24 7870   4.172   1.910   8.116  0.2826  0.3858 -0.0936
   73CHL1  H24A 7871   4.070   1.867   8.118  0.4991 -0.5365 -3.0431
   73CHL1  H24B 7872   4.246   1.842   8.067 -0.9856 -0.0254 -1.5271
   73CHL1   C25 7873   4.204   1.930   8.264  0.4272  0.2382  0.1833
   73CHL1   H25 7874   4.266   2.022   8.271  1.5246 -0.1232 -3.0909
   73CHL1   C26 7875   4.084   1.963   8.351  0.9774 -0.0624  0.0133
   73CHL1  H26A 7876   4.096   1.992   8.457 -0.4406  0.2629  0.0903
   73CHL1  H26B 7877   4.053   2.056   8.299  2.9118  0.4086 -0.3915
   73CHL1  H26C 7878   4.006   1.887   8.327 -0.9695  1.8475  0.0292
   73CHL1   C27 7879   4.284   1.818   8.327  0.0720  0.4603  0.9417
   73CHL1  H27A 7880   4.325   1.855   8.423 -1.1568  1.4869  1.0991
   73CHL1  H27B 7881   4.227   1.722   8.327 -0.5242  0.7184 -2.1636
   73CHL1  H27C 7882   4.366   1.793   8.257 -1.6876 -1.3612 -0.5976
   74CHL1    C3 7883   3.015   2.799   6.931  0.0119 -0.8711  0.1299
   74CHL1    H3 7884   3.027   2.904   6.965 -0.5636 -0.7563 -0.0118
   74CHL1    O3 7885   3.012   2.799   6.791  0.0103  0.0583  0.3355
   74CHL1   H3' 7886   3.030   2.711   6.759 -0.8291  0.7514 -2.2382
   74CHL1    C4 7887   3.141   2.727   6.986  0.5033 -0.6263 -0.9480
   74CHL1   H4A 7888   3.144   2.619   6.960 -0.0506 -1.5100  2.1827
   74CHL1   H4B 7889   3.227   2.786   6.946 -0.3100  1.6255  0.4392
   74CHL1    C5 7890   3.140   2.746   7.136 -0.0745 -0.2032 -0.2225
   74CHL1    C6 7891   3.241   2.812   7.198  0.1060  0.2945 -0.3850
   74CHL1    H6 7892   3.332   2.837   7.141  0.3290  1.4678  0.4405
   74CHL1    C7 7893   3.252   2.823   7.344 -1.2236  0.6274  0.1048
   74CHL1   H7A 7894   3.357   2.810   7.379 -0.8570 -0.8944 -1.4588
   74CHL1   H7B 7895   3.223   2.928   7.367  0.2610  0.6840  1.9934
   74CHL1    C8 7896   3.166   2.727   7.424  0.7152 -0.0496  0.0336
   74CHL1    H8 7897   3.210   2.626   7.410 -1.2401 -0.8461 -0.7351
   74CHL1   C14 7898   3.155   2.770   7.568  0.5166  0.6227  0.4666
   74CHL1   H14 7899   3.099   2.865   7.566 -1.3647 -0.4297 -1.5882
   74CHL1   C15 7900   3.289   2.798   7.640 -0.1012 -0.0019  0.0271
   74CHL1  H15A 7901   3.361   2.713   7.634 -1.7069 -1.3580 -0.8409
   74CHL1  H15B 7902   3.333   2.892   7.601 -2.3835  1.5818  1.0586
   74CHL1   C16 7903   3.247   2.801   7.784  0.2243  0.0895 -0.5790
   74CHL1  H16A 7904   3.305   2.729   7.846 -0.2846  0.6496  0.5673
   74CHL1  H16B 7905   3.243   2.901   7.831 -1.2924 -0.3978  0.3949
   74CHL1   C17 7906   3.099   2.744   7.790 -0.2914  0.3325  0.9179
   74CHL1   H17 7907   3.033   2.833   7.788 -0.8867 -0.1105  0.2422
   74CHL1   C13 7908   3.077   2.672   7.656 -0.0642  0.1459  0.6569
   74CHL1   C18 7909   3.147   2.538   7.648  0.0831  0.1370  0.5423
   74CHL1  H18A 7910   3.238   2.532   7.711 -0.3444 -1.8130  1.0363
   74CHL1  H18B 7911   3.082   2.458   7.689  1.1490 -0.4836  1.0477
   74CHL1  H18C 7912   3.176   2.498   7.549  1.8863 -1.4324  1.6330
   74CHL1   C12 7913   2.932   2.681   7.607  0.8151 -0.0345 -0.3347
   74CHL1  H12A 7914   2.878   2.605   7.667  2.6590 -0.6840  0.5750
   74CHL1  H12B 7915   2.883   2.781   7.614 -0.2515 -0.4243 -1.8875
   74CHL1   C11 7916   2.923   2.646   7.454 -0.1232  0.1502 -0.5549
   74CHL1  H11A 7917   2.951   2.539   7.443 -1.6950 -0.1730 -1.8029
   74CHL1  H11B 7918   2.817   2.654   7.422  0.4546  0.2298 -2.5767
   74CHL1    C9 7919   3.021   2.733   7.366  0.5567 -0.3230  0.6277
   74CHL1    H9 7920   2.977   2.834   7.373 -0.8520 -0.9627  1.3985
   74CHL1   C10 7921   3.019   2.695   7.215 -0.7318  0.1944 -0.0693
   74CHL1   C19 7922   3.016   2.537   7.205  0.4684 -0.7556 -0.4270
   74CHL1  H19A 7923   3.036   2.503   7.101 -1.1594 -1.7611 -0.4485
   74CHL1  H19B 7924   3.082   2.477   7.271  0.0597 -0.0019  0.6954
   74CHL1  H19C 7925   2.914   2.501   7.231  0.7553 -1.3327 -0.0712
   74CHL1    C1 7926   2.895   2.759   7.151 -0.0173 -0.2199 -0.0754
   74CHL1   H1A 7927   2.803   2.719   7.198 -0.1425 -0.9865 -0.9468
   74CHL1   H1B 7928   2.887   2.870   7.161 -0.8201 -0.3412  0.8157
   74CHL1    C2 7929   2.888   2.743   6.993 -0.0893 -0.3040  0.7901
   74CHL1   H2A 7930   2.808   2.809   6.953  1.9109  1.9326  0.2161
   74CHL1   H2B 7931   2.853   2.644   6.957 -0.7012  0.2490 -0.2113
   74CHL1   C20 7932   3.056   2.654   7.912  0.5165  0.3197 -0.3535
   74CHL1   H20 7933   2.973   2.585   7.885  0.9253 -0.0055 -0.8065
   74CHL1   C21 7934   2.998   2.742   8.030  0.1666 -0.6168 -0.0818
   74CHL1  H21A 7935   2.926   2.810   7.980  3.0253  0.9625 -2.3208
   74CHL1  H21B 7936   3.086   2.797   8.069  0.4141  0.0046 -1.4748
   74CHL1  H21C 7937   2.946   2.675   8.102  0.8172 -2.0316 -0.9008
   74CHL1   C22 7938   3.161   2.567   7.988  0.1917  0.6811  0.3187
   74CHL1  H22A 7939   3.253   2.550   7.928 -0.1841  0.4637 -0.2041
   74CHL1  H22B 7940   3.191   2.620   8.081  2.1042 -2.1657  1.4805
   74CHL1   C23 7941   3.103   2.431   8.040 -0.7134 -0.2486  0.1687
   74CHL1  H23A 7942   3.049   2.455   8.134 -0.1468  0.4796  0.3187
   74CHL1  H23B 7943   3.037   2.381   7.965 -0.3421  1.0834 -1.0974
   74CHL1   C24 7944   3.213   2.334   8.083  1.0853 -0.2228  0.6170
   74CHL1  H24A 7945   3.284   2.314   8.000 -3.2010 -4.8127 -2.5663
   74CHL1  H24B 7946   3.269   2.368   8.173 -1.8241 -0.6411  2.7193
   74CHL1   C25 7947   3.167   2.193   8.131  0.5599  0.5255 -0.4872
   74CHL1   H25 7948   3.081   2.166   8.066  0.8270  0.8108 -0.9634
   74CHL1   C26 7949   3.288   2.103   8.111 -0.0695  0.2390  0.5335
   74CHL1  H26A 7950   3.264   1.996   8.130  2.5727 -0.4978  0.1481
   74CHL1  H26B 7951   3.327   2.123   8.009  0.1253  2.0102  0.9294
   74CHL1  H26C 7952   3.361   2.136   8.188  0.2378 -0.8259  0.7172
   74CHL1   C27 7953   3.112   2.184   8.278  0.1132 -0.6021  0.2374
   74CHL1  H27A 7954   3.089   2.079   8.306 -1.8203 -0.0493  0.9374
   74CHL1  H27B 7955   3.194   2.206   8.349 -0.5641 -0.5662  1.0225
   74CHL1  H27C 7956   3.022   2.248   8.288  1.4604  1.0853  2.3764
   75CHL1    C3 7957   6.509   3.385   6.841  0.2941  0.1967  0.3379
   75CHL1    H3 7958   6.492   3.486   6.883 -3.1947 -0.0156 -0.2221
   75CHL1    O3 7959   6.519   3.402   6.703  0.1936 -0.7695  0.1097
   75CHL1   H3' 7960   6.506   3.319   6.655 -1.1543 -0.0418 -0.8789
   75CHL1    C4 7961   6.635   3.314   6.889  0.1412 -0.4831 -0.2272
   75CHL1   H4A 7962   6.632   3.213   6.841 -0.2858 -2.4674  3.6177
   75CHL1   H4B 7963   6.719   3.380   6.858 -0.1555 -0.2214 -0.4793
   75CHL1    C5 7964   6.636   3.272   7.037  0.3706  0.0198  0.7122
   75CHL1    C6 7965   6.743   3.311   7.108  0.2807  0.4339  0.8056
   75CHL1    H6 7966   6.818   3.371   7.054 -1.1001  0.7471 -0.8806
   75CHL1    C7 7967   6.747   3.289   7.251 -0.3360 -0.3006 -0.0331
   75CHL1   H7A 7968   6.850   3.248   7.264  0.8212  2.3656 -0.1338
   75CHL1   H7B 7969   6.750   3.382   7.311 -0.0813 -1.7843  2.3752
   75CHL1    C8 7970   6.660   3.170   7.304  0.7060 -1.0051 -0.1351
   75CHL1    H8 7971   6.711   3.077   7.270 -2.0848 -2.2542 -1.2174
   75CHL1   C14 7972   6.649   3.188   7.458  0.0386 -0.4173  0.2957
   75CHL1   H14 7973   6.601   3.286   7.477  0.7899  0.0777 -0.2885
   75CHL1   C15 7974   6.777   3.189   7.550  0.0190  0.7132 -0.3096
   75CHL1  H15A 7975   6.845   3.108   7.517  0.2694  0.7692  0.0629
   75CHL1  H15B 7976   6.830   3.286   7.560 -1.6073  1.3883  4.7242
   75CHL1   C16 7977   6.719   3.156   7.691 -0.0141 -0.2533 -0.2270
   75CHL1  H16A 7978   6.771   3.066   7.730  0.4088 -0.9494 -2.2954
   75CHL1  H16B 7979   6.736   3.243   7.758  0.0440  0.6114 -1.3561
   75CHL1   C17 7980   6.561   3.133   7.682 -0.7550 -0.5683 -0.2300
   75CHL1   H17 7981   6.507   3.229   7.693 -1.5068 -1.1594  1.8066
   75CHL1   C13 7982   6.552   3.096   7.531 -0.6306  0.5171  0.2939
   75CHL1   C18 7983   6.608   2.949   7.513  0.0043 -0.7964 -0.1031
   75CHL1  H18A 7984   6.701   2.933   7.572  0.0222 -0.6684 -0.0951
   75CHL1  H18B 7985   6.526   2.879   7.538  0.1898 -1.2512 -0.7431
   75CHL1  H18C 7986   6.625   2.920   7.407 -1.2852 -1.6903 -0.0828
   75CHL1   C12 7987   6.415   3.101   7.455  0.2604  0.3670 -0.3985
   75CHL1  H12A 7988   6.355   3.018   7.498  0.5752  0.4718  0.2477
   75CHL1  H12B 7989   6.369   3.196   7.491  1.2103  1.6596 -2.4068
   75CHL1   C11 7990   6.423   3.086   7.303  0.0304 -0.2724  0.5118
   75CHL1  H11A 7991   6.470   2.989   7.275  0.9554  0.2584  0.1869
   75CHL1  H11B 7992   6.318   3.104   7.272  0.0855  1.6344  1.3369
   75CHL1    C9 7993   6.525   3.188   7.244  0.0306  0.6888  1.0506
   75CHL1    H9 7994   6.487   3.287   7.274  1.2182  1.3873  0.3214
   75CHL1   C10 7995   6.516   3.196   7.087 -0.8433  0.4914  1.2242
   75CHL1   C19 7996   6.523   3.046   7.022  0.5536  0.1703  0.0670
   75CHL1  H19A 7997   6.598   2.987   7.077  1.0961  0.6587 -0.1446
   75CHL1  H19B 7998   6.422   3.012   7.053  0.0721 -2.1063 -3.3681
   75CHL1  H19C 7999   6.521   3.053   6.911 -3.4393 -1.6204 -0.1737
   75CHL1    C1 8000   6.387   3.260   7.030 -0.8985  0.0976 -0.1982
   75CHL1   H1A 8001   6.305   3.189   7.052  0.3260 -0.2595  4.0117
   75CHL1   H1B 8002   6.362   3.356   7.080  0.5647  0.8306 -0.7974
   75CHL1    C2 8003   6.382   3.305   6.878  0.3905 -0.8777  0.8072
   75CHL1   H2A 8004   6.296   3.373   6.860  1.2211 -0.2364 -1.0615
   75CHL1   H2B 8005   6.376   3.219   6.808  2.6070  0.1546 -0.7817
   75CHL1   C20 8006   6.512   3.027   7.776 -0.7682  0.1352 -0.4482
   75CHL1   H20 8007   6.567   2.933   7.752  0.5219  1.5230 -3.3937
   75CHL1   C21 8008   6.357   2.996   7.768  0.1240 -0.5788 -0.3061
   75CHL1  H21A 8009   6.344   2.927   7.682 -2.7063 -1.4068  0.6779
   75CHL1  H21B 8010   6.301   3.092   7.765 -0.1070 -0.6583  1.0484
   75CHL1  H21C 8011   6.321   2.925   7.845 -0.3522 -0.2232 -0.1999
   75CHL1   C22 8012   6.559   3.060   7.925 -0.3235  0.4653 -0.2029
   75CHL1  H22A 8013   6.531   2.970   7.985  1.2554 -0.1499 -0.3573
   75CHL1  H22B 8014   6.670   3.056   7.925 -0.3215 -1.2041  1.5676
   75CHL1   C23 8015   6.518   3.190   7.985 -0.3681 -0.5327 -0.3502
   75CHL1  H23A 8016   6.550   3.272   7.917 -2.7850 -1.7899 -3.2263
   75CHL1  H23B 8017   6.409   3.190   8.004 -0.3539 -1.4605 -0.2488
   75CHL1   C24 8018   6.582   3.206   8.127  0.4314 -0.5121 -0.2225
   75CHL1  H24A 8019   6.547   3.121   8.190  1.3978 -0.8758 -0.1537
   75CHL1  H24B 8020   6.693   3.202   8.119  0.6289 -0.4286  1.9717
   75CHL1   C25 8021   6.553   3.336   8.192  0.5334  0.2355  0.0297
   75CHL1   H25 8022   6.572   3.420   8.121  1.0516 -0.4258 -0.6243
   75CHL1   C26 8023   6.413   3.329   8.254 -0.1702  0.3010  0.6941
   75CHL1  H26A 8024   6.389   3.427   8.301  1.6597  1.8096 -1.3751
   75CHL1  H26B 8025   6.337   3.290   8.183  1.8024  0.8974 -1.8612
   75CHL1  H26C 8026   6.417   3.259   8.340 -1.3212 -0.2158  0.3401
   75CHL1   C27 8027   6.652   3.357   8.313  0.4123  0.2521 -0.5893
   75CHL1  H27A 8028   6.643   3.456   8.363 -0.4169  0.6156 -1.4251
   75CHL1  H27B 8029   6.642   3.284   8.396  1.4059 -0.7379 -1.3154
   75CHL1  H27C 8030   6.753   3.340   8.271  1.6839 -0.3775  2.4607
   76CHL1    C3 8031   6.512   6.118   7.189 -0.1061 -0.8999  0.0726
   76CHL1    H3 8032   6.420   6.176   7.167 -0.0872 -0.7370  0.4191
   76CHL1    O3 8033   6.554   6.067   7.064  0.2859 -0.6967  0.4159
   76CHL1   H3' 8034   6.510   5.983   7.051  1.6379 -1.6254  1.5304
   76CHL1    C4 8035   6.618   6.209   7.240  0.0365 -0.0485  0.0218
   76CHL1   H4A 8036   6.723   6.173   7.234 -0.0394 -0.5188  1.2469
   76CHL1   H4B 8037   6.633   6.298   7.174  2.8955  0.3107  1.0231
   76CHL1    C5 8038   6.604   6.243   7.387 -0.2532 -0.6883  0.0748
   76CHL1    C6 8039   6.621   6.368   7.433 -0.1160 -0.9403  0.3577
   76CHL1    H6 8040   6.645   6.447   7.360 -1.4006 -0.5575  0.3341
   76CHL1    C7 8041   6.630   6.415   7.576 -0.0207  0.8240  0.0574
   76CHL1   H7A 8042   6.707   6.493   7.588  1.4709 -0.8950  2.4677
   76CHL1   H7B 8043   6.532   6.457   7.610  0.0997  0.7864  0.4535
   76CHL1    C8 8044   6.662   6.299   7.672 -0.9002 -0.0869  0.5767
   76CHL1    H8 8045   6.771   6.277   7.662 -0.8116  0.6214 -0.0668
   76CHL1   C14 8046   6.628   6.332   7.814 -0.3881  0.0877  0.1555
   76CHL1   H14 8047   6.517   6.343   7.811 -0.4148  1.0413  2.5717
   76CHL1   C15 8048   6.682   6.471   7.864  0.4375 -0.2637  0.6467
   76CHL1  H15A 8049   6.783   6.512   7.843  0.2359  0.1267  0.4383
   76CHL1  H15B 8050   6.614   6.546   7.818  2.0960  0.7753 -0.2049
   76CHL1   C16 8051   6.660   6.468   8.017  0.5018 -0.1910  0.5455
   76CHL1  H16A 8052   6.756   6.484   8.070  0.3540 -0.9348  1.0594
   76CHL1  H16B 8053   6.587   6.539   8.060 -0.0928 -0.7615  0.5058
   76CHL1   C17 8054   6.607   6.324   8.050 -0.0021 -0.3610  0.3149
   76CHL1   H17 8055   6.497   6.339   8.059  0.1587  0.1658  1.7365
   76CHL1   C13 8056   6.654   6.234   7.926  0.5666  0.2495 -0.1208
   76CHL1   C18 8057   6.803   6.210   7.945 -0.3321 -0.8628 -0.3296
   76CHL1  H18A 8058   6.854   6.161   7.859 -0.3486 -0.8108 -0.3689
   76CHL1  H18B 8059   6.865   6.299   7.972 -1.9673  0.2137 -0.0084
   76CHL1  H18C 8060   6.808   6.137   8.028 -3.2488 -1.3351 -0.4812
   76CHL1   C12 8061   6.568   6.104   7.886  0.1387 -0.2857  0.0829
   76CHL1  H12A 8062   6.592   6.018   7.951 -0.2046 -0.6370 -0.2510
   76CHL1  H12B 8063   6.457   6.111   7.889  0.1893  0.5152  0.4789
   76CHL1   C11 8064   6.620   6.067   7.746 -0.2106  0.0736 -0.3716
   76CHL1  H11A 8065   6.726   6.038   7.758  0.3875  2.6614  1.1622
   76CHL1  H11B 8066   6.568   5.976   7.709 -1.5067  0.1170  1.2337
   76CHL1    C9 8067   6.580   6.174   7.635 -0.5937 -1.1583 -0.0443
   76CHL1    H9 8068   6.473   6.199   7.651 -0.0201  1.7454 -0.1962
   76CHL1   C10 8069   6.592   6.128   7.488 -0.1813 -0.2123  0.0339
   76CHL1   C19 8070   6.720   6.043   7.477  0.0743 -0.3093 -0.1457
   76CHL1  H19A 8071   6.805   6.080   7.538 -0.3655 -0.6830  0.7093
   76CHL1  H19B 8072   6.699   5.940   7.513 -2.4536  0.1539 -0.0731
   76CHL1  H19C 8073   6.762   6.040   7.374  1.9016  1.3888  0.5048
   76CHL1    C1 8074   6.469   6.062   7.426  0.5649  0.0380 -0.2140
   76CHL1   H1A 8075   6.436   5.977   7.490 -1.6922  0.1077 -1.1574
   76CHL1   H1B 8076   6.382   6.131   7.431  0.0726 -0.5840 -0.0319
   76CHL1    C2 8077   6.490   6.008   7.291 -0.3541  0.0585 -0.1049
   76CHL1   H2A 8078   6.398   5.956   7.258 -0.4436  0.5127 -0.5909
   76CHL1   H2B 8079   6.570   5.931   7.292 -0.2765  0.0905  2.6603
   76CHL1   C20 8080   6.661   6.287   8.196  0.3249  0.7862 -0.4995
   76CHL1   H20 8081   6.773   6.285   8.192  0.3997  1.2062  0.8931
   76CHL1   C21 8082   6.613   6.145   8.232 -0.1033 -0.6445  0.4276
   76CHL1  H21A 8083   6.652   6.103   8.327  0.3876 -2.4031 -0.5146
   76CHL1  H21B 8084   6.642   6.074   8.151 -2.0592  0.1000 -1.0029
   76CHL1  H21C 8085   6.502   6.155   8.228 -0.1128 -0.7150  0.5167
   76CHL1   C22 8086   6.633   6.381   8.315  0.9367 -0.0472  0.4720
   76CHL1  H22A 8087   6.674   6.483   8.301 -0.2317  0.4681  0.6998
   76CHL1  H22B 8088   6.523   6.382   8.328  1.1252 -1.2218  2.6385
   76CHL1   C23 8089   6.692   6.338   8.454  0.0470 -0.1821  1.0016
   76CHL1  H23A 8090   6.694   6.430   8.518 -0.9663 -0.5209  1.5373
   76CHL1  H23B 8091   6.623   6.261   8.493  0.0735 -0.4487  0.5196
   76CHL1   C24 8092   6.844   6.298   8.447 -0.1084 -0.4803  0.2747
   76CHL1  H24A 8093   6.854   6.206   8.385  1.2829  0.8791 -1.6565
   76CHL1  H24B 8094   6.898   6.382   8.399  0.2261 -0.2674  1.0195
   76CHL1   C25 8095   6.916   6.277   8.579 -0.5899 -0.1515 -0.3693
   76CHL1   H25 8096   6.842   6.222   8.641  0.3685 -0.6292  0.3845
   76CHL1   C26 8097   7.036   6.185   8.568 -0.3461 -0.0480  0.3026
   76CHL1  H26A 8098   7.120   6.227   8.510  1.1139 -1.8785  1.0025
   76CHL1  H26B 8099   7.080   6.168   8.669  1.9395 -0.9156 -0.7892
   76CHL1  H26C 8100   7.021   6.085   8.522  3.9361 -0.3979 -0.6634
   76CHL1   C27 8101   6.952   6.408   8.651 -0.1467 -0.0575  0.2306
   76CHL1  H27A 8102   7.040   6.458   8.605 -2.1252  1.8377 -1.7048
   76CHL1  H27B 8103   6.859   6.469   8.647 -0.5800 -0.6893  0.4325
   76CHL1  H27C 8104   6.972   6.381   8.757  0.4084 -0.3937  0.0466
   77CHL1    C3 8105   3.902   2.976   6.844  0.8028  0.0255  0.1048
   77CHL1    H3 8106   3.832   3.040   6.903  1.6070 -2.3129  3.9835
   77CHL1    O3 8107   3.889   3.007   6.704  0.0311  0.7381  0.3335
   77CHL1   H3' 8108   3.982   2.999   6.679 -0.1955 -0.1494 -0.2402
   77CHL1    C4 8109   4.048   3.004   6.888 -0.4591  0.4138 -0.9314
   77CHL1   H4A 8110   4.118   2.947   6.823 -1.2929 -0.0083 -1.4723
   77CHL1   H4B 8111   4.067   3.111   6.866  1.1656  0.4902  0.5316
   77CHL1    C5 8112   4.074   2.963   7.033  0.1918  0.1596 -0.4099
   77CHL1    C6 8113   4.127   3.051   7.115 -0.3575 -0.5161 -0.0361
   77CHL1    H6 8114   4.165   3.148   7.082 -0.1476 -0.7354 -0.4551
   77CHL1    C7 8115   4.150   3.026   7.258  0.6055 -0.0400 -0.7970
   77CHL1   H7A 8116   4.253   3.062   7.280 -0.1546  1.3257  0.7731
   77CHL1   H7B 8117   4.089   3.091   7.325 -0.6695 -0.3689 -1.6010
   77CHL1    C8 8118   4.132   2.881   7.304 -0.5614 -0.4139 -0.2051
   77CHL1    H8 8119   4.221   2.822   7.271 -0.7266 -0.2185 -1.0277
   77CHL1   C14 8120   4.124   2.870   7.451  0.7816  0.4795 -0.0009
   77CHL1   H14 8121   4.040   2.934   7.486  1.2523  0.2204  1.6955
   77CHL1   C15 8122   4.251   2.901   7.530  0.0472 -0.0834 -0.0650
   77CHL1  H15A 8123   4.329   2.859   7.464 -1.1932  1.5628 -2.7587
   77CHL1  H15B 8124   4.273   3.010   7.541  1.3144 -0.2523 -0.7974
   77CHL1   C16 8125   4.240   2.824   7.662 -0.9407 -0.4982 -0.3712
   77CHL1  H16A 8126   4.328   2.758   7.674 -0.0838  1.0745  3.8153
   77CHL1  H16B 8127   4.237   2.892   7.749  0.5505  0.8167 -1.2922
   77CHL1   C17 8128   4.105   2.753   7.652 -0.0817 -0.3236 -0.1015
   77CHL1   H17 8129   4.031   2.827   7.688 -0.3457 -0.3292 -0.6197
   77CHL1   C13 8130   4.090   2.728   7.496  1.0053  0.1577 -0.0345
   77CHL1   C18 8131   4.186   2.617   7.454  0.3046  0.0284 -0.3355
   77CHL1  H18A 8132   4.292   2.641   7.478  0.7345  2.0818 -3.6199
   77CHL1  H18B 8133   4.166   2.516   7.495 -0.0481  0.3605  0.3180
   77CHL1  H18C 8134   4.182   2.614   7.343 -0.3875 -2.6426 -0.3013
   77CHL1   C12 8135   3.936   2.705   7.449 -1.0268 -0.1943 -0.4354
   77CHL1  H12A 8136   3.900   2.607   7.489 -1.1066  0.1692  0.4017
   77CHL1  H12B 8137   3.882   2.796   7.480  0.3378  0.6520 -0.4843
   77CHL1   C11 8138   3.944   2.699   7.297  0.6586 -0.3604 -0.3128
   77CHL1  H11A 8139   4.001   2.605   7.281  1.4494 -0.3598  2.1382
   77CHL1  H11B 8140   3.840   2.686   7.258  0.9115  0.3374 -1.2670
   77CHL1    C9 8141   4.012   2.823   7.234  0.1357  0.0647 -0.2167
   77CHL1    H9 8142   3.938   2.906   7.239  0.4398  0.3487 -0.3687
   77CHL1   C10 8143   4.021   2.825   7.080 -0.2374 -0.2755  0.6384
   77CHL1   C19 8144   4.123   2.712   7.033 -0.2803  0.1176 -0.1449
   77CHL1  H19A 8145   4.106   2.616   7.086 -1.8366 -0.0350 -0.8767
   77CHL1  H19B 8146   4.123   2.700   6.922 -0.8815  0.6326 -0.2100
   77CHL1  H19C 8147   4.221   2.750   7.069 -2.0369  2.5897  2.4384
   77CHL1    C1 8148   3.886   2.791   7.004  0.7749  0.2825 -0.2772
   77CHL1   H1A 8149   3.883   2.680   7.015 -0.3005  0.4253  1.1453
   77CHL1   H1B 8150   3.795   2.832   7.053  0.5769  0.8731 -1.1166
   77CHL1    C2 8151   3.870   2.824   6.853  0.1761  0.0929 -0.6499
   77CHL1   H2A 8152   3.773   2.789   6.813 -0.7673  1.0321  0.7437
   77CHL1   H2B 8153   3.946   2.773   6.789  0.6491 -0.3095  0.2050
   77CHL1   C20 8154   4.083   2.639   7.760 -0.4506 -0.1353  0.8357
   77CHL1   H20 8155   4.150   2.554   7.735  0.4884  0.5104  1.1084
   77CHL1   C21 8156   3.931   2.591   7.756  0.5481  0.7514 -0.4232
   77CHL1  H21A 8157   3.913   2.503   7.690  0.6140 -1.4498  2.3159
   77CHL1  H21B 8158   3.861   2.668   7.717 -0.5710 -0.0682 -0.0686
   77CHL1  H21C 8159   3.902   2.568   7.860  0.2355 -1.3160 -0.9293
   77CHL1   C22 8160   4.113   2.689   7.897 -0.2227 -0.1096  0.5244
   77CHL1  H22A 8161   4.203   2.754   7.900 -1.2666  1.3421  1.4386
   77CHL1  H22B 8162   4.023   2.733   7.945 -0.9111 -0.1629 -0.6748
   77CHL1   C23 8163   4.144   2.582   7.995 -0.6392  0.7750 -0.5157
   77CHL1  H23A 8164   4.079   2.493   7.981  1.3856 -0.8055 -0.3655
   77CHL1  H23B 8165   4.250   2.553   7.980 -0.6557 -0.1681  1.0099
   77CHL1   C24 8166   4.125   2.634   8.141 -0.4077 -0.0216 -0.2466
   77CHL1  H24A 8167   4.186   2.726   8.153 -1.4302  0.9564 -2.1178
   77CHL1  H24B 8168   4.017   2.653   8.162 -0.4395 -1.0854  0.6480
   77CHL1   C25 8169   4.162   2.522   8.249  0.3456 -0.5111  0.7537
   77CHL1   H25 8170   4.255   2.469   8.221  1.0181 -0.0024  1.9754
   77CHL1   C26 8171   4.179   2.586   8.391 -0.0365  0.4742  0.0413
   77CHL1  H26A 8172   4.095   2.641   8.439  0.6822  1.1851  0.5052
   77CHL1  H26B 8173   4.208   2.505   8.462  0.2607 -0.5280 -1.1812
   77CHL1  H26C 8174   4.257   2.663   8.377  1.0910 -0.5656  0.4596
   77CHL1   C27 8175   4.057   2.416   8.254 -0.2805 -0.2074  1.4205
   77CHL1  H27A 8176   3.964   2.461   8.294  1.1101  2.6064  1.7251
   77CHL1  H27B 8177   4.042   2.385   8.149 -3.0390 -1.1430  2.0136
   77CHL1  H27C 8178   4.084   2.321   8.306  1.0479 -1.4540 -1.3375
   78CHL1    C3 8179   1.296   6.328   6.846 -0.1415  0.1957 -0.5284
   78CHL1    H3 8180   1.259   6.223   6.853 -1.3711  0.6032 -0.6389
   78CHL1    O3 8181   1.279   6.380   6.718 -0.2681 -0.0169  0.1201
   78CHL1   H3' 8182   1.350   6.445   6.715 -1.4656  1.3865  0.8329
   78CHL1    C4 8183   1.213   6.419   6.949 -0.0018 -0.3608 -0.4178
   78CHL1   H4A 8184   1.244   6.525   6.934  2.3841 -0.9550 -0.0838
   78CHL1   H4B 8185   1.105   6.401   6.929  0.0592 -2.4668  0.8792
   78CHL1    C5 8186   1.237   6.391   7.095  0.5621 -1.2184 -0.3689
   78CHL1    C6 8187   1.130   6.378   7.179 -0.7201  0.5211  0.8028
   78CHL1    H6 8188   1.028   6.384   7.138 -1.0040 -2.3542  0.9134
   78CHL1    C7 8189   1.143   6.354   7.325 -0.1780  0.2422  0.4743
   78CHL1   H7A 8190   1.082   6.424   7.385 -0.4939  1.8036 -1.5447
   78CHL1   H7B 8191   1.116   6.248   7.341  1.1191  0.1577  2.5654
   78CHL1    C8 8192   1.283   6.380   7.384 -1.2185  0.2568 -1.3750
   78CHL1    H8 8193   1.283   6.490   7.394 -1.9243  0.2827 -1.6039
   78CHL1   C14 8194   1.300   6.324   7.525 -0.2107  0.7982  0.7176
   78CHL1   H14 8195   1.279   6.215   7.517 -1.5061  1.0658  0.2597
   78CHL1   C15 8196   1.203   6.377   7.632 -0.3442 -0.0025  0.2412
   78CHL1  H15A 8197   1.176   6.484   7.618  2.4171  0.7794  0.2024
   78CHL1  H15B 8198   1.106   6.324   7.627 -0.9964  1.2728 -1.5695
   78CHL1   C16 8199   1.270   6.348   7.762  0.1687  0.3749 -0.7241
   78CHL1  H16A 8200   1.295   6.436   7.825 -1.2305  0.8603 -0.8308
   78CHL1  H16B 8201   1.200   6.292   7.827 -0.7830  0.5764 -1.5530
   78CHL1   C17 8202   1.407   6.282   7.725  0.5294 -1.3757 -0.4308
   78CHL1   H17 8203   1.396   6.175   7.695 -1.5968 -0.9647 -1.2662
   78CHL1   C13 8204   1.438   6.345   7.591 -0.6017 -0.5346  1.0038
   78CHL1   C18 8205   1.459   6.499   7.613 -0.2569  0.2667  0.5255
   78CHL1  H18A 8206   1.555   6.505   7.669  0.2819  0.2748 -0.3864
   78CHL1  H18B 8207   1.482   6.545   7.514 -2.5937 -0.8450 -0.5994
   78CHL1  H18C 8208   1.373   6.552   7.659 -1.8081  1.6884 -3.5802
   78CHL1   C12 8209   1.538   6.271   7.502  0.0700  0.2117  0.6674
   78CHL1  H12A 8210   1.640   6.287   7.543 -1.1027  1.3809  3.3219
   78CHL1  H12B 8211   1.522   6.162   7.519 -0.7826  0.3157  0.5562
   78CHL1   C11 8212   1.537   6.324   7.352  0.2527  0.1951 -1.0475
   78CHL1  H11A 8213   1.580   6.426   7.362 -1.3681  0.7687  0.8988
   78CHL1  H11B 8214   1.603   6.258   7.291 -0.4579 -0.5956 -0.9869
   78CHL1    C9 8215   1.390   6.330   7.290 -0.6446 -0.2215 -0.1498
   78CHL1    H9 8216   1.370   6.220   7.286  1.3399 -0.6255  0.1943
   78CHL1   C10 8217   1.383   6.376   7.140 -0.0577  0.3922  0.6087
   78CHL1   C19 8218   1.436   6.521   7.131 -0.5875 -0.6536 -0.9685
   78CHL1  H19A 8219   1.543   6.536   7.157 -0.3897 -1.1450 -1.4808
   78CHL1  H19B 8220   1.441   6.565   7.029  2.2163  2.3808  0.2887
   78CHL1  H19C 8221   1.380   6.592   7.195 -0.2735 -1.7906  0.6297
   78CHL1    C1 8222   1.455   6.287   7.037 -0.6286  0.2468 -0.7079
   78CHL1   H1A 8223   1.557   6.289   7.082 -0.8308 -0.3253 -0.2206
   78CHL1   H1B 8224   1.411   6.186   7.045 -0.7776  0.4398  1.3609
   78CHL1    C2 8225   1.445   6.327   6.889 -0.0454  0.2699  0.2772
   78CHL1   H2A 8226   1.489   6.253   6.819 -0.8489 -1.3541  1.4190
   78CHL1   H2B 8227   1.500   6.422   6.876  0.7013 -0.4839 -2.8207
   78CHL1   C20 8228   1.510   6.297   7.839  0.0020  0.4779  0.0112
   78CHL1   H20 8229   1.527   6.405   7.858  2.4349  0.0765  0.4094
   78CHL1   C21 8230   1.638   6.230   7.801  0.1603  0.3096 -0.1314
   78CHL1  H21A 8231   1.673   6.301   7.724 -2.8760  2.8561  0.6234
   78CHL1  H21B 8232   1.624   6.130   7.755  0.1183  1.2027 -2.1272
   78CHL1  H21C 8233   1.706   6.230   7.889 -0.3260 -0.2442  0.2619
   78CHL1   C22 8234   1.463   6.248   7.976 -0.1851  0.2893 -0.2559
   78CHL1  H22A 8235   1.379   6.315   8.002  1.3058  1.6343  1.3711
   78CHL1  H22B 8236   1.420   6.145   7.975 -0.0325  0.2110  0.4598
   78CHL1   C23 8237   1.563   6.273   8.091 -0.2594  0.3994  0.1056
   78CHL1  H23A 8238   1.635   6.188   8.091 -0.8313 -0.0956  0.2156
   78CHL1  H23B 8239   1.616   6.369   8.080 -0.7834  0.7551  0.6314
   78CHL1   C24 8240   1.487   6.262   8.227 -0.0176 -0.0909  0.1602
   78CHL1  H24A 8241   1.396   6.325   8.234 -0.5941 -1.0511  2.6366
   78CHL1  H24B 8242   1.467   6.154   8.247  1.5049 -0.2785  0.7922
   78CHL1   C25 8243   1.576   6.298   8.346 -0.1861 -0.3200 -0.4143
   78CHL1   H25 8244   1.613   6.402   8.335  1.8703 -0.8672  0.7903
   78CHL1   C26 8245   1.493   6.296   8.480 -0.2231  0.8758 -0.1782
   78CHL1  H26A 8246   1.547   6.337   8.568  0.9718 -2.0707  0.5847
   78CHL1  H26B 8247   1.399   6.350   8.456 -0.6646  1.1314  1.9898
   78CHL1  H26C 8248   1.463   6.190   8.492 -2.2400  1.3811 -0.3909
   78CHL1   C27 8249   1.703   6.214   8.361 -0.5152  0.0333  0.1083
   78CHL1  H27A 8250   1.755   6.227   8.459 -2.8128  1.0613  1.2741
   78CHL1  H27B 8251   1.667   6.109   8.365 -1.1222  0.2557  0.6933
   78CHL1  H27C 8252   1.768   6.227   8.272 -0.8196  1.1308  0.0389
   79CHL1    C3 8253   6.630   5.258   7.165 -0.1722  0.3653 -0.6941
   79CHL1    H3 8254   6.733   5.215   7.168 -0.0153  0.5923 -2.0571
   79CHL1    O3 8255   6.601   5.259   7.029  0.1731 -0.8735  0.4167
   79CHL1   H3' 8256   6.571   5.347   7.005  2.5161  0.1102  0.8003
   79CHL1    C4 8257   6.532   5.166   7.245  0.1996 -0.8639  0.1383
   79CHL1   H4A 8258   6.428   5.203   7.228  0.4516 -0.4319 -0.4899
   79CHL1   H4B 8259   6.544   5.065   7.199 -2.7114 -0.8967 -0.8007
   79CHL1    C5 8260   6.559   5.167   7.392  0.2770  0.5729 -1.1007
   79CHL1    C6 8261   6.575   5.050   7.457 -0.2986 -1.1878 -0.7972
   79CHL1    H6 8262   6.568   4.959   7.395  1.1708 -0.6856 -1.7581
   79CHL1    C7 8263   6.603   5.040   7.603  0.0159  0.2650 -0.2974
   79CHL1   H7A 8264   6.545   4.953   7.642 -0.6951  0.4437 -0.9294
   79CHL1   H7B 8265   6.707   5.015   7.631 -0.1137 -0.4437 -0.4110
   79CHL1    C8 8266   6.560   5.168   7.680 -0.3244 -0.5270 -0.7013
   79CHL1    H8 8267   6.450   5.172   7.688 -0.1793  0.0120  2.1740
   79CHL1   C14 8268   6.613   5.175   7.824 -0.7798  0.7855 -0.2159
   79CHL1   H14 8269   6.723   5.171   7.814 -0.8427 -0.7528 -0.5101
   79CHL1   C15 8270   6.586   5.056   7.910  1.1753 -0.6573 -0.2489
   79CHL1  H15A 8271   6.479   5.023   7.912  0.8744  0.1664 -1.5748
   79CHL1  H15B 8272   6.648   4.967   7.886 -1.3128 -2.7503  0.5372
   79CHL1   C16 8273   6.620   5.106   8.054 -0.6900  0.2432  0.2618
   79CHL1  H16A 8274   6.536   5.074   8.119  1.4534 -0.4836  2.8876
   79CHL1  H16B 8275   6.719   5.076   8.094  0.6467  2.1795 -1.3738
   79CHL1   C17 8276   6.638   5.259   8.045  0.6867  0.4170 -0.0832
   79CHL1   H17 8277   6.746   5.274   8.025  0.5922  0.4201 -0.6163
   79CHL1   C13 8278   6.576   5.304   7.903  0.0584  0.0663 -0.4533
   79CHL1   C18 8279   6.433   5.327   7.921 -0.2906  0.1598  0.3924
   79CHL1  H18A 8280   6.371   5.335   7.830 -0.6082 -0.5872  0.5331
   79CHL1  H18B 8281   6.393   5.239   7.977  0.5067  0.2131  1.0634
   79CHL1  H18C 8282   6.422   5.423   7.975 -0.4284  1.2276 -1.4673
   79CHL1   C12 8283   6.633   5.430   7.833 -0.8699  0.5366  0.4050
   79CHL1  H12A 8284   6.608   5.531   7.871 -0.5933  0.0527  1.9267
   79CHL1  H12B 8285   6.744   5.427   7.834 -0.7836  1.4268 -1.4122
   79CHL1   C11 8286   6.591   5.430   7.683 -0.0864  0.4740 -0.4027
   79CHL1  H11A 8287   6.483   5.455   7.676 -0.3690 -0.7658 -0.7108
   79CHL1  H11B 8288   6.632   5.508   7.615  0.6446 -0.3764 -0.9661
   79CHL1    C9 8289   6.605   5.297   7.602 -0.2761 -1.2121 -0.0032
   79CHL1    H9 8290   6.714   5.285   7.584 -0.3293 -0.0079 -1.2329
   79CHL1   C10 8291   6.554   5.308   7.455 -0.1386  0.0008 -0.6262
   79CHL1   C19 8292   6.406   5.357   7.449 -0.1346  0.0388 -0.1922
   79CHL1  H19A 8293   6.392   5.454   7.501 -0.0362  0.2325 -0.5268
   79CHL1  H19B 8294   6.392   5.378   7.341  1.3823  1.8210 -0.0875
   79CHL1  H19C 8295   6.336   5.293   7.506 -0.7712  0.9166  0.0305
   79CHL1    C1 8296   6.637   5.409   7.369 -0.0266  0.7074 -0.0667
   79CHL1   H1A 8297   6.633   5.513   7.407 -0.3256  0.1466  1.5189
   79CHL1   H1B 8298   6.739   5.379   7.401 -0.5546 -1.5532 -0.3539
   79CHL1    C2 8299   6.625   5.405   7.215  0.0872  1.2924  0.5738
   79CHL1   H2A 8300   6.707   5.462   7.167  0.5590 -0.5683 -0.9520
   79CHL1   H2B 8301   6.531   5.449   7.174 -0.0376  0.7402  0.2566
   79CHL1   C20 8302   6.597   5.335   8.177  0.0017  0.0419  0.5199
   79CHL1   H20 8303   6.490   5.329   8.205 -0.0897  1.2616  0.4587
   79CHL1   C21 8304   6.637   5.488   8.161 -0.8938  1.0134  0.5162
   79CHL1  H21A 8305   6.746   5.496   8.142 -0.3419 -0.6188  2.5596
   79CHL1  H21B 8306   6.621   5.547   8.254  2.8613 -0.6962  2.4710
   79CHL1  H21C 8307   6.584   5.527   8.072  2.9939 -0.5490 -2.7704
   79CHL1   C22 8308   6.680   5.277   8.294  0.0410  0.1163 -0.3045
   79CHL1  H22A 8309   6.662   5.168   8.308  1.9675 -0.2931 -0.8112
   79CHL1  H22B 8310   6.788   5.279   8.268 -0.0874 -1.2153 -1.0465
   79CHL1   C23 8311   6.678   5.335   8.430  0.7681 -0.2787 -0.6603
   79CHL1  H23A 8312   6.748   5.265   8.480  0.4324 -0.0997  0.0775
   79CHL1  H23B 8313   6.734   5.431   8.441 -1.4575  1.0288  0.0098
   79CHL1   C24 8314   6.540   5.341   8.506  0.0573 -0.0647  0.0685
   79CHL1  H24A 8315   6.476   5.412   8.448  1.0989  3.0033  2.3770
   79CHL1  H24B 8316   6.501   5.237   8.501  0.9595 -0.3578 -1.1130
   79CHL1   C25 8317   6.560   5.399   8.647  0.3689 -0.4377 -0.1966
   79CHL1   H25 8318   6.609   5.498   8.638 -1.2007  0.3852  0.1245
   79CHL1   C26 8319   6.423   5.437   8.712  0.0106 -1.0657 -0.4974
   79CHL1  H26A 8320   6.440   5.464   8.818  1.6165 -0.9470 -0.7602
   79CHL1  H26B 8321   6.375   5.527   8.670  2.1335  1.2436  1.7167
   79CHL1  H26C 8322   6.352   5.352   8.700  1.1142 -2.0887  0.0048
   79CHL1   C27 8323   6.645   5.311   8.740  0.4241 -0.2468 -0.1909
   79CHL1  H27A 8324   6.746   5.287   8.702  0.9078  0.5835  0.5450
   79CHL1  H27B 8325   6.660   5.362   8.837  0.1425 -0.5715  0.0250
   79CHL1  H27C 8326   6.596   5.216   8.771  0.2132 -0.4577 -1.1456
   80CHL1    C3 8327   3.314   2.015   6.918 -0.1127 -0.6504  0.2681
   80CHL1    H3 8328   3.210   1.987   6.892 -1.3028  0.4454  3.4226
   80CHL1    O3 8329   3.376   2.034   6.787 -0.0380 -0.7323  0.1617
   80CHL1   H3' 8330   3.397   1.950   6.746  1.6152 -0.1413 -0.2603
   80CHL1    C4 8331   3.318   2.143   7.000 -0.0448  0.3054  0.0985
   80CHL1   H4A 8332   3.423   2.178   7.011  0.6026 -1.6995  0.8565
   80CHL1   H4B 8333   3.267   2.229   6.951  2.6382  0.1521 -3.4243
   80CHL1    C5 8334   3.261   2.122   7.138  0.0427 -0.4698 -0.5683
   80CHL1    C6 8335   3.159   2.193   7.187  0.1955  0.2020  0.0589
   80CHL1    H6 8336   3.110   2.269   7.124 -1.1704  0.1469  1.0156
   80CHL1    C7 8337   3.104   2.160   7.318 -0.1533 -0.9167  0.1645
   80CHL1   H7A 8338   3.075   2.257   7.364 -0.0200  0.3653 -2.3109
   80CHL1   H7B 8339   3.012   2.101   7.297 -0.0394 -1.2006  0.4542
   80CHL1    C8 8340   3.189   2.075   7.416 -0.4125  0.3782  0.0845
   80CHL1    H8 8341   3.265   2.138   7.466 -1.0101 -0.0251  1.5786
   80CHL1   C14 8342   3.103   2.019   7.520 -0.1981  0.1663  0.2615
   80CHL1   H14 8343   3.026   1.952   7.477 -0.0941 -0.5710  1.1896
   80CHL1   C15 8344   3.015   2.121   7.594  0.3291 -0.0033 -0.1050
   80CHL1  H15A 8345   3.079   2.206   7.626  0.9314 -0.0057 -1.2530
   80CHL1  H15B 8346   2.933   2.166   7.535  0.2248  1.7850  1.2851
   80CHL1   C16 8347   2.966   2.042   7.718  0.2415  0.1162 -0.0631
   80CHL1  H16A 8348   2.983   2.111   7.803  1.9130 -0.7322  0.3444
   80CHL1  H16B 8349   2.859   2.014   7.709  0.4715 -0.9658  0.3016
   80CHL1   C17 8350   3.050   1.909   7.731  0.7531 -0.5184 -0.5043
   80CHL1   H17 8351   2.969   1.844   7.691  1.2871 -2.5306  1.4389
   80CHL1   C13 8352   3.165   1.931   7.625 -0.5413 -0.1038  0.0680
   80CHL1   C18 8353   3.282   2.000   7.700  1.3932 -0.2966  0.5087
   80CHL1  H18A 8354   3.358   2.044   7.632  1.5968  0.8085  1.4334
   80CHL1  H18B 8355   3.252   2.094   7.750  2.2045 -0.2208  0.8778
   80CHL1  H18C 8356   3.341   1.932   7.765  0.0631 -1.0381  0.9761
   80CHL1   C12 8357   3.213   1.807   7.545  0.7493 -0.3609  0.0823
   80CHL1  H12A 8358   3.270   1.729   7.599  1.2226 -0.9957 -1.2728
   80CHL1  H12B 8359   3.119   1.762   7.506  0.6912  2.0257 -3.0016
   80CHL1   C11 8360   3.302   1.844   7.424  0.4810 -0.6764  0.4399
   80CHL1  H11A 8361   3.399   1.881   7.463  0.6167 -0.7531  0.1812
   80CHL1  H11B 8362   3.324   1.749   7.369 -0.1065 -0.9367  0.6441
   80CHL1    C9 8363   3.241   1.957   7.332  0.0315  0.6578  0.0103
   80CHL1    H9 8364   3.145   1.910   7.303  1.0409 -1.4344 -0.1111
   80CHL1   C10 8365   3.320   1.994   7.203 -0.4227 -0.6478  0.0986
   80CHL1   C19 8366   3.461   2.044   7.256  0.2294  0.7186  0.9610
   80CHL1  H19A 8367   3.523   1.969   7.311 -0.6030 -0.0487  0.8790
   80CHL1  H19B 8368   3.528   2.078   7.174 -1.2281 -1.4012 -1.2338
   80CHL1  H19C 8369   3.444   2.130   7.324  0.2846  1.8178 -0.3753
   80CHL1    C1 8370   3.331   1.859   7.112 -0.5612 -0.3035 -0.6930
   80CHL1   H1A 8371   3.396   1.786   7.165 -0.1310 -0.4771 -1.4554
   80CHL1   H1B 8372   3.232   1.811   7.097 -1.2192  0.9865 -0.6204
   80CHL1    C2 8373   3.391   1.889   6.981  0.1519 -0.3924 -0.2594
   80CHL1   H2A 8374   3.382   1.810   6.903 -1.0123 -1.3406  0.7977
   80CHL1   H2B 8375   3.498   1.918   6.991 -0.2121  0.6453  0.9456
   80CHL1   C20 8376   3.070   1.864   7.873  0.1027 -0.6347  0.2578
   80CHL1   H20 8377   3.133   1.942   7.922  0.7978  0.1788 -1.8167
   80CHL1   C21 8378   3.156   1.734   7.865  0.2440  0.1092  0.4809
   80CHL1  H21A 8379   3.103   1.660   7.801  1.2131  0.1378 -0.3786
   80CHL1  H21B 8380   3.184   1.685   7.960 -1.1056  0.0062  0.8531
   80CHL1  H21C 8381   3.246   1.752   7.802  0.5137  0.0598  0.8526
   80CHL1   C22 8382   2.940   1.854   7.956 -0.6314  0.2320  0.1233
   80CHL1  H22A 8383   2.910   1.958   7.977 -0.6182  0.7474 -2.2232
   80CHL1  H22B 8384   2.860   1.799   7.901 -0.2991  1.4194 -1.6169
   80CHL1   C23 8385   2.947   1.785   8.090  1.2737  0.3574 -0.9854
   80CHL1  H23A 8386   2.945   1.674   8.080 -0.3163  0.5075 -2.7021
   80CHL1  H23B 8387   3.050   1.807   8.127  0.7728 -1.7367  2.1101
   80CHL1   C24 8388   2.836   1.842   8.179  0.4019 -0.4431 -0.0457
   80CHL1  H24A 8389   2.820   1.946   8.143 -0.4531 -0.9475 -1.1860
   80CHL1  H24B 8390   2.737   1.794   8.165  0.2447  0.1913 -1.2389
   80CHL1   C25 8391   2.865   1.836   8.328 -0.2040  0.4001 -0.4218
   80CHL1   H25 8392   2.969   1.873   8.340 -0.4335  1.8853 -2.4620
   80CHL1   C26 8393   2.757   1.909   8.408  0.4350 -0.3702 -0.9291
   80CHL1  H26A 8394   2.771   1.891   8.517  0.3106 -1.3259 -1.0617
   80CHL1  H26B 8395   2.762   2.019   8.401 -1.8487 -0.1292  0.4293
   80CHL1  H26C 8396   2.653   1.881   8.383 -0.4983  2.2292 -0.1806
   80CHL1   C27 8397   2.865   1.689   8.363  0.3105 -0.4349  0.0468
   80CHL1  H27A 8398   2.950   1.642   8.309  0.2761 -1.2481  0.6839
   80CHL1  H27B 8399   2.878   1.673   8.472  0.2369 -0.0717  0.1101
   80CHL1  H27C 8400   2.773   1.635   8.331 -0.1015  0.3378 -0.0756
   81CHL1    C3 8401   1.759   6.618   6.826 -0.1148  0.0587  0.6219
   81CHL1    H3 8402   1.671   6.558   6.857 -1.6460  1.9827  0.2194
   81CHL1    O3 8403   1.753   6.646   6.688  0.1473  0.0144 -0.3588
   81CHL1   H3' 8404   1.808   6.586   6.638  0.5635  1.2476 -1.4211
   81CHL1    C4 8405   1.775   6.755   6.895 -0.3678 -0.2779 -0.6259
   81CHL1   H4A 8406   1.870   6.802   6.861  1.4739 -0.8108  3.2142
   81CHL1   H4B 8407   1.687   6.814   6.861 -2.1144 -2.7431 -0.6235
   81CHL1    C5 8408   1.767   6.750   7.046 -0.1408  0.2350 -0.0787
   81CHL1    C6 8409   1.674   6.816   7.115 -0.1916 -0.4326 -0.9335
   81CHL1    H6 8410   1.600   6.882   7.069  0.4251  0.2566 -0.9580
   81CHL1    C7 8411   1.658   6.819   7.269 -0.7624  0.7864 -0.5196
   81CHL1   H7A 8412   1.628   6.919   7.307 -1.0057  0.7594 -0.6419
   81CHL1   H7B 8413   1.568   6.757   7.289  0.7125 -1.1599  0.4245
   81CHL1    C8 8414   1.786   6.750   7.331  0.0396 -0.5375  0.1638
   81CHL1    H8 8415   1.865   6.828   7.339 -0.4164 -0.1611  1.1654
   81CHL1   C14 8416   1.749   6.705   7.479 -0.5465 -0.3575  0.2857
   81CHL1   H14 8417   1.668   6.632   7.456 -0.0153  0.0054 -3.4039
   81CHL1   C15 8418   1.697   6.809   7.578 -0.0878  0.2664  0.3558
   81CHL1  H15A 8419   1.754   6.903   7.559 -0.6258  0.8428  1.4890
   81CHL1  H15B 8420   1.591   6.843   7.576 -0.7376 -1.4838  1.7514
   81CHL1   C16 8421   1.722   6.750   7.719 -0.3607  0.2033  0.0479
   81CHL1  H16A 8422   1.779   6.824   7.779 -0.7429  1.0371 -0.6067
   81CHL1  H16B 8423   1.627   6.710   7.760 -0.7087  0.3553 -0.6051
   81CHL1   C17 8424   1.809   6.615   7.696 -0.1965  0.0978 -0.2615
   81CHL1   H17 8425   1.729   6.538   7.698 -1.9096  1.8085  0.9525
   81CHL1   C13 8426   1.862   6.631   7.546 -0.2080 -0.5097 -0.3058
   81CHL1   C18 8427   1.986   6.721   7.572 -0.6251 -0.2828  0.2096
   81CHL1  H18A 8428   2.063   6.647   7.603 -1.6259 -1.6614 -0.5132
   81CHL1  H18B 8429   2.031   6.770   7.483 -1.6098  0.4670  0.1058
   81CHL1  H18C 8430   1.976   6.790   7.659  1.0988 -0.8183  0.8775
   81CHL1   C12 8431   1.889   6.504   7.457 -0.2227 -1.0701  0.1897
   81CHL1  H12A 8432   1.963   6.435   7.504 -0.5116 -1.2161  0.4383
   81CHL1  H12B 8433   1.793   6.448   7.448 -0.5377 -0.3343 -1.4374
   81CHL1   C11 8434   1.943   6.534   7.316  0.5294  0.2438 -0.3090
   81CHL1  H11A 8435   2.043   6.580   7.334  0.8781 -1.2507  1.8391
   81CHL1  H11B 8436   1.970   6.439   7.266  1.4918 -1.4987  3.2177
   81CHL1    C9 8437   1.836   6.621   7.252  0.3247 -0.0943  0.5772
   81CHL1    H9 8438   1.746   6.559   7.232  1.3873 -1.1268 -1.3209
   81CHL1   C10 8439   1.867   6.663   7.100  0.0353  0.6040  0.4943
   81CHL1   C19 8440   1.997   6.752   7.086  0.1809 -0.4387  0.2748
   81CHL1  H19A 8441   2.040   6.759   6.984 -0.9196  0.6526 -0.1411
   81CHL1  H19B 8442   1.976   6.859   7.109  0.5970  0.3303 -2.5690
   81CHL1  H19C 8443   2.083   6.713   7.146  1.3088 -1.3585 -1.8324
   81CHL1    C1 8444   1.882   6.533   7.022  0.3173  0.5299  1.0508
   81CHL1   H1A 8445   1.981   6.494   7.055  2.4631  1.8814 -3.0695
   81CHL1   H1B 8446   1.801   6.466   7.058  0.5300 -0.2583  0.0995
   81CHL1    C2 8447   1.885   6.539   6.871 -0.1117 -0.3597  0.4315
   81CHL1   H2A 8448   1.889   6.443   6.816  0.2049  0.3034 -0.7391
   81CHL1   H2B 8449   1.981   6.592   6.849 -0.5364  0.4201  0.4350
   81CHL1   C20 8450   1.899   6.583   7.820  0.8604  0.7548  0.0969
   81CHL1   H20 8451   1.974   6.664   7.830  0.6416  0.9882 -0.1732
   81CHL1   C21 8452   1.984   6.457   7.787  0.6972 -0.1889  0.4672
   81CHL1  H21A 8453   2.031   6.463   7.687 -3.4634 -1.0244 -1.7747
   81CHL1  H21B 8454   1.916   6.371   7.767 -1.1011  1.8577 -3.2487
   81CHL1  H21C 8455   2.055   6.434   7.870  0.5635 -4.8611 -0.4285
   81CHL1   C22 8456   1.807   6.580   7.944  0.5759  0.1615 -0.2053
   81CHL1  H22A 8457   1.763   6.681   7.959  1.1556  0.2720  0.8854
   81CHL1  H22B 8458   1.722   6.513   7.918 -0.1652  0.4416  1.3858
   81CHL1   C23 8459   1.875   6.529   8.063 -0.0542  0.0138 -0.4009
   81CHL1  H23A 8460   1.799   6.509   8.142 -0.9923 -1.9869 -1.7309
   81CHL1  H23B 8461   1.928   6.433   8.045  1.5397  0.2116  2.5437
   81CHL1   C24 8462   1.972   6.632   8.117  0.6563 -0.1507 -0.4147
   81CHL1  H24A 8463   2.059   6.650   8.050  1.0259 -2.5681 -0.6663
   81CHL1  H24B 8464   1.908   6.719   8.143 -1.1100 -1.4082 -0.3516
   81CHL1   C25 8465   2.024   6.590   8.261 -0.1653 -0.6659  0.7270
   81CHL1   H25 8466   2.096   6.675   8.268  1.0039 -1.5725  0.0474
   81CHL1   C26 8467   1.921   6.592   8.366  0.2521  0.1586  0.7783
   81CHL1  H26A 8468   1.982   6.571   8.456  0.9297  0.5676  0.4219
   81CHL1  H26B 8469   1.875   6.692   8.377 -0.6711 -0.3622  1.8382
   81CHL1  H26C 8470   1.843   6.515   8.352  0.1810  0.6201 -1.8014
   81CHL1   C27 8471   2.101   6.460   8.268 -0.0125  0.7907 -0.7009
   81CHL1  H27A 8472   2.191   6.468   8.204 -0.2125  0.6968 -0.9998
   81CHL1  H27B 8473   2.128   6.452   8.375 -2.0851  0.7256 -0.1379
   81CHL1  H27C 8474   2.027   6.382   8.241 -1.5233  2.4388 -1.5317
   82CHL1    C3 8475   2.839   3.558   7.063 -0.3554  0.1143 -0.5842
   82CHL1    H3 8476   2.866   3.659   7.100  1.2503  0.3751 -2.2643
   82CHL1    O3 8477   2.755   3.554   6.947 -0.0673 -0.6133  0.4008
   82CHL1   H3' 8478   2.811   3.600   6.885  1.7483 -1.4367  1.3706
   82CHL1    C4 8479   2.962   3.475   7.037 -0.1000 -0.2858  0.1526
   82CHL1   H4A 8480   2.934   3.378   6.991  0.7524  0.4101 -1.9248
   82CHL1   H4B 8481   3.015   3.517   6.949  0.9000  2.3475  1.8605
   82CHL1    C5 8482   3.048   3.464   7.161 -0.3339  0.0334  0.3244
   82CHL1    C6 8483   3.176   3.504   7.171  1.0168 -0.1647  0.5552
   82CHL1    H6 8484   3.225   3.541   7.079 -2.0584  0.0406 -1.1272
   82CHL1    C7 8485   3.257   3.475   7.288 -0.7638 -0.0008 -0.3506
   82CHL1   H7A 8486   3.360   3.442   7.266 -0.7512 -0.7737  0.7927
   82CHL1   H7B 8487   3.271   3.568   7.347 -1.6525 -1.0847  1.6744
   82CHL1    C8 8488   3.200   3.373   7.391 -0.1969 -0.4555 -0.3809
   82CHL1    H8 8489   3.215   3.274   7.343  1.5469  0.8368 -2.6768
   82CHL1   C14 8490   3.274   3.367   7.523 -0.1701  0.2444 -0.2184
   82CHL1   H14 8491   3.268   3.471   7.562 -3.5411 -0.5425  1.7440
   82CHL1   C15 8492   3.424   3.345   7.528  0.0719  0.0391  0.6704
   82CHL1  H15A 8493   3.451   3.263   7.458 -0.4218  0.1985  0.2908
   82CHL1  H15B 8494   3.490   3.429   7.501  0.1887 -0.0730  0.6079
   82CHL1   C16 8495   3.456   3.307   7.669 -0.1249  0.0229 -0.3505
   82CHL1  H16A 8496   3.508   3.209   7.678 -0.2600  0.0023  0.2327
   82CHL1  H16B 8497   3.518   3.386   7.716  1.1529  0.0144 -1.9219
   82CHL1   C17 8498   3.316   3.295   7.742  0.0303 -0.0408 -0.9407
   82CHL1   H17 8499   3.302   3.396   7.785  0.2461  0.2949 -1.6476
   82CHL1   C13 8500   3.210   3.281   7.634  0.5402  0.2334  0.7271
   82CHL1   C18 8501   3.212   3.126   7.597 -0.4424  0.4143 -0.2599
   82CHL1  H18A 8502   3.319   3.095   7.592 -0.8912 -1.3224  0.2216
   82CHL1  H18B 8503   3.170   3.059   7.675 -1.2642  1.1877 -0.0247
   82CHL1  H18C 8504   3.164   3.102   7.500 -0.6968  2.1400 -0.5842
   82CHL1   C12 8505   3.069   3.337   7.661  1.0178 -0.0904  0.1833
   82CHL1  H12A 8506   3.034   3.265   7.738  0.3917 -1.8597 -1.6703
   82CHL1  H12B 8507   3.076   3.437   7.708  1.0067 -0.2955  0.6188
   82CHL1   C11 8508   2.984   3.325   7.530  0.3561  0.3072  0.0836
   82CHL1  H11A 8509   2.963   3.218   7.508 -2.1527  0.3659  1.8168
   82CHL1  H11B 8510   2.888   3.374   7.555 -0.0641 -0.2929 -0.3100
   82CHL1    C9 8511   3.052   3.404   7.415  0.6740 -0.4217  0.0381
   82CHL1    H9 8512   3.042   3.507   7.454  0.2642  0.0779 -1.3472
   82CHL1   C10 8513   2.974   3.396   7.283  0.7267 -0.7305 -0.6006
   82CHL1   C19 8514   2.936   3.252   7.257 -0.6195  0.3483 -0.2906
   82CHL1  H19A 8515   3.024   3.188   7.285 -0.2200  1.3137  0.7346
   82CHL1  H19B 8516   2.854   3.214   7.321  1.2607  0.6003  2.4808
   82CHL1  H19C 8517   2.908   3.242   7.150  0.0479 -2.5834 -0.2775
   82CHL1    C1 8518   2.842   3.478   7.302  0.2621  1.0125 -0.0721
   82CHL1   H1A 8519   2.778   3.439   7.385 -1.3802  0.1159 -1.6894
   82CHL1   H1B 8520   2.869   3.582   7.329  0.0940  1.1372 -0.3757
   82CHL1    C2 8521   2.759   3.485   7.175 -0.2157 -0.4152 -0.2790
   82CHL1   H2A 8522   2.667   3.543   7.198 -0.3349 -0.8073  0.2558
   82CHL1   H2B 8523   2.711   3.388   7.148 -1.6543  0.8203 -2.4742
   82CHL1   C20 8524   3.325   3.208   7.869  0.5904 -0.1385 -0.4527
   82CHL1   H20 8525   3.330   3.106   7.826  1.6352 -0.3804  0.1963
   82CHL1   C21 8526   3.186   3.208   7.950 -0.2198  0.7522 -0.3722
   82CHL1  H21A 8527   3.194   3.158   8.048 -0.3017 -0.2015 -0.8415
   82CHL1  H21B 8528   3.110   3.143   7.901 -0.0455 -0.1664  0.5445
   82CHL1  H21C 8529   3.160   3.314   7.967  0.9584  0.9042  0.6026
   82CHL1   C22 8530   3.446   3.237   7.957  0.3242  0.0063 -0.2538
   82CHL1  H22A 8531   3.546   3.226   7.910  1.2462  1.6385  1.1703
   82CHL1  H22B 8532   3.436   3.345   7.982 -1.4410 -0.1043 -0.3856
   82CHL1   C23 8533   3.446   3.176   8.095 -0.3537 -0.1850 -0.4528
   82CHL1  H23A 8534   3.376   3.233   8.159  0.1942  0.2463 -0.2305
   82CHL1  H23B 8535   3.413   3.070   8.099  1.6922 -1.0897 -3.4604
   82CHL1   C24 8536   3.586   3.176   8.144 -0.3432  0.1008 -0.4157
   82CHL1  H24A 8537   3.594   3.123   8.241  2.1601 -0.8827 -1.1032
   82CHL1  H24B 8538   3.639   3.109   8.073 -2.0559 -1.2165 -0.5346
   82CHL1   C25 8539   3.656   3.319   8.158  0.0720 -0.5636  0.2555
   82CHL1   H25 8540   3.651   3.372   8.060  0.5094 -0.4747  0.2781
   82CHL1   C26 8541   3.581   3.417   8.253 -0.4624  0.9527  0.4868
   82CHL1  H26A 8542   3.593   3.366   8.351  1.3908  1.9842  0.8335
   82CHL1  H26B 8543   3.614   3.522   8.261  0.8435  0.5458  0.6768
   82CHL1  H26C 8544   3.472   3.412   8.232 -0.3371  0.1395 -0.0191
   82CHL1   C27 8545   3.811   3.319   8.203 -0.5599  0.0512 -0.2469
   82CHL1  H27A 8546   3.869   3.247   8.141 -0.8520  0.8755 -1.5165
   82CHL1  H27B 8547   3.851   3.420   8.184 -1.5954  0.4651 -0.2840
   82CHL1  H27C 8548   3.813   3.290   8.310 -2.4700 -0.3541 -0.2761
   83CHL1    C3 8549   0.052   2.641   7.120  0.4614 -0.0713  0.0667
   83CHL1    H3 8550   0.120   2.726   7.146  1.2773 -1.0402  1.1814
   83CHL1    O3 8551   0.061   2.621   6.985 -0.0355  0.3922  0.0002
   83CHL1   H3' 8552   0.015   2.538   6.994 -0.8646  1.0339  2.4316
   83CHL1    C4 8553   0.102   2.524   7.204 -0.1992  0.2736  0.1324
   83CHL1   H4A 8554   0.074   2.424   7.165 -0.8643 -0.4005  2.2266
   83CHL1   H4B 8555   0.211   2.504   7.188 -0.1541  0.3601  0.3252
   83CHL1    C5 8556   0.085   2.522   7.353  0.4147 -0.2426 -0.1566
   83CHL1    C6 8557   0.180   2.513   7.447  0.0568 -0.5579  0.4276
   83CHL1    H6 8558   0.285   2.504   7.414 -0.1092 -0.3188 -0.1796
   83CHL1    C7 8559   0.151   2.515   7.596 -0.5628 -0.6829  0.4066
   83CHL1   H7A 8560   0.193   2.417   7.628 -1.1556 -2.1999 -3.0453
   83CHL1   H7B 8561   0.199   2.604   7.644 -0.0134 -1.3229  1.0790
   83CHL1    C8 8562  -0.001   2.501   7.630  0.3737 -0.4343  0.0166
   83CHL1    H8 8563  -0.024   2.397   7.599 -1.5302  0.3139 -1.2880
   83CHL1   C14 8564  -0.023   2.538   7.778 -0.2800  0.4769 -0.7768
   83CHL1   H14 8565  -0.008   2.648   7.780 -0.4725  0.4960 -0.0865
   83CHL1   C15 8566   0.073   2.481   7.885  0.2215  0.2794  0.5315
   83CHL1  H15A 8567   0.087   2.375   7.855 -0.7682  0.4249 -0.4870
   83CHL1  H15B 8568   0.168   2.538   7.894  0.8071 -0.7980  1.3413
   83CHL1   C16 8569  -0.013   2.480   8.015 -0.3227 -0.0764 -0.0812
   83CHL1  H16A 8570  -0.016   2.373   8.043  0.4318 -0.0866 -0.0037
   83CHL1  H16B 8571   0.047   2.528   8.096 -0.8896  1.5270 -0.5605
   83CHL1   C17 8572  -0.146   2.551   7.972  0.7132  1.1309  0.5513
   83CHL1   H17 8573  -0.127   2.660   7.985  0.9399  1.1604 -0.0074
   83CHL1   C13 8574  -0.159   2.519   7.822  0.4774 -0.1044 -0.4782
   83CHL1   C18 8575  -0.198   2.371   7.804 -0.5353  0.0777  0.4655
   83CHL1  H18A 8576  -0.307   2.362   7.822 -0.9106  2.0859 -0.5205
   83CHL1  H18B 8577  -0.192   2.333   7.700  0.4092 -1.4545  1.0385
   83CHL1  H18C 8578  -0.138   2.308   7.874  1.8165  0.4306 -1.1074
   83CHL1   C12 8579  -0.253   2.608   7.737 -0.8965 -0.3930 -0.1436
   83CHL1  H12A 8580  -0.358   2.603   7.774 -0.5482  1.3587  1.1963
   83CHL1  H12B 8581  -0.220   2.713   7.753 -2.8883  0.0264  1.6038
   83CHL1   C11 8582  -0.238   2.586   7.582 -0.2183 -0.4530 -0.9147
   83CHL1  H11A 8583  -0.277   2.483   7.567 -1.5641 -0.1551  0.3291
   83CHL1  H11B 8584  -0.292   2.667   7.528 -0.6404 -0.1948 -0.1259
   83CHL1    C9 8585  -0.085   2.589   7.540  0.5591 -0.2821  0.0019
   83CHL1    H9 8586  -0.044   2.691   7.553 -1.2080  0.5988 -0.8203
   83CHL1   C10 8587  -0.062   2.560   7.392 -0.6784 -0.3928  0.2985
   83CHL1   C19 8588  -0.155   2.442   7.351  0.2214  0.3530 -0.8581
   83CHL1  H19A 8589  -0.150   2.362   7.428 -0.1307 -0.8193 -2.0204
   83CHL1  H19B 8590  -0.262   2.471   7.338  0.3992  0.3460 -2.5287
   83CHL1  H19C 8591  -0.125   2.385   7.260  2.3747  0.3974 -0.2230
   83CHL1    C1 8592  -0.102   2.687   7.310  0.2598 -0.5012  0.1026
   83CHL1   H1A 8593  -0.211   2.706   7.320 -0.0893 -1.1165 -2.1057
   83CHL1   H1B 8594  -0.049   2.775   7.352 -0.1345 -1.2882  2.4011
   83CHL1    C2 8595  -0.081   2.680   7.162  0.6686 -0.6988 -0.4245
   83CHL1   H2A 8596  -0.118   2.769   7.107 -0.9850 -1.4383 -0.6028
   83CHL1   H2B 8597  -0.152   2.599   7.132 -0.1699 -0.1853  0.1337
   83CHL1   C20 8598  -0.262   2.499   8.061 -0.0572 -0.2279 -0.0252
   83CHL1   H20 8599  -0.261   2.389   8.046  0.7832 -0.0108 -1.7017
   83CHL1   C21 8600  -0.400   2.556   8.017  0.7702 -0.5275 -0.4186
   83CHL1  H21A 8601  -0.469   2.541   8.103  0.5122  0.6793 -0.3989
   83CHL1  H21B 8602  -0.431   2.485   7.937  0.4120 -2.3717  1.2748
   83CHL1  H21C 8603  -0.403   2.663   7.990 -4.8164 -0.4255 -0.6664
   83CHL1   C22 8604  -0.239   2.523   8.212 -0.7955  0.2110  0.0611
   83CHL1  H22A 8605  -0.157   2.451   8.233  1.0297  0.9288 -3.7280
   83CHL1  H22B 8606  -0.197   2.625   8.230  1.1523 -0.3195 -1.1358
   83CHL1   C23 8607  -0.354   2.495   8.306  0.3114  0.2745  0.5576
   83CHL1  H23A 8608  -0.413   2.589   8.305  0.0161  0.1195  1.9670
   83CHL1  H23B 8609  -0.418   2.410   8.274 -0.6947  0.7452  1.2676
   83CHL1   C24 8610  -0.290   2.465   8.443 -0.3548  0.0230  0.4705
   83CHL1  H24A 8611  -0.230   2.373   8.425 -1.5276 -0.6090 -0.3486
   83CHL1  H24B 8612  -0.225   2.551   8.470  0.9176  0.5273 -3.6113
   83CHL1   C25 8613  -0.394   2.428   8.556  0.0080 -0.6467  0.3580
   83CHL1   H25 8614  -0.470   2.360   8.511 -0.2718  1.2409 -2.2843
   83CHL1   C26 8615  -0.320   2.349   8.672  0.1212 -0.5246  0.5094
   83CHL1  H26A 8616  -0.259   2.267   8.630  2.6366  2.2307 -1.6814
   83CHL1  H26B 8617  -0.258   2.423   8.727  0.1265  0.2614 -0.5318
   83CHL1  H26C 8618  -0.400   2.304   8.735 -0.0990 -1.7792 -0.6240
   83CHL1   C27 8619  -0.468   2.555   8.617 -0.2912 -0.4109  0.1044
   83CHL1  H27A 8620  -0.537   2.601   8.542  0.5201  0.7184  0.0192
   83CHL1  H27B 8621  -0.527   2.532   8.708 -2.1099  4.8276  0.5802
   83CHL1  H27C 8622  -0.402   2.642   8.640 -0.0018 -0.7431  0.5447
   84CHL1    C3 8623   1.256   0.715   6.936  0.5387  0.6886 -0.0577
   84CHL1    H3 8624   1.145   0.727   6.932  0.4687  0.9341  1.6817
   84CHL1    O3 8625   1.308   0.704   6.803 -0.2006  0.7595 -0.1257
   84CHL1   H3' 8626   1.397   0.736   6.818  1.2751 -2.6830 -0.5308
   84CHL1    C4 8627   1.314   0.841   6.993 -0.2831  0.1609 -1.1719
   84CHL1   H4A 8628   1.425   0.838   6.990 -0.2362 -1.7955  0.5744
   84CHL1   H4B 8629   1.276   0.924   6.929 -1.1989  0.0902 -0.7225
   84CHL1    C5 8630   1.266   0.859   7.134 -0.1464 -0.3233 -0.0384
   84CHL1    C6 8631   1.196   0.967   7.173  0.4414  0.3477  0.0682
   84CHL1    H6 8632   1.175   1.051   7.105 -2.3546 -0.1076  0.2763
   84CHL1    C7 8633   1.146   0.998   7.311  0.5502 -0.2345  0.1845
   84CHL1   H7A 8634   1.166   1.105   7.332 -1.7541  0.4253 -0.6399
   84CHL1   H7B 8635   1.036   0.981   7.308  0.1445  2.1330 -0.8703
   84CHL1    C8 8636   1.202   0.903   7.418 -0.7270 -0.3315  0.7529
   84CHL1    H8 8637   1.306   0.941   7.434 -1.8230  2.4241  1.8312
   84CHL1   C14 8638   1.130   0.913   7.548 -0.1775  0.4375  0.6156
   84CHL1   H14 8639   1.033   0.864   7.527 -0.0743 -0.1135  1.3775
   84CHL1   C15 8640   1.092   1.050   7.595  0.4258 -0.1191 -0.0677
   84CHL1  H15A 8641   1.160   1.130   7.558 -0.1700 -0.7607 -2.7621
   84CHL1  H15B 8642   0.991   1.079   7.558  1.0669  1.4902 -0.6953
   84CHL1   C16 8643   1.098   1.041   7.749 -0.3428 -0.4605  0.3020
   84CHL1  H16A 8644   1.192   1.096   7.771  0.2766 -1.0526 -0.8289
   84CHL1  H16B 8645   1.013   1.090   7.803  0.6797  1.3440  0.3574
   84CHL1   C17 8646   1.116   0.894   7.788  0.0703 -0.0214  0.1520
   84CHL1   H17 8647   1.020   0.838   7.789  0.1587 -0.1734  0.1149
   84CHL1   C13 8648   1.189   0.834   7.660  0.4249 -0.0183 -0.4447
   84CHL1   C18 8649   1.342   0.863   7.681  0.2805  0.4525  0.2988
   84CHL1  H18A 8650   1.379   0.794   7.760 -0.5761 -0.0640  0.2609
   84CHL1  H18B 8651   1.390   0.845   7.582  0.0148  0.5154  0.1556
   84CHL1  H18C 8652   1.355   0.970   7.707  0.2277  0.8275 -1.1008
   84CHL1   C12 8653   1.163   0.683   7.617 -0.0773  0.8353 -0.2195
   84CHL1  H12A 8654   1.205   0.615   7.694  1.5817 -0.4233 -2.1180
   84CHL1  H12B 8655   1.056   0.652   7.618  1.2085 -4.8150  1.2889
   84CHL1   C11 8656   1.224   0.659   7.478 -0.2154  1.0330  0.5606
   84CHL1  H11A 8657   1.333   0.657   7.495  0.1273  1.8727 -1.2950
   84CHL1  H11B 8658   1.207   0.553   7.448  2.5693  0.5166  0.5574
   84CHL1    C9 8659   1.201   0.759   7.365 -0.0151 -0.3859  0.3417
   84CHL1    H9 8660   1.095   0.741   7.339 -0.0008  0.2340 -0.1832
   84CHL1   C10 8661   1.294   0.741   7.239  0.0901  0.1683  0.9482
   84CHL1   C19 8662   1.446   0.731   7.279  0.2838  0.0786  0.2031
   84CHL1  H19A 8663   1.508   0.744   7.188 -0.8395 -0.2398 -0.6263
   84CHL1  H19B 8664   1.475   0.815   7.346  0.3070  2.1404 -2.2196
   84CHL1  H19C 8665   1.471   0.638   7.333  0.3905  1.6806  3.0889
   84CHL1    C1 8666   1.253   0.605   7.165  0.4992 -0.6886  0.1579
   84CHL1   H1A 8667   1.284   0.518   7.227  1.3625  0.6749  1.7012
   84CHL1   H1B 8668   1.142   0.613   7.165  0.6367  4.8769 -0.2166
   84CHL1    C2 8669   1.296   0.593   7.018  0.6749 -0.2071  0.3573
   84CHL1   H2A 8670   1.267   0.497   6.970  0.1851  0.2263 -0.2235
   84CHL1   H2B 8671   1.406   0.581   7.012  0.7097  0.1279  0.3392
   84CHL1   C20 8672   1.177   0.877   7.932  0.2421 -0.5180  0.4256
   84CHL1   H20 8673   1.280   0.918   7.929  0.5646 -1.3063  0.4541
   84CHL1   C21 8674   1.187   0.717   7.955  0.2650 -0.0030 -0.2671
   84CHL1  H21A 8675   1.249   0.671   7.876 -1.8496 -1.1168 -1.3373
   84CHL1  H21B 8676   1.083   0.680   7.956  0.6594 -1.1695 -0.4933
   84CHL1  H21C 8677   1.231   0.678   8.049  0.6635 -1.1436 -0.9087
   84CHL1   C22 8678   1.102   0.952   8.046  0.2146 -0.7906 -0.8727
   84CHL1  H22A 8679   1.144   0.929   8.146 -1.7769 -0.1531  0.1878
   84CHL1  H22B 8680   1.097   1.062   8.032 -2.7908 -1.0239 -2.5824
   84CHL1   C23 8681   0.955   0.895   8.072  0.0344  0.4088  0.3102
   84CHL1  H23A 8682   0.887   0.929   7.991  0.1684  1.9346  0.7953
   84CHL1  H23B 8683   0.958   0.784   8.069 -1.5585  0.3709 -0.3606
   84CHL1   C24 8684   0.894   0.947   8.212 -0.4767 -0.3612 -0.2711
   84CHL1  H24A 8685   0.957   0.925   8.301  0.9357  0.2837 -1.0783
   84CHL1  H24B 8686   0.888   1.058   8.212 -2.0269 -0.4143  0.3374
   84CHL1   C25 8687   0.746   0.906   8.235 -0.3421 -0.2425 -0.1548
   84CHL1   H25 8688   0.732   0.798   8.213  0.3620 -0.1896 -0.8977
   84CHL1   C26 8689   0.699   0.921   8.382 -0.3136 -0.4266 -0.2885
   84CHL1  H26A 8690   0.765   0.856   8.443  3.1755  1.3556 -1.8563
   84CHL1  H26B 8691   0.703   1.025   8.421 -2.0751 -1.0818  1.7991
   84CHL1  H26C 8692   0.595   0.881   8.388 -0.3116 -0.2871  1.0207
   84CHL1   C27 8693   0.648   0.973   8.138 -0.7267  0.2916  0.7304
   84CHL1  H27A 8694   0.660   0.945   8.031  0.2062 -1.0633  1.1723
   84CHL1  H27B 8695   0.545   0.942   8.169 -0.2800  0.2655  2.2677
   84CHL1  H27C 8696   0.653   1.082   8.156 -1.7560  0.6732 -1.0724
   85CHL1    C3 8697   2.223   5.707   6.906  0.3320  0.6175  0.9094
   85CHL1    H3 8698   2.334   5.708   6.898  0.2572  1.6665 -0.3697
   85CHL1    O3 8699   2.172   5.701   6.778 -0.5312  0.0758  0.4161
   85CHL1   H3' 8700   2.192   5.779   6.726 -0.6959  1.0843  1.8324
   85CHL1    C4 8701   2.181   5.578   6.972  0.0098 -0.1032  0.3001
   85CHL1   H4A 8702   2.070   5.572   6.970  0.0505 -1.8331 -1.9915
   85CHL1   H4B 8703   2.203   5.487   6.911  0.7968  0.2477  0.0574
   85CHL1    C5 8704   2.243   5.575   7.107 -0.0985  0.1156 -0.1492
   85CHL1    C6 8705   2.323   5.472   7.148 -0.3664  0.2223  0.7342
   85CHL1    H6 8706   2.348   5.390   7.079  2.6380  0.9007  0.8757
   85CHL1    C7 8707   2.378   5.465   7.286  0.2986  0.1771 -0.3144
   85CHL1   H7A 8708   2.341   5.366   7.320  0.4711  0.0149 -0.5930
   85CHL1   H7B 8709   2.488   5.469   7.294  0.2403  1.2906  0.0849
   85CHL1    C8 8710   2.313   5.567   7.383  0.3290  0.2210  0.3166
   85CHL1    H8 8711   2.212   5.525   7.406  0.7519  0.0333  1.9749
   85CHL1   C14 8712   2.402   5.572   7.503 -0.3053  0.5317  0.0900
   85CHL1   H14 8713   2.502   5.597   7.461  0.0774 -0.2977  0.4866
   85CHL1   C15 8714   2.436   5.440   7.584 -0.1463 -0.1283  0.0020
   85CHL1  H15A 8715   2.346   5.374   7.587  0.5047 -1.0534 -0.1101
   85CHL1  H15B 8716   2.518   5.380   7.539 -2.0807 -3.6907  0.7530
   85CHL1   C16 8717   2.471   5.489   7.726  0.3753  0.2433  0.0292
   85CHL1  H16A 8718   2.399   5.433   7.789  0.5524 -0.8543 -0.7250
   85CHL1  H16B 8719   2.571   5.447   7.751 -1.1556 -3.4133  0.5717
   85CHL1   C17 8720   2.457   5.644   7.722 -0.5206 -0.0003  0.0432
   85CHL1   H17 8721   2.551   5.687   7.682 -0.3598 -0.5156 -0.1364
   85CHL1   C13 8722   2.360   5.678   7.615 -0.2654  0.4443  0.0630
   85CHL1   C18 8723   2.215   5.634   7.649  0.1346 -0.4053 -0.0543
   85CHL1  H18A 8724   2.177   5.682   7.742 -1.6934 -0.1155 -0.9027
   85CHL1  H18B 8725   2.150   5.667   7.564  1.3515 -0.2994 -0.9680
   85CHL1  H18C 8726   2.196   5.526   7.663  0.8383 -0.2467  2.5706
   85CHL1   C12 8727   2.380   5.824   7.559 -0.0688  0.2784 -0.3527
   85CHL1  H12A 8728   2.348   5.906   7.626  3.6072  0.7079  1.1006
   85CHL1  H12B 8729   2.484   5.848   7.531 -0.6579  2.3590 -0.8936
   85CHL1   C11 8730   2.290   5.826   7.425 -0.1740 -0.5684 -0.9137
   85CHL1  H11A 8731   2.183   5.828   7.457 -0.2137 -3.6272 -0.5897
   85CHL1  H11B 8732   2.301   5.922   7.370 -1.3394 -1.2523 -2.4018
   85CHL1    C9 8733   2.302   5.708   7.326 -0.0870  0.4359  0.1025
   85CHL1    H9 8734   2.403   5.732   7.286  0.7057 -0.3730  1.5209
   85CHL1   C10 8735   2.209   5.698   7.202 -0.5667  0.3487  0.1298
   85CHL1   C19 8736   2.059   5.684   7.255  0.2482 -0.2876  0.0207
   85CHL1  H19A 8737   1.988   5.697   7.170  0.6525 -1.7071 -0.5644
   85CHL1  H19B 8738   2.040   5.583   7.297  0.1942  0.9473  3.2195
   85CHL1  H19C 8739   2.031   5.766   7.324 -2.4645  1.1619 -2.5414
   85CHL1    C1 8740   2.224   5.835   7.117  0.0537  0.3728 -0.2597
   85CHL1   H1A 8741   2.178   5.913   7.182 -1.6384  0.6002 -1.6661
   85CHL1   H1B 8742   2.334   5.848   7.108  0.0410  0.6948  0.0052
   85CHL1    C2 8743   2.168   5.835   6.977 -0.1256  0.1839  0.2773
   85CHL1   H2A 8744   2.181   5.927   6.917 -1.0744  0.1684  0.0333
   85CHL1   H2B 8745   2.060   5.808   6.989 -0.3063 -0.2512 -1.8451
   85CHL1   C20 8746   2.430   5.711   7.855 -0.3624 -0.1982  0.3227
   85CHL1   H20 8747   2.355   5.789   7.830  0.1131 -0.0873 -0.8164
   85CHL1   C21 8748   2.561   5.774   7.902  0.8116  0.4133 -0.4392
   85CHL1  H21A 8749   2.630   5.691   7.927  2.6372  0.9565 -3.2518
   85CHL1  H21B 8750   2.546   5.839   7.991  1.8325  1.6490 -1.1295
   85CHL1  H21C 8751   2.603   5.838   7.821 -2.5802 -0.6547 -3.2363
   85CHL1   C22 8752   2.377   5.621   7.969 -0.4143  0.5066 -0.2177
   85CHL1  H22A 8753   2.274   5.585   7.946 -0.2897 -0.9681  1.3347
   85CHL1  H22B 8754   2.444   5.535   7.990 -1.5721 -0.4553 -0.3849
   85CHL1   C23 8755   2.332   5.704   8.103 -0.8895  0.2711  0.1529
   85CHL1  H23A 8756   2.420   5.711   8.170 -0.0133  0.9021 -1.0150
   85CHL1  H23B 8757   2.312   5.802   8.054 -1.8601 -1.1620 -2.5134
   85CHL1   C24 8758   2.207   5.647   8.164 -0.2709 -0.6339 -0.6624
   85CHL1  H24A 8759   2.118   5.672   8.103 -1.5756 -0.2036  1.3359
   85CHL1  H24B 8760   2.209   5.536   8.174 -4.2568 -0.7508  0.7757
   85CHL1   C25 8761   2.186   5.708   8.305 -0.7305  0.1988  0.4056
   85CHL1   H25 8762   2.215   5.811   8.275  0.8746 -1.0361 -2.8548
   85CHL1   C26 8763   2.043   5.690   8.350 -0.0505 -0.0858  0.0739
   85CHL1  H26A 8764   1.984   5.740   8.269  0.8228 -1.1098 -1.2450
   85CHL1  H26B 8765   2.018   5.581   8.354  1.1971 -0.3895 -0.1589
   85CHL1  H26C 8766   2.029   5.734   8.450  1.6148  0.1125  0.2394
   85CHL1   C27 8767   2.287   5.645   8.403  0.8436 -0.5094 -0.2006
   85CHL1  H27A 8768   2.397   5.655   8.390  0.9330  1.6501  1.4963
   85CHL1  H27B 8769   2.272   5.705   8.496 -0.9479 -2.9044  1.1630
   85CHL1  H27C 8770   2.267   5.538   8.422  0.4696 -0.4668 -0.3609
   86CHL1    C3 8771   2.138   4.461   6.629 -0.8308 -0.3424  0.4902
   86CHL1    H3 8772   2.240   4.503   6.621 -1.8251  1.9782 -1.0843
   86CHL1    O3 8773   2.083   4.437   6.499  0.5616  0.0593  0.1084
   86CHL1   H3' 8774   1.999   4.392   6.512  0.0101  0.8087 -0.7106
   86CHL1    C4 8775   2.129   4.323   6.706  0.2474 -0.6459 -0.0237
   86CHL1   H4A 8776   2.025   4.286   6.692 -0.3218  0.8795  0.0293
   86CHL1   H4B 8777   2.192   4.256   6.643  0.0164 -0.4904 -0.4268
   86CHL1    C5 8778   2.181   4.343   6.845 -0.1206  0.5516  0.3792
   86CHL1    C6 8779   2.290   4.275   6.884  0.1161 -0.3347 -0.0341
   86CHL1    H6 8780   2.332   4.201   6.814 -1.4774 -0.8303 -0.5150
   86CHL1    C7 8781   2.351   4.286   7.017 -0.4669  0.2305 -0.6220
   86CHL1   H7A 8782   2.394   4.186   7.040  1.4137  1.0553 -0.3021
   86CHL1   H7B 8783   2.437   4.357   7.019 -1.1224  1.1710 -2.6494
   86CHL1    C8 8784   2.251   4.343   7.126 -0.4808  0.3672 -0.0393
   86CHL1    H8 8785   2.174   4.264   7.139 -0.0674  0.1553  1.2418
   86CHL1   C14 8786   2.320   4.376   7.257  1.0298 -0.0987 -0.0729
   86CHL1   H14 8787   2.401   4.448   7.234  0.6023  0.5248  0.3518
   86CHL1   C15 8788   2.388   4.258   7.325 -0.2107 -0.7098 -0.3196
   86CHL1  H15A 8789   2.321   4.170   7.314 -0.7396 -0.0574 -3.2192
   86CHL1  H15B 8790   2.485   4.250   7.272 -0.6714 -0.6175 -1.1927
   86CHL1   C16 8791   2.400   4.298   7.475  0.1592 -0.0883  0.0906
   86CHL1  H16A 8792   2.345   4.239   7.551  0.8407  0.8774  1.3816
   86CHL1  H16B 8793   2.508   4.296   7.502 -0.3003  1.6541  2.3399
   86CHL1   C17 8794   2.334   4.442   7.482 -0.2423 -0.5430 -0.3153
   86CHL1   H17 8795   2.418   4.506   7.450  1.5198 -3.5097 -2.0437
   86CHL1   C13 8796   2.231   4.442   7.360  0.4771 -0.4114 -0.0646
   86CHL1   C18 8797   2.108   4.354   7.399 -0.3152 -0.1126  0.4511
   86CHL1  H18A 8798   2.066   4.376   7.500 -0.8100  1.2567 -0.0209
   86CHL1  H18B 8799   2.037   4.356   7.314  1.9466  1.2511 -1.5338
   86CHL1  H18C 8800   2.145   4.251   7.416  1.0450  0.1735 -0.5781
   86CHL1   C12 8801   2.200   4.580   7.301 -0.0771 -0.1208  0.3951
   86CHL1  H12A 8802   2.145   4.650   7.367 -0.7149  2.7440 -2.9224
   86CHL1  H12B 8803   2.291   4.636   7.273 -0.9887  0.7303 -0.9909
   86CHL1   C11 8804   2.120   4.557   7.169 -0.1666 -0.0189 -0.0002
   86CHL1  H11A 8805   2.019   4.513   7.188  0.3233 -1.4794 -0.6192
   86CHL1  H11B 8806   2.092   4.652   7.120  0.8698  0.6985  0.7526
   86CHL1    C9 8807   2.189   4.473   7.064 -0.1525  0.1725  0.7322
   86CHL1    H9 8808   2.273   4.542   7.037  0.6288 -0.8118  0.5841
   86CHL1   C10 8809   2.109   4.444   6.932  0.3705  0.8581 -0.1407
   86CHL1   C19 8810   1.974   4.384   6.986  0.0579 -0.2003  0.7664
   86CHL1  H19A 8811   1.983   4.302   7.060  0.2633 -0.1831  0.7607
   86CHL1  H19B 8812   1.917   4.471   7.026  0.0551  0.4532 -0.5795
   86CHL1  H19C 8813   1.914   4.349   6.899  1.8386  0.9693 -1.0046
   86CHL1    C1 8814   2.088   4.575   6.851  0.2869  0.3229 -0.7449
   86CHL1   H1A 8815   2.013   4.637   6.905  0.4095  0.3675 -0.6237
   86CHL1   H1B 8816   2.190   4.619   6.861  0.6757 -0.5592 -0.6853
   86CHL1    C2 8817   2.047   4.556   6.705  0.0631  0.1428  0.2089
   86CHL1   H2A 8818   2.056   4.651   6.647 -0.0368  1.1902  1.8272
   86CHL1   H2B 8819   1.945   4.512   6.699  0.5994 -1.3686  1.6380
   86CHL1   C20 8820   2.288   4.476   7.623 -0.0367  0.5724  0.0657
   86CHL1   H20 8821   2.195   4.424   7.654 -0.9677  1.1852 -1.5651
   86CHL1   C21 8822   2.241   4.622   7.623  0.0493  0.4180  0.7604
   86CHL1  H21A 8823   2.326   4.686   7.591 -0.0564 -0.4771 -1.5070
   86CHL1  H21B 8824   2.220   4.654   7.728  0.2068 -1.2032  1.3126
   86CHL1  H21C 8825   2.147   4.629   7.564  0.4420 -0.2027  0.0423
   86CHL1   C22 8826   2.407   4.446   7.721  0.3072  0.1219 -0.0684
   86CHL1  H22A 8827   2.430   4.337   7.728 -2.3664 -0.4556  1.5337
   86CHL1  H22B 8828   2.498   4.493   7.681 -0.0531  0.1512 -0.8691
   86CHL1   C23 8829   2.380   4.496   7.866 -0.0657  0.2382 -0.6444
   86CHL1  H23A 8830   2.393   4.606   7.854 -0.3972  0.4003  0.4664
   86CHL1  H23B 8831   2.275   4.469   7.887  0.2727 -0.9906 -0.4386
   86CHL1   C24 8832   2.483   4.430   7.956  0.7733  0.3608 -0.3193
   86CHL1  H24A 8833   2.480   4.323   7.928  1.8015  0.5734 -1.2862
   86CHL1  H24B 8834   2.584   4.467   7.927  0.6099 -0.2790 -1.7632
   86CHL1   C25 8835   2.459   4.459   8.115  0.1928  0.4178  0.9196
   86CHL1   H25 8836   2.354   4.432   8.141 -0.0956  2.9000  2.6193
   86CHL1   C26 8837   2.555   4.373   8.194  0.3360  0.2133  0.2277
   86CHL1  H26A 8838   2.495   4.331   8.278 -0.9416  1.1206 -0.2106
   86CHL1  H26B 8839   2.608   4.293   8.138  0.7228 -2.5925  4.1829
   86CHL1  H26C 8840   2.634   4.441   8.234 -1.3695  1.5241  1.5127
   86CHL1   C27 8841   2.463   4.604   8.153 -0.5200  0.5719  0.2546
   86CHL1  H27A 8842   2.565   4.646   8.143  0.0835 -1.0648 -0.7507
   86CHL1  H27B 8843   2.392   4.667   8.094 -1.1773 -0.7661 -0.4147
   86CHL1  H27C 8844   2.444   4.618   8.261 -1.6791  2.1580 -0.1053
   87CHL1    C3 8845   2.815   1.792   6.790  0.1915 -0.1727  0.3184
   87CHL1    H3 8846   2.826   1.681   6.788 -0.3394 -0.2294  0.4225
   87CHL1    O3 8847   2.857   1.860   6.669  0.3423 -0.0727 -0.2297
   87CHL1   H3' 8848   2.859   1.954   6.687  2.7282  0.0505 -0.8231
   87CHL1    C4 8849   2.676   1.833   6.840  0.1917  0.2415 -0.5575
   87CHL1   H4A 8850   2.683   1.944   6.833  1.9255  0.0901 -2.1400
   87CHL1   H4B 8851   2.601   1.814   6.760 -0.5890  1.7758 -0.2388
   87CHL1    C5 8852   2.643   1.777   6.978  0.6130 -0.8677  0.1329
   87CHL1    C6 8853   2.533   1.708   7.000  0.3039 -0.5152 -0.9455
   87CHL1    H6 8854   2.462   1.705   6.916  1.7383 -0.7155 -2.1863
   87CHL1    C7 8855   2.479   1.659   7.131  0.3175 -0.3868 -0.7934
   87CHL1   H7A 8856   2.374   1.692   7.149  0.8718  0.7549  0.5806
   87CHL1   H7B 8857   2.476   1.549   7.119 -1.5324 -0.2955 -1.4906
   87CHL1    C8 8858   2.560   1.708   7.255 -0.0797 -0.0728  0.3432
   87CHL1    H8 8859   2.521   1.811   7.268  0.7930  0.1251  1.5339
   87CHL1   C14 8860   2.537   1.626   7.384 -0.1709  0.2107  0.0068
   87CHL1   H14 8861   2.574   1.523   7.361  2.8493  1.2709 -0.2834
   87CHL1   C15 8862   2.400   1.607   7.446 -0.4960  0.9837 -0.7307
   87CHL1  H15A 8863   2.346   1.704   7.440 -1.0844  0.8887  1.8621
   87CHL1  H15B 8864   2.346   1.529   7.389  2.1671 -0.3485 -1.5859
   87CHL1   C16 8865   2.431   1.567   7.589 -0.1571 -0.0316  0.8790
   87CHL1  H16A 8866   2.374   1.639   7.653  2.1441  1.4525  1.4032
   87CHL1  H16B 8867   2.381   1.469   7.601 -2.6114  0.8384 -1.2701
   87CHL1   C17 8868   2.582   1.578   7.612  0.0443 -0.1667 -0.1983
   87CHL1   H17 8869   2.606   1.475   7.578 -1.3903 -0.1373 -1.3890
   87CHL1   C13 8870   2.630   1.671   7.500  0.5353  1.1368 -0.0921
   87CHL1   C18 8871   2.592   1.811   7.548 -0.2407 -0.2306 -0.0237
   87CHL1  H18A 8872   2.583   1.886   7.466 -1.7209  0.0698  0.3957
   87CHL1  H18B 8873   2.495   1.819   7.602 -0.5819  0.2146 -0.6899
   87CHL1  H18C 8874   2.665   1.854   7.621 -2.2369  2.8992  0.2934
   87CHL1   C12 8875   2.774   1.656   7.451  0.4533 -0.2865  0.2691
   87CHL1  H12A 8876   2.844   1.694   7.529 -0.3448  1.7354  0.0521
   87CHL1  H12B 8877   2.805   1.554   7.419 -1.8564 -1.1081  0.4484
   87CHL1   C11 8878   2.800   1.743   7.332 -0.6185 -0.0044  0.0458
   87CHL1  H11A 8879   2.773   1.848   7.354  1.0157  1.1541 -2.8302
   87CHL1  H11B 8880   2.907   1.734   7.306  0.1621 -1.4106  3.2821
   87CHL1    C9 8881   2.705   1.711   7.213 -0.3036  0.8218 -0.3246
   87CHL1    H9 8882   2.727   1.609   7.177  0.7302  1.2101 -0.8476
   87CHL1   C10 8883   2.743   1.794   7.092  0.5145 -0.1449 -0.0243
   87CHL1   C19 8884   2.736   1.944   7.124 -0.2498  0.0035 -0.1913
   87CHL1  H19A 8885   2.639   1.965   7.175 -0.0382 -0.7354  0.5402
   87CHL1  H19B 8886   2.819   1.967   7.195 -1.3659  0.2308  1.0780
   87CHL1  H19C 8887   2.747   2.009   7.034 -1.9449 -0.7059 -0.9552
   87CHL1    C1 8888   2.882   1.761   7.025 -0.3073  0.5149  0.0366
   87CHL1   H1A 8889   2.956   1.797   7.100  0.3031  1.5472 -1.0329
   87CHL1   H1B 8890   2.886   1.652   7.007  0.7678  0.6441 -0.5948
   87CHL1    C2 8891   2.915   1.830   6.892 -0.6379 -0.2003 -0.8106
   87CHL1   H2A 8892   3.014   1.797   6.855 -0.3755  0.7890 -1.0187
   87CHL1   H2B 8893   2.933   1.938   6.910  1.3369 -0.7900  1.1678
   87CHL1   C20 8894   2.631   1.587   7.756  0.8075 -0.1490  0.1189
   87CHL1   H20 8895   2.626   1.693   7.788  0.4903 -0.3369  0.6981
   87CHL1   C21 8896   2.776   1.540   7.771  0.0023  0.1898  0.0581
   87CHL1  H21A 8897   2.845   1.587   7.698 -0.4768 -0.1729 -0.6465
   87CHL1  H21B 8898   2.769   1.431   7.752 -0.9946  0.5875 -2.2237
   87CHL1  H21C 8899   2.811   1.571   7.872  0.1169  0.4274 -0.0530
   87CHL1   C22 8900   2.533   1.500   7.851 -0.1900  0.1107  0.0732
   87CHL1  H22A 8901   2.428   1.537   7.855  0.5317  2.2436  0.5295
   87CHL1  H22B 8902   2.536   1.395   7.814  1.6066  0.9207 -2.3040
   87CHL1   C23 8903   2.569   1.513   8.002 -1.1828  0.4508 -0.2240
   87CHL1  H23A 8904   2.672   1.474   8.015 -1.6622 -0.1201  2.3357
   87CHL1  H23B 8905   2.575   1.620   8.032  1.7361 -0.4385  3.0522
   87CHL1   C24 8906   2.479   1.430   8.084  0.2316 -0.2771  0.1018
   87CHL1  H24A 8907   2.378   1.450   8.045  0.5612 -0.4001 -0.8396
   87CHL1  H24B 8908   2.475   1.320   8.065 -1.6472  0.1839 -2.8259
   87CHL1   C25 8909   2.476   1.445   8.234  0.1017 -0.3558 -0.7416
   87CHL1   H25 8910   2.411   1.363   8.272 -0.8423  0.5256 -0.4105
   87CHL1   C26 8911   2.601   1.407   8.298 -1.2024 -0.1218 -0.1386
   87CHL1  H26A 8912   2.636   1.306   8.268  1.1318  1.0433 -1.6205
   87CHL1  H26B 8913   2.687   1.463   8.255 -0.7978 -1.2145 -0.7978
   87CHL1  H26C 8914   2.596   1.414   8.409  1.5276 -1.7826  0.1801
   87CHL1   C27 8915   2.430   1.584   8.284  0.3971 -0.5325  0.5962
   87CHL1  H27A 8916   2.486   1.671   8.243  0.0868 -0.9763 -0.8478
   87CHL1  H27B 8917   2.325   1.604   8.255  0.4534  0.9867  1.3700
   87CHL1  H27C 8918   2.428   1.592   8.395  1.4507 -3.0226  0.8797
   88CHL1    C3 8919   1.267   4.837   7.003  0.2273  0.5595  0.8985
   88CHL1    H3 8920   1.356   4.777   6.978  0.5668  0.7999  1.5118
   88CHL1    O3 8921   1.202   4.865   6.880 -0.0799 -0.2861  0.1417
   88CHL1   H3' 8922   1.201   4.961   6.872 -0.2178 -0.1652  1.4409
   88CHL1    C4 8923   1.163   4.744   7.077 -0.4206  0.0555  0.2134
   88CHL1   H4A 8924   1.062   4.786   7.061 -0.5733 -0.3551  0.0912
   88CHL1   H4B 8925   1.179   4.645   7.028 -0.2728  0.7242 -1.1234
   88CHL1    C5 8926   1.205   4.723   7.229 -0.3077 -0.2505  1.0956
   88CHL1    C6 8927   1.229   4.604   7.284  0.7805 -0.0573 -0.2662
   88CHL1    H6 8928   1.205   4.507   7.240 -1.0305 -0.4541  1.4260
   88CHL1    C7 8929   1.267   4.587   7.428 -0.1318  0.0117 -0.0754
   88CHL1   H7A 8930   1.201   4.507   7.468  0.0311  1.3707  3.2680
   88CHL1   H7B 8931   1.373   4.554   7.431  0.3435  1.4449 -0.3983
   88CHL1    C8 8932   1.247   4.708   7.512  0.8882  0.3577 -0.4871
   88CHL1    H8 8933   1.138   4.711   7.534  0.9924 -1.3189  0.4600
   88CHL1   C14 8934   1.325   4.687   7.642 -0.0680 -0.5915 -0.0513
   88CHL1   H14 8935   1.427   4.676   7.599 -0.3861 -3.2558 -0.3398
   88CHL1   C15 8936   1.315   4.558   7.732 -0.2584 -0.4995 -0.5309
   88CHL1  H15A 8937   1.206   4.551   7.754  0.2273 -1.4512  1.8608
   88CHL1  H15B 8938   1.361   4.468   7.686  2.8638 -0.0449  1.4265
   88CHL1   C16 8939   1.388   4.602   7.861 -0.6669  0.6544 -0.1099
   88CHL1  H16A 8940   1.309   4.579   7.936  0.1992 -2.2277  0.0604
   88CHL1  H16B 8941   1.488   4.553   7.864 -1.0727 -0.3104 -1.2831
   88CHL1   C17 8942   1.419   4.758   7.854  0.4093  0.3310  0.4756
   88CHL1   H17 8943   1.520   4.756   7.809  0.3741  0.0285  0.4063
   88CHL1   C13 8944   1.333   4.807   7.738  0.1805 -0.0981  1.1341
   88CHL1   C18 8945   1.196   4.830   7.797 -0.2597 -0.7689 -0.0443
   88CHL1  H18A 8946   1.168   4.732   7.841  2.2815 -2.6550 -2.3046
   88CHL1  H18B 8947   1.198   4.918   7.865 -1.1345 -0.7283 -0.0690
   88CHL1  H18C 8948   1.119   4.844   7.719  0.5469 -0.9987 -0.9041
   88CHL1   C12 8949   1.399   4.925   7.656  0.1196 -0.1651 -0.9619
   88CHL1  H12A 8950   1.394   5.017   7.718 -0.2933 -0.2125 -0.9193
   88CHL1  H12B 8951   1.499   4.889   7.626 -0.0864 -3.0539  1.4278
   88CHL1   C11 8952   1.317   4.956   7.534  0.4222  0.1817 -0.4823
   88CHL1  H11A 8953   1.217   4.980   7.576  0.6880 -2.8032  2.2043
   88CHL1  H11B 8954   1.355   5.042   7.474  1.1965 -0.3430 -0.7629
   88CHL1    C9 8955   1.304   4.827   7.438 -0.1221 -0.4998  0.3265
   88CHL1    H9 8956   1.410   4.800   7.419 -0.3217 -1.7269  0.8209
   88CHL1   C10 8957   1.236   4.854   7.307  0.2101  0.0834 -0.1601
   88CHL1   C19 8958   1.106   4.936   7.335  0.2131  0.6169  0.1466
   88CHL1  H19A 8959   1.113   5.038   7.379 -2.4797  1.4750 -1.1935
   88CHL1  H19B 8960   1.051   4.959   7.241  0.9448 -0.0451 -0.4533
   88CHL1  H19C 8961   1.041   4.875   7.402 -0.2467 -0.7642 -1.5015
   88CHL1    C1 8962   1.328   4.952   7.226  0.1667 -0.0141  0.3129
   88CHL1   H1A 8963   1.341   5.049   7.278  0.1342  0.2326 -0.1339
   88CHL1   H1B 8964   1.427   4.902   7.224 -0.6227 -1.6371  0.5049
   88CHL1    C2 8965   1.284   4.970   7.081 -0.6993 -0.0961 -0.2098
   88CHL1   H2A 8966   1.353   5.040   7.029 -0.4595 -0.7437 -0.7768
   88CHL1   H2B 8967   1.189   5.028   7.074 -0.4227  0.3365 -0.4228
   88CHL1   C20 8968   1.428   4.824   7.987  0.2097  0.3301 -0.5451
   88CHL1   H20 8969   1.325   4.825   8.027 -0.1316 -0.6057 -1.3566
   88CHL1   C21 8970   1.486   4.963   7.962 -0.0628  0.3765 -0.2710
   88CHL1  H21A 8971   1.541   4.964   7.866  0.5429 -0.6922  0.0520
   88CHL1  H21B 8972   1.562   4.992   8.038 -0.4741  0.5353  0.0891
   88CHL1  H21C 8973   1.412   5.045   7.947 -0.0135  0.4276 -0.2389
   88CHL1   C22 8974   1.504   4.747   8.094  0.3656  0.6605 -0.4701
   88CHL1  H22A 8975   1.484   4.638   8.094 -1.1499  0.9186 -1.3233
   88CHL1  H22B 8976   1.610   4.757   8.060  0.4481 -1.1018 -0.7822
   88CHL1   C23 8977   1.500   4.809   8.231 -0.2611 -0.8822  0.0415
   88CHL1  H23A 8978   1.522   4.918   8.236  1.5082 -1.2616  1.1784
   88CHL1  H23B 8979   1.395   4.803   8.269 -0.0329  0.9036  1.0881
   88CHL1   C24 8980   1.579   4.728   8.332 -0.1600 -0.2394  0.8303
   88CHL1  H24A 8981   1.521   4.633   8.336 -2.4919  0.9634 -1.4084
   88CHL1  H24B 8982   1.680   4.703   8.293 -0.7904  0.9145 -1.7495
   88CHL1   C25 8983   1.594   4.793   8.476 -0.0700  0.1354  0.0386
   88CHL1   H25 8984   1.634   4.721   8.550  1.4660  1.3424  0.4406
   88CHL1   C26 8985   1.687   4.914   8.474  0.1375 -0.2184  1.0934
   88CHL1  H26A 8986   1.637   4.985   8.404 -0.1271 -0.5852  0.9110
   88CHL1  H26B 8987   1.698   4.976   8.566  0.2553  1.5883 -0.0787
   88CHL1  H26C 8988   1.783   4.885   8.426 -1.4940 -1.2944 -1.7460
   88CHL1   C27 8989   1.454   4.832   8.529 -0.0273 -0.0239  0.8893
   88CHL1  H27A 8990   1.410   4.932   8.506 -1.8408 -1.0906 -0.5055
   88CHL1  H27B 8991   1.377   4.756   8.508 -0.1654 -0.1559  1.8384
   88CHL1  H27C 8992   1.470   4.839   8.639  2.0414 -2.3729  0.8453
   89CHL1    C3 8993   2.575   5.862   6.888  0.7444 -1.4908 -0.2886
   89CHL1    H3 8994   2.476   5.873   6.936  0.6219 -0.8278 -0.6773
   89CHL1    O3 8995   2.567   5.884   6.747  0.1076 -0.6644 -0.1402
   89CHL1   H3' 8996   2.638   5.945   6.727 -0.8366  0.2866 -0.6791
   89CHL1    C4 8997   2.667   5.974   6.946  0.8883  0.7034  0.0417
   89CHL1   H4A 8998   2.765   5.975   6.893 -0.0432  0.7359 -1.7497
   89CHL1   H4B 8999   2.621   6.073   6.924  2.7521  1.4588 -0.6986
   89CHL1    C5 9000   2.685   5.954   7.100  0.3791 -0.1248  0.3423
   89CHL1    C6 9001   2.650   6.043   7.198  0.4509 -0.7585  0.3038
   89CHL1    H6 9002   2.607   6.136   7.158 -2.2070 -1.6982  0.7631
   89CHL1    C7 9003   2.662   6.038   7.352 -0.0794 -0.2747  0.2774
   89CHL1   H7A 9004   2.700   6.134   7.392 -0.5799  0.6111 -1.2934
   89CHL1   H7B 9005   2.563   6.016   7.397  0.0008  0.5396  0.8833
   89CHL1    C8 9006   2.772   5.934   7.386 -0.7154  0.0113  0.2048
   89CHL1    H8 9007   2.873   5.968   7.353 -1.8692 -0.3153 -4.2199
   89CHL1   C14 9008   2.790   5.908   7.534  0.0466 -0.0422  0.0833
   89CHL1   H14 9009   2.691   5.880   7.575  0.0314  1.6107  1.2833
   89CHL1   C15 9010   2.835   6.030   7.625  0.6016 -0.3927 -0.6463
   89CHL1  H15A 9011   2.906   6.098   7.573 -0.3491  1.1315 -0.0172
   89CHL1  H15B 9012   2.745   6.091   7.645  0.4375 -0.7060 -0.4123
   89CHL1   C16 9013   2.907   5.959   7.746  0.0083 -0.3623  0.6537
   89CHL1  H16A 9014   3.008   5.999   7.769  0.6465 -1.8302  0.5509
   89CHL1  H16B 9015   2.840   5.982   7.831  0.2043  0.5561  0.5691
   89CHL1   C17 9016   2.903   5.807   7.720 -0.8277  0.6827 -0.5857
   89CHL1   H17 9017   2.800   5.775   7.749 -0.0919 -1.1780  0.1379
   89CHL1   C13 9018   2.899   5.803   7.567 -0.7510  0.4732 -0.6946
   89CHL1   C18 9019   3.042   5.833   7.506  0.2668  0.1659 -0.3736
   89CHL1  H18A 9020   3.095   5.738   7.529 -1.6425 -0.8884 -0.1134
   89CHL1  H18B 9021   3.039   5.843   7.395 -2.4615  1.6413 -0.2517
   89CHL1  H18C 9022   3.091   5.918   7.559 -4.1444  0.5905  3.6633
   89CHL1   C12 9023   2.843   5.674   7.501  0.3365 -0.1911 -0.8923
   89CHL1  H12A 9024   2.911   5.587   7.512  0.9944  0.3756 -0.4644
   89CHL1  H12B 9025   2.746   5.656   7.552  0.7912  0.2747  0.1750
   89CHL1   C11 9026   2.828   5.684   7.354  0.1851 -0.6179  0.0394
   89CHL1  H11A 9027   2.933   5.682   7.316  0.1303  2.2171 -0.4645
   89CHL1  H11B 9028   2.787   5.587   7.319  1.0097 -1.2240  0.6832
   89CHL1    C9 9029   2.741   5.803   7.306  0.0876 -0.3769  0.0403
   89CHL1    H9 9030   2.639   5.766   7.332  1.6873 -3.2060  3.1513
   89CHL1   C10 9031   2.730   5.806   7.148 -0.5645 -0.8008 -0.5746
   89CHL1   C19 9032   2.878   5.816   7.100 -0.8627 -0.3830  0.2924
   89CHL1  H19A 9033   2.934   5.895   7.154 -1.9529  1.0376 -0.5924
   89CHL1  H19B 9034   2.934   5.723   7.125 -1.2173 -0.4757  0.7519
   89CHL1  H19C 9035   2.892   5.837   6.992 -0.0099 -0.4996  0.3702
   89CHL1    C1 9036   2.650   5.693   7.084 -0.1919  0.0769  0.2824
   89CHL1   H1A 9037   2.711   5.603   7.104 -1.2173 -0.6333  0.2755
   89CHL1   H1B 9038   2.552   5.704   7.135 -1.0228  0.7158 -1.3472
   89CHL1    C2 9039   2.628   5.721   6.928 -0.5915  0.4503 -0.3118
   89CHL1   H2A 9040   2.588   5.640   6.864  0.5971 -0.4577  0.0483
   89CHL1   H2B 9041   2.731   5.715   6.887  0.2409 -0.4553  1.7333
   89CHL1   C20 9042   3.009   5.731   7.800 -0.2345  0.4692  0.5517
   89CHL1   H20 9043   3.108   5.751   7.753 -1.1694  0.7599 -1.3751
   89CHL1   C21 9044   2.976   5.581   7.802  0.1958  0.1020 -0.1816
   89CHL1  H21A 9045   2.878   5.566   7.852  0.1095  1.2805  0.0271
   89CHL1  H21B 9046   3.050   5.525   7.863 -0.7737  1.4040  2.3334
   89CHL1  H21C 9047   2.960   5.544   7.698 -2.1543  0.5434 -0.0328
   89CHL1   C22 9048   3.032   5.782   7.944 -0.4069  0.7413 -0.4568
   89CHL1  H22A 9049   3.119   5.734   7.994 -0.9912  0.1205 -0.0249
   89CHL1  H22B 9050   3.065   5.888   7.938  0.8381  0.3323 -1.2608
   89CHL1   C23 9051   2.904   5.762   8.025  0.8456  0.0596 -0.2982
   89CHL1  H23A 9052   2.823   5.777   7.950  1.7444  1.5618 -1.0174
   89CHL1  H23B 9053   2.897   5.661   8.071 -2.1586  0.1123 -0.4517
   89CHL1   C24 9054   2.896   5.870   8.130 -0.0318 -0.1722 -0.1375
   89CHL1  H24A 9055   2.974   5.849   8.206 -0.8678  0.1783  0.8464
   89CHL1  H24B 9056   2.929   5.971   8.098  0.5779  0.5998  2.6463
   89CHL1   C25 9057   2.760   5.886   8.196 -0.6337  0.2604 -0.0176
   89CHL1   H25 9058   2.694   5.930   8.118 -1.4141  0.4997  0.7703
   89CHL1   C26 9059   2.704   5.749   8.238 -0.3570  0.3991 -0.2713
   89CHL1  H26A 9060   2.707   5.686   8.147  1.4517  1.5090 -1.0536
   89CHL1  H26B 9061   2.757   5.703   8.325 -1.6028 -0.1872  0.1945
   89CHL1  H26C 9062   2.601   5.772   8.271 -0.5174  0.5219 -0.8409
   89CHL1   C27 9063   2.772   5.980   8.316  0.3482 -0.0598  0.2575
   89CHL1  H27A 9064   2.847   6.050   8.273  1.4737 -1.5347 -0.2475
   89CHL1  H27B 9065   2.671   6.026   8.326  0.3019  0.0363 -0.5512
   89CHL1  H27C 9066   2.822   5.932   8.402  0.7432 -1.1261 -0.5467
   90CHL1    C3 9067   3.525   3.779   6.960  0.3133 -0.0790  0.5705
   90CHL1    H3 9068   3.418   3.782   6.989 -0.4764  0.5619 -2.0966
   90CHL1    O3 9069   3.525   3.776   6.818 -0.2382  0.6851  0.0162
   90CHL1   H3' 9070   3.465   3.706   6.792 -0.0907  0.7741 -0.5916
   90CHL1    C4 9071   3.614   3.895   7.015 -0.3295 -0.2771  0.2405
   90CHL1   H4A 9072   3.712   3.886   6.963 -2.0082  1.5556 -3.6184
   90CHL1   H4B 9073   3.575   3.991   6.974  2.5497  1.5154  1.3473
   90CHL1    C5 9074   3.617   3.911   7.164 -0.2090 -0.1290  0.3323
   90CHL1    C6 9075   3.580   4.018   7.230  0.4922 -0.4722  0.6977
   90CHL1    H6 9076   3.561   4.108   7.169  0.2854 -0.4350  0.8139
   90CHL1    C7 9077   3.584   4.039   7.381  0.5927  0.2683 -1.1889
   90CHL1   H7A 9078   3.628   4.139   7.398  0.2324  0.2172  0.0911
   90CHL1   H7B 9079   3.483   4.038   7.426  0.9102 -1.4489 -0.4269
   90CHL1    C8 9080   3.663   3.920   7.456 -0.2050  0.4986  0.0937
   90CHL1    H8 9081   3.768   3.955   7.458  0.2572 -0.8521  0.6011
   90CHL1   C14 9082   3.628   3.924   7.605  0.0528  0.0330  0.2827
   90CHL1   H14 9083   3.522   3.902   7.628  0.2520 -1.1028  0.1778
   90CHL1   C15 9084   3.659   4.059   7.674  0.0100 -0.9620  0.3765
   90CHL1  H15A 9085   3.747   4.116   7.637 -0.8968 -0.6608 -1.4197
   90CHL1  H15B 9086   3.575   4.130   7.658 -1.6188 -2.5655  1.4007
   90CHL1   C16 9087   3.674   4.023   7.813 -0.4246  0.3586  0.4369
   90CHL1  H16A 9088   3.776   4.057   7.838 -0.8035  1.4887  0.5112
   90CHL1  H16B 9089   3.589   4.066   7.871 -1.1365  2.7714 -2.1739
   90CHL1   C17 9090   3.665   3.861   7.823 -0.6551 -0.8171  1.1825
   90CHL1   H17 9091   3.557   3.835   7.824 -1.0808  0.7473  0.2416
   90CHL1   C13 9092   3.710   3.821   7.684 -0.0507  0.3385 -0.5422
   90CHL1   C18 9093   3.866   3.847   7.679 -0.5373 -0.7141  0.6688
   90CHL1  H18A 9094   3.912   3.755   7.722  0.5242  0.1165  1.3589
   90CHL1  H18B 9095   3.900   3.875   7.577 -1.0019  0.3091  0.7759
   90CHL1  H18C 9096   3.903   3.930   7.743 -0.5402 -1.8428  2.2047
   90CHL1   C12 9097   3.667   3.685   7.628  0.0157 -0.2691 -0.1978
   90CHL1  H12A 9098   3.727   3.610   7.685 -1.0483 -0.1428  1.1404
   90CHL1  H12B 9099   3.559   3.679   7.654 -0.2503  4.5054  0.7104
   90CHL1   C11 9100   3.685   3.670   7.483  0.0839  0.3938 -0.9463
   90CHL1  H11A 9101   3.793   3.664   7.461  0.3697  0.1039  0.4919
   90CHL1  H11B 9102   3.634   3.577   7.447  0.0110  0.2554 -0.4908
   90CHL1    C9 9103   3.628   3.790   7.393 -0.1934 -1.6386  0.3783
   90CHL1    H9 9104   3.517   3.788   7.390 -0.4736  2.8580 -1.6490
   90CHL1   C10 9105   3.657   3.779   7.235  0.7999 -0.0049  1.4229
   90CHL1   C19 9106   3.807   3.755   7.216  0.5544  0.5158 -0.0099
   90CHL1  H19A 9107   3.839   3.749   7.109 -0.0259 -0.0375 -0.1619
   90CHL1  H19B 9108   3.861   3.843   7.255 -0.4989 -0.1468  3.2628
   90CHL1  H19C 9109   3.844   3.665   7.271 -2.5906 -0.6495  0.4295
   90CHL1    C1 9110   3.582   3.661   7.169  0.0875  0.1927 -0.1192
   90CHL1   H1A 9111   3.620   3.569   7.218 -1.8084  0.1146  1.3130
   90CHL1   H1B 9112   3.474   3.660   7.194  0.0142 -2.7911 -0.2099
   90CHL1    C2 9113   3.588   3.648   7.019  0.3163  1.4653  0.6607
   90CHL1   H2A 9114   3.526   3.564   6.981 -2.3241  4.0907 -1.2777
   90CHL1   H2B 9115   3.694   3.637   6.985 -0.1279  0.2080 -0.3721
   90CHL1   C20 9116   3.720   3.798   7.954  0.1133  0.5268 -0.0585
   90CHL1   H20 9117   3.830   3.812   7.953  0.3050 -0.7066 -1.5783
   90CHL1   C21 9118   3.694   3.649   7.962 -0.9339 -0.1742  0.1568
   90CHL1  H21A 9119   3.695   3.614   8.067  0.8793  0.1718  0.2830
   90CHL1  H21B 9120   3.768   3.587   7.907 -0.2018  1.9462 -1.3634
   90CHL1  H21C 9121   3.589   3.628   7.934 -1.2611 -0.5967  1.6276
   90CHL1   C22 9122   3.649   3.861   8.080 -0.4622 -0.6810  0.1570
   90CHL1  H22A 9123   3.649   3.972   8.072  1.7150 -0.6322  0.2354
   90CHL1  H22B 9124   3.543   3.830   8.068  0.0477 -2.2292 -0.6079
   90CHL1   C23 9125   3.720   3.831   8.214 -0.0230 -0.1213 -0.2182
   90CHL1  H23A 9126   3.708   3.723   8.234 -0.9367  0.1401  0.7600
   90CHL1  H23B 9127   3.824   3.870   8.204 -0.8573  2.9543  1.6093
   90CHL1   C24 9128   3.656   3.896   8.333 -0.6485 -0.0607 -0.3520
   90CHL1  H24A 9129   3.664   4.003   8.303  0.8413  0.3013  1.1479
   90CHL1  H24B 9130   3.550   3.865   8.345 -0.7959  0.6903  0.3173
   90CHL1   C25 9131   3.727   3.890   8.469 -0.2199 -0.1965  0.0935
   90CHL1   H25 9132   3.830   3.930   8.461  0.3976 -1.6702  0.4091
   90CHL1   C26 9133   3.640   3.956   8.568 -0.6194 -0.5809  0.5465
   90CHL1  H26A 9134   3.689   3.958   8.667 -0.4083 -3.2313  0.5673
   90CHL1  H26B 9135   3.615   4.062   8.546 -1.7406 -1.0252 -0.4322
   90CHL1  H26C 9136   3.547   3.898   8.584 -0.8953 -0.5335 -0.7359
   90CHL1   C27 9137   3.746   3.744   8.515  0.0095 -0.0399  0.2805
   90CHL1  H27A 9138   3.795   3.734   8.614 -0.5629 -2.1587  0.4006
   90CHL1  H27B 9139   3.653   3.683   8.511 -1.1139  1.6251 -3.4609
   90CHL1  H27C 9140   3.810   3.685   8.447 -0.7684  0.3752 -0.8489
   91CHL1    C3 9141   0.207   5.628   7.348 -0.8872 -0.6284 -0.0918
   91CHL1    H3 9142   0.191   5.528   7.394 -0.2940 -0.8746 -0.4129
   91CHL1    O3 9143   0.205   5.621   7.206 -0.1654  0.6542 -0.1967
   91CHL1   H3' 9144   0.169   5.700   7.166 -2.6856 -1.2279 -2.0307
   91CHL1    C4 9145   0.098   5.731   7.396 -0.0375  0.2275 -0.6096
   91CHL1   H4A 9146   0.114   5.834   7.357  1.0063  0.4528  0.3653
   91CHL1   H4B 9147  -0.001   5.695   7.362 -1.6128  2.9252  0.8418
   91CHL1    C5 9148   0.106   5.745   7.546 -0.3282 -0.7646 -0.2630
   91CHL1    C6 9149  -0.012   5.729   7.616 -0.2969  0.0579  0.4252
   91CHL1    H6 9150  -0.104   5.699   7.565  2.0119 -1.9252 -2.9580
   91CHL1    C7 9151  -0.018   5.748   7.767 -0.3258  0.6282  0.4503
   91CHL1   H7A 9152  -0.108   5.803   7.803 -1.5326 -0.9614 -0.0765
   91CHL1   H7B 9153  -0.037   5.642   7.794  1.4107 -0.1836 -1.3153
   91CHL1    C8 9154   0.113   5.793   7.823  0.3727 -0.2113 -0.0092
   91CHL1    H8 9155   0.123   5.904   7.819  1.4514 -0.2253  1.4111
   91CHL1   C14 9156   0.123   5.758   7.977  0.0205  0.0268 -0.2514
   91CHL1   H14 9157   0.123   5.647   7.974 -1.8599  0.0029 -0.7643
   91CHL1   C15 9158   0.001   5.797   8.057 -0.0562 -0.5314 -0.6073
   91CHL1  H15A 9159  -0.027   5.904   8.044  2.3461  0.3872  1.0960
   91CHL1  H15B 9160  -0.089   5.734   8.041  0.6526 -1.8851  0.4141
   91CHL1   C16 9161   0.055   5.778   8.206  0.2585  0.2586 -0.6025
   91CHL1  H16A 9162   0.009   5.861   8.263  1.5190  2.1674 -2.2092
   91CHL1  H16B 9163   0.015   5.678   8.236  1.7315  0.1597  1.1978
   91CHL1   C17 9164   0.215   5.775   8.200  0.5651  0.5641 -0.1924
   91CHL1   H17 9165   0.225   5.665   8.214 -2.4573  0.4190  1.8014
   91CHL1   C13 9166   0.243   5.809   8.057 -0.5568  0.4464  1.4303
   91CHL1   C18 9167   0.250   5.959   8.044  0.0274  0.0630 -0.5050
   91CHL1  H18A 9168   0.169   6.015   8.094 -0.2068  0.7191 -1.5941
   91CHL1  H18B 9169   0.347   6.004   8.076 -1.6719  2.2849  1.8965
   91CHL1  H18C 9170   0.233   5.993   7.939 -1.6945 -0.7687 -0.5299
   91CHL1   C12 9171   0.362   5.735   7.995 -0.1378 -0.5046  0.0463
   91CHL1  H12A 9172   0.457   5.771   8.042 -0.1090  2.3832 -1.9938
   91CHL1  H12B 9173   0.357   5.626   8.016 -0.3444 -0.8031 -1.4609
   91CHL1   C11 9174   0.369   5.765   7.841 -0.2204  0.2000  0.1071
   91CHL1  H11A 9175   0.403   5.870   7.830  1.2459 -0.3332 -0.7240
   91CHL1  H11B 9176   0.445   5.699   7.794  0.1566  1.7365 -1.5538
   91CHL1    C9 9177   0.238   5.741   7.760  0.0491  0.2255 -0.1931
   91CHL1    H9 9178   0.224   5.630   7.762  2.3070 -0.2134 -2.6403
   91CHL1   C10 9179   0.246   5.775   7.607  0.5648  0.4015  0.9194
   91CHL1   C19 9180   0.298   5.921   7.592 -0.5840  0.2390  0.5150
   91CHL1  H19A 9181   0.299   5.954   7.485 -0.0869  2.2115  1.0842
   91CHL1  H19B 9182   0.220   5.985   7.637 -1.4066  2.1619 -3.1956
   91CHL1  H19C 9183   0.395   5.943   7.642 -1.0226  3.5055  0.1957
   91CHL1    C1 9184   0.352   5.684   7.542  0.7634  0.6147 -0.2088
   91CHL1   H1A 9185   0.447   5.739   7.560  0.4500  1.3543 -0.7256
   91CHL1   H1B 9186   0.363   5.581   7.582  1.8836  1.2794  1.3021
   91CHL1    C2 9187   0.344   5.672   7.392 -0.6169 -0.4618  0.2775
   91CHL1   H2A 9188   0.414   5.595   7.351 -1.6228 -0.8663 -0.7293
   91CHL1   H2B 9189   0.367   5.776   7.358 -0.5048 -1.2964 -2.5004
   91CHL1   C20 9190   0.281   5.835   8.326 -0.7727 -0.7772 -0.3484
   91CHL1   H20 9191   0.275   5.946   8.325  1.4838 -0.6125 -0.6566
   91CHL1   C21 9192   0.432   5.818   8.327  0.5942  0.2222 -0.0512
   91CHL1  H21A 9193   0.478   5.842   8.425  1.1006  0.8764 -0.4475
   91CHL1  H21B 9194   0.474   5.873   8.241  0.1658 -1.4261 -1.3753
   91CHL1  H21C 9195   0.456   5.710   8.313  1.5197  0.3780  0.2745
   91CHL1   C22 9196   0.225   5.786   8.464 -0.5610 -0.6959 -0.1238
   91CHL1  H22A 9197   0.245   5.853   8.550 -0.1633 -0.6080 -0.2831
   91CHL1  H22B 9198   0.115   5.786   8.448 -0.6061 -0.1837  0.1811
   91CHL1   C23 9199   0.269   5.643   8.504 -0.2136  0.4116 -0.3757
   91CHL1  H23A 9200   0.292   5.577   8.418  4.1482  0.4671  0.4937
   91CHL1  H23B 9201   0.374   5.654   8.541 -0.0847 -0.1353 -0.5613
   91CHL1   C24 9202   0.190   5.575   8.621  0.2764  0.1695  0.2245
   91CHL1  H24A 9203   0.092   5.556   8.573 -1.4399  1.9762  2.8129
   91CHL1  H24B 9204   0.233   5.475   8.645 -0.5445  0.3809  2.7657
   91CHL1   C25 9205   0.184   5.659   8.747  0.0165  0.2315  0.1323
   91CHL1   H25 9206   0.176   5.766   8.722  2.9865 -0.1071 -2.9133
   91CHL1   C26 9207   0.062   5.615   8.837 -0.6699  0.5640 -0.6858
   91CHL1  H26A 9208   0.088   5.517   8.882 -0.7109  1.5285  1.5654
   91CHL1  H26B 9209   0.043   5.682   8.924  0.2026 -1.0022  0.7791
   91CHL1  H26C 9210  -0.033   5.608   8.780  0.0793  1.5986 -2.1319
   91CHL1   C27 9211   0.313   5.631   8.829  0.2199 -0.0535  0.0416
   91CHL1  H27A 9212   0.397   5.679   8.774  1.6543 -2.2903  0.1302
   91CHL1  H27B 9213   0.284   5.668   8.930 -1.2178  0.6886 -0.6166
   91CHL1  H27C 9214   0.343   5.524   8.822  1.4696  0.3572 -1.3787
   92CHL1    C3 9215   2.271   0.470   6.637 -0.1496 -0.1316 -0.0260
   92CHL1    H3 9216   2.288   0.577   6.662 -4.4705  0.7741 -0.1153
   92CHL1    O3 9217   2.288   0.445   6.500  0.4115  0.3445  0.1519
   92CHL1   H3' 9218   2.217   0.495   6.459  0.8045  0.1920 -0.7363
   92CHL1    C4 9219   2.364   0.376   6.719 -0.3092 -0.8646 -0.2324
   92CHL1   H4A 9220   2.342   0.271   6.688  2.8626 -2.0827  1.1235
   92CHL1   H4B 9221   2.471   0.385   6.689 -0.3156 -2.2515 -0.7775
   92CHL1    C5 9222   2.349   0.394   6.870 -0.4432 -0.3238  0.1292
   92CHL1    C6 9223   2.452   0.415   6.953 -0.1241  0.2388  0.2618
   92CHL1    H6 9224   2.551   0.422   6.904  0.9025  1.1724  2.3244
   92CHL1    C7 9225   2.442   0.409   7.103  0.0214  0.1629 -0.1289
   92CHL1   H7A 9226   2.514   0.341   7.151 -1.3629 -1.2056  0.1044
   92CHL1   H7B 9227   2.451   0.513   7.141  0.7603 -0.7588  2.4076
   92CHL1    C8 9228   2.308   0.354   7.157 -0.0679  1.4028 -0.3231
   92CHL1    H8 9229   2.316   0.243   7.158  0.1696  1.4222  0.2921
   92CHL1   C14 9230   2.290   0.386   7.308 -0.5067  0.2596 -0.2878
   92CHL1   H14 9231   2.282   0.496   7.308 -1.1410  0.2565  1.5514
   92CHL1   C15 9232   2.400   0.355   7.414 -0.3568 -0.2071 -0.7877
   92CHL1  H15A 9233   2.441   0.253   7.399  0.0793 -0.6168  2.3845
   92CHL1  H15B 9234   2.479   0.432   7.424  0.6720 -1.3474  0.1537
   92CHL1   C16 9235   2.322   0.338   7.546 -1.0531  0.0170  0.1558
   92CHL1  H16A 9236   2.351   0.241   7.593  0.0676  0.5048  0.5005
   92CHL1  H16B 9237   2.347   0.422   7.614 -0.3755 -1.5319  1.9075
   92CHL1   C17 9238   2.174   0.353   7.511 -0.3344 -0.1380 -1.3713
   92CHL1   H17 9239   2.151   0.461   7.527  0.3370  0.2126 -2.5963
   92CHL1   C13 9240   2.153   0.332   7.361  0.4445 -0.4982  0.3545
   92CHL1   C18 9241   2.137   0.175   7.346  1.1939 -0.1268 -0.1859
   92CHL1  H18A 9242   2.142   0.144   7.239 -0.0245  1.5984 -0.7835
   92CHL1  H18B 9243   2.209   0.118   7.409  0.5693 -1.4344 -0.6183
   92CHL1  H18C 9244   2.033   0.149   7.377  0.7084  1.7161 -0.1471
   92CHL1   C12 9245   2.047   0.411   7.285  0.2063 -0.0550 -0.5040
   92CHL1  H12A 9246   1.945   0.403   7.330  0.1127 -1.8507 -0.9826
   92CHL1  H12B 9247   2.069   0.520   7.291 -0.8059  0.1521 -0.2678
   92CHL1   C11 9248   2.054   0.371   7.139 -0.4184 -0.4163 -0.3313
   92CHL1  H11A 9249   2.010   0.269   7.127 -0.7063  0.0477 -4.7172
   92CHL1  H11B 9250   1.978   0.430   7.083  2.1147  0.6572 -2.8711
   92CHL1    C9 9251   2.190   0.401   7.072  0.3869  0.3181 -0.2940
   92CHL1    H9 9252   2.189   0.512   7.078 -0.5545  0.3263 -0.5762
   92CHL1   C10 9253   2.197   0.369   6.917 -0.9378  0.0188  0.4345
   92CHL1   C19 9254   2.170   0.218   6.901  0.0376 -0.3992 -0.3169
   92CHL1  H19A 9255   2.060   0.209   6.909 -0.0907  1.1546 -0.0771
   92CHL1  H19B 9256   2.186   0.178   6.799  1.7311  1.9081 -1.0322
   92CHL1  H19C 9257   2.233   0.158   6.971  2.4590  2.4424  0.1426
   92CHL1    C1 9258   2.110   0.462   6.837 -0.1784  0.3269 -0.3802
   92CHL1   H1A 9259   2.005   0.442   6.869 -0.4274  1.9281 -0.1273
   92CHL1   H1B 9260   2.133   0.563   6.876  0.8136  0.9793 -2.5521
   92CHL1    C2 9261   2.120   0.443   6.686  0.3538 -0.1425 -0.3001
   92CHL1   H2A 9262   2.056   0.519   6.638 -1.3844 -0.7654  0.9344
   92CHL1   H2B 9263   2.078   0.347   6.649 -2.3335  1.2025 -0.9307
   92CHL1   C20 9264   2.085   0.274   7.621  0.0607 -0.7078 -0.2831
   92CHL1   H20 9265   2.104   0.165   7.608  1.5765 -0.4902 -0.1207
   92CHL1   C21 9266   1.942   0.297   7.589 -0.1677  0.2296  0.1919
   92CHL1  H21A 9267   1.883   0.243   7.666 -0.4079  1.4868  0.9255
   92CHL1  H21B 9268   1.911   0.252   7.492  0.3697  0.2303  0.0163
   92CHL1  H21C 9269   1.919   0.406   7.582  0.8125  0.3967 -0.5756
   92CHL1   C22 9270   2.123   0.326   7.765  0.1403 -0.3751 -0.3912
   92CHL1  H22A 9271   2.230   0.311   7.791 -0.1346  1.7886  2.4437
   92CHL1  H22B 9272   2.106   0.436   7.761  1.3983 -0.1650 -0.1716
   92CHL1   C23 9273   2.045   0.259   7.879  0.3516  0.8312  0.0634
   92CHL1  H23A 9274   1.939   0.291   7.871  0.2529  0.9977  1.7611
   92CHL1  H23B 9275   2.043   0.150   7.858 -0.3403  1.0806 -1.2586
   92CHL1   C24 9276   2.099   0.287   8.023  1.2375  0.0395  0.5167
   92CHL1  H24A 9277   2.209   0.275   8.011  1.3204  0.8012  0.4538
   92CHL1  H24B 9278   2.076   0.390   8.056 -2.2830 -0.1062 -1.0545
   92CHL1   C25 9279   2.041   0.197   8.135  0.5010  0.1857  0.6526
   92CHL1   H25 9280   2.059   0.095   8.095  1.1730  0.9472 -1.1121
   92CHL1   C26 9281   2.120   0.210   8.260  1.2981  0.1417  0.3964
   92CHL1  H26A 9282   2.045   0.174   8.334 -2.2228 -1.0706 -3.3520
   92CHL1  H26B 9283   2.214   0.152   8.268  0.5900 -0.7340  3.5757
   92CHL1  H26C 9284   2.140   0.315   8.288  0.0372  0.8044 -1.0486
   92CHL1   C27 9285   1.888   0.226   8.153 -0.2351 -0.0932 -0.4618
   92CHL1  H27A 9286   1.835   0.156   8.221  0.9640 -0.2012  0.3809
   92CHL1  H27B 9287   1.881   0.325   8.201  1.7168 -0.8022  1.4487
   92CHL1  H27C 9288   1.838   0.221   8.054  3.0369  1.2257 -2.3340
   93CHL1    C3 9289   0.595   4.878   7.018 -1.0189  0.9177  0.8085
   93CHL1    H3 9290   0.659   4.787   7.017 -1.4569  0.6101 -0.1775
   93CHL1    O3 9291   0.524   4.916   6.900 -0.2926  0.2482  0.5579
   93CHL1   H3' 9292   0.436   4.911   6.939 -0.1544 -1.6843  0.7318
   93CHL1    C4 9293   0.495   4.863   7.133 -0.2644  0.4838 -0.0127
   93CHL1   H4A 9294   0.415   4.940   7.127 -2.7874 -1.9932  0.2181
   93CHL1   H4B 9295   0.439   4.768   7.130  0.0136  0.1629  2.6346
   93CHL1    C5 9296   0.567   4.851   7.264 -0.0633 -0.2608  0.0273
   93CHL1    C6 9297   0.545   4.748   7.350  1.1757  0.0516 -0.0212
   93CHL1    H6 9298   0.475   4.671   7.314  0.3491  0.6538  0.2642
   93CHL1    C7 9299   0.583   4.742   7.491  0.8887  0.7189 -0.0085
   93CHL1   H7A 9300   0.498   4.695   7.544  0.4141 -0.2415 -1.5529
   93CHL1   H7B 9301   0.664   4.666   7.497  1.4342  1.2681 -0.3878
   93CHL1    C8 9302   0.622   4.877   7.550 -0.5946  0.1979  0.3338
   93CHL1    H8 9303   0.537   4.947   7.569 -0.0062  0.1433  3.8454
   93CHL1   C14 9304   0.699   4.863   7.681  0.0007  0.7265 -0.0444
   93CHL1   H14 9305   0.788   4.801   7.657 -1.1760 -1.9224  1.9447
   93CHL1   C15 9306   0.625   4.790   7.793 -0.2396  0.3570  0.0682
   93CHL1  H15A 9307   0.523   4.832   7.802  0.4020  1.8417  0.9133
   93CHL1  H15B 9308   0.637   4.680   7.782  0.6732  0.5907 -1.6805
   93CHL1   C16 9309   0.695   4.850   7.918  0.1318 -0.5305  0.1046
   93CHL1  H16A 9310   0.622   4.909   7.977 -0.2589 -0.5895 -0.3181
   93CHL1  H16B 9311   0.735   4.771   7.985  0.3167  0.1295  0.7891
   93CHL1   C17 9312   0.805   4.951   7.878  0.6199  0.3148 -0.3441
   93CHL1   H17 9313   0.898   4.897   7.849 -0.4222 -2.1851  0.7207
   93CHL1   C13 9314   0.752   4.998   7.738 -0.0898 -0.1277  0.3414
   93CHL1   C18 9315   0.636   5.095   7.769  0.1162  0.7052  0.0960
   93CHL1  H18A 9316   0.585   5.139   7.681  1.6062 -0.6038 -1.4931
   93CHL1  H18B 9317   0.553   5.055   7.831 -3.0907  4.1247 -1.5708
   93CHL1  H18C 9318   0.674   5.182   7.826  1.5181 -0.7946  1.5635
   93CHL1   C12 9319   0.852   5.069   7.642  0.1739 -0.2618  0.1069
   93CHL1  H12A 9320   0.882   5.168   7.683  0.2396 -0.2390  0.0025
   93CHL1  H12B 9321   0.951   5.019   7.640  1.5254  2.2690 -1.0700
   93CHL1   C11 9322   0.788   5.080   7.497  0.2713  0.1538 -1.0184
   93CHL1  H11A 9323   0.715   5.164   7.497 -0.1796 -0.1950  0.5920
   93CHL1  H11B 9324   0.869   5.118   7.431 -1.2178  1.2168 -2.3107
   93CHL1    C9 9325   0.714   4.949   7.445  0.3647  0.2951  0.2034
   93CHL1    H9 9326   0.792   4.877   7.413  1.4208  1.1958  0.6970
   93CHL1   C10 9327   0.645   4.970   7.304  0.1615 -0.0042  0.1197
   93CHL1   C19 9328   0.549   5.097   7.305 -0.8034 -0.0621  0.1463
   93CHL1  H19A 9329   0.506   5.120   7.206 -1.8663  0.2874  0.6702
   93CHL1  H19B 9330   0.470   5.084   7.382 -0.4826 -0.2686  0.4455
   93CHL1  H19C 9331   0.612   5.187   7.320 -1.0840 -0.1782  2.3746
   93CHL1    C1 9332   0.746   4.979   7.195 -0.3601 -0.4650  0.1034
   93CHL1   H1A 9333   0.810   5.064   7.226 -0.7416  0.5015 -1.5967
   93CHL1   H1B 9334   0.826   4.902   7.191 -1.2292 -1.3824 -3.4881
   93CHL1    C2 9335   0.689   4.995   7.054 -0.1674  0.3280 -0.2616
   93CHL1   H2A 9336   0.768   4.988   6.977 -2.3681  1.0736 -2.7368
   93CHL1   H2B 9337   0.642   5.096   7.047 -2.8682 -0.6586  1.7460
   93CHL1   C20 9338   0.840   5.056   7.984  0.4851  0.0751 -0.8444
   93CHL1   H20 9339   0.754   5.127   7.983 -0.2850 -0.8241 -0.1050
   93CHL1   C21 9340   0.969   5.132   7.952 -0.5801  0.3773  0.2054
   93CHL1  H21A 9341   1.057   5.065   7.947  0.4120  1.6734 -0.0455
   93CHL1  H21B 9342   0.986   5.209   8.031  0.3438  0.5323 -0.1319
   93CHL1  H21C 9343   0.971   5.188   7.856 -0.6940  1.9996  1.0977
   93CHL1   C22 9344   0.855   5.002   8.126  0.1122 -0.1493 -0.0869
   93CHL1  H22A 9345   0.854   5.087   8.198  0.6608 -0.7504  0.6385
   93CHL1  H22B 9346   0.758   4.955   8.152 -0.9522  1.1681 -1.4516
   93CHL1   C23 9347   0.982   4.910   8.152  0.0303 -0.2124  0.1375
   93CHL1  H23A 9348   0.993   4.838   8.068  0.9887 -0.1185  0.1755
   93CHL1  H23B 9349   1.073   4.971   8.166  0.4905 -1.4687  3.4348
   93CHL1   C24 9350   0.963   4.822   8.278  0.5498  0.5517  0.1595
   93CHL1  H24A 9351   0.923   4.893   8.354  0.3647  2.4671 -1.6393
   93CHL1  H24B 9352   0.887   4.743   8.260  0.7671  0.3541  0.1082
   93CHL1   C25 9353   1.085   4.747   8.327 -0.1684 -0.1350  0.1309
   93CHL1   H25 9354   1.163   4.814   8.369 -1.0363 -1.0382  3.4569
   93CHL1   C26 9355   1.057   4.669   8.454 -0.1196  0.5575 -0.4007
   93CHL1  H26A 9356   1.134   4.598   8.490  0.3556  0.2000 -2.0287
   93CHL1  H26B 9357   1.033   4.733   8.542  1.0745  0.0053  0.3522
   93CHL1  H26C 9358   0.969   4.605   8.433 -0.4306 -0.4362  3.2605
   93CHL1   C27 9359   1.155   4.658   8.221 -0.2692  0.3133 -0.5646
   93CHL1  H27A 9360   1.167   4.713   8.125 -0.0711  2.4495  0.6278
   93CHL1  H27B 9361   1.261   4.641   8.251  0.4624  1.0867 -2.5422
   93CHL1  H27C 9362   1.092   4.568   8.200  0.0661 -0.3635  1.1772
   94CHL1    C3 9363   2.929   6.382   6.836 -0.3213  0.1160  0.0878
   94CHL1    H3 9364   2.895   6.484   6.809  1.1385  1.0446  1.5957
   94CHL1    O3 9365   2.932   6.309   6.717 -0.7844  0.5048  0.3532
   94CHL1   H3' 9366   3.021   6.315   6.682 -1.2852 -2.5296 -1.8100
   94CHL1    C4 9367   3.065   6.387   6.901 -0.7145 -0.1583 -0.0435
   94CHL1   H4A 9368   3.110   6.286   6.914  1.0767  0.5584 -0.3713
   94CHL1   H4B 9369   3.137   6.442   6.837 -0.2174  0.0272  0.6729
   94CHL1    C5 9370   3.054   6.459   7.033  0.0041  0.8461 -0.5033
   94CHL1    C6 9371   3.125   6.569   7.060  0.0660  0.3924 -0.0872
   94CHL1    H6 9372   3.197   6.609   6.988 -1.2234  1.9581 -0.5574
   94CHL1    C7 9373   3.130   6.635   7.195 -0.4340 -0.3036  0.2312
   94CHL1   H7A 9374   3.233   6.657   7.231 -0.3839 -0.8427  0.4256
   94CHL1   H7B 9375   3.073   6.729   7.184 -1.3593 -0.9720 -0.9988
   94CHL1    C8 9376   3.073   6.546   7.299  0.9564  0.0246 -0.2110
   94CHL1    H8 9377   3.138   6.457   7.314  0.5167 -0.0754  1.3402
   94CHL1   C14 9378   3.057   6.630   7.431  1.1520  0.7926  0.1561
   94CHL1   H14 9379   2.977   6.704   7.414  0.8409  0.2279 -0.9641
   94CHL1   C15 9380   3.175   6.702   7.487  0.2582 -0.4714 -0.3684
   94CHL1  H15A 9381   3.261   6.632   7.494 -0.8617 -1.9590 -0.9155
   94CHL1  H15B 9382   3.209   6.791   7.430 -0.7854 -0.1992 -0.5887
   94CHL1   C16 9383   3.134   6.725   7.631  0.0756  0.2859  0.7627
   94CHL1  H16A 9384   3.220   6.694   7.695  1.5602 -0.3048 -1.3755
   94CHL1  H16B 9385   3.115   6.830   7.661 -0.1362 -0.4657  3.6113
   94CHL1   C17 9386   3.002   6.644   7.659 -0.1064 -0.2511  0.2095
   94CHL1   H17 9387   2.931   6.729   7.648  0.9456  0.5746 -0.4424
   94CHL1   C13 9388   2.993   6.541   7.541 -0.6963  0.2105 -0.0312
   94CHL1   C18 9389   3.095   6.418   7.573  0.7764 -0.7408  0.5016
   94CHL1  H18A 9390   3.199   6.458   7.580 -0.2158  2.0127  1.0439
   94CHL1  H18B 9391   3.058   6.384   7.673  2.6809  0.0652  1.5338
   94CHL1  H18C 9392   3.084   6.344   7.492  2.7480  0.4819 -0.9653
   94CHL1   C12 9393   2.856   6.490   7.505  0.4017 -0.2808 -0.5400
   94CHL1  H12A 9394   2.828   6.412   7.579 -2.3021  1.0924  0.0262
   94CHL1  H12B 9395   2.782   6.572   7.512 -3.4246 -3.3113 -1.8762
   94CHL1   C11 9396   2.850   6.428   7.372  0.3279  0.8408  0.6577
   94CHL1  H11A 9397   2.882   6.322   7.384 -2.4437 -0.0906  0.5098
   94CHL1  H11B 9398   2.744   6.412   7.343  0.0479  0.7578  1.7164
   94CHL1    C9 9399   2.934   6.493   7.252  0.2128 -0.3078 -0.3804
   94CHL1    H9 9400   2.879   6.583   7.217  1.7213  1.0628  0.6143
   94CHL1   C10 9401   2.953   6.401   7.131  0.5965  0.1237 -0.5345
   94CHL1   C19 9402   3.008   6.255   7.170 -0.1837 -0.5488  1.0758
   94CHL1  H19A 9403   3.025   6.200   7.074 -1.4721 -0.5969  0.8595
   94CHL1  H19B 9404   3.109   6.263   7.216  1.4179  0.4854 -2.2942
   94CHL1  H19C 9405   2.939   6.199   7.237 -0.6144  0.6197  1.6348
   94CHL1    C1 9406   2.813   6.380   7.064  0.4161  0.1267 -0.9981
   94CHL1   H1A 9407   2.743   6.335   7.138  0.6029  0.5748 -0.5400
   94CHL1   H1B 9408   2.760   6.475   7.040  1.4712  1.1131  0.4000
   94CHL1    C2 9409   2.817   6.309   6.926  0.2831  0.5993  0.6245
   94CHL1   H2A 9410   2.717   6.302   6.877  0.3144 -0.6434  0.6975
   94CHL1   H2B 9411   2.863   6.209   6.939 -0.0177  0.4669  0.6765
   94CHL1   C20 9412   2.980   6.601   7.805 -0.1540  0.0692 -0.6291
   94CHL1   H20 9413   3.045   6.514   7.826 -2.1200 -0.9942  1.4803
   94CHL1   C21 9414   2.828   6.569   7.832  0.1374 -0.4947 -0.0270
   94CHL1  H21A 9415   2.774   6.664   7.847  1.7296  0.6033 -0.9478
   94CHL1  H21B 9416   2.820   6.513   7.928  1.7987  0.3818  0.6687
   94CHL1  H21C 9417   2.779   6.517   7.747 -0.0345  2.4657 -1.8790
   94CHL1   C22 9418   3.036   6.703   7.897  0.0058 -0.0926 -0.1120
   94CHL1  H22A 9419   3.146   6.711   7.890 -0.1427  1.6371 -0.9761
   94CHL1  H22B 9420   3.005   6.808   7.879 -1.5074 -0.3396  0.8059
   94CHL1   C23 9421   3.024   6.668   8.052  0.1939 -0.4047  0.7913
   94CHL1  H23A 9422   2.922   6.630   8.073 -0.4012  0.1011 -0.9690
   94CHL1  H23B 9423   3.086   6.578   8.075 -0.8499 -2.6070 -3.7203
   94CHL1   C24 9424   3.070   6.783   8.151 -0.2858  0.5091  0.3130
   94CHL1  H24A 9425   3.154   6.845   8.114 -0.0281  1.5406  2.4870
   94CHL1  H24B 9426   2.997   6.866   8.157  0.2919  1.0909 -0.5945
   94CHL1   C25 9427   3.089   6.735   8.297 -0.0393 -0.1935 -0.8688
   94CHL1   H25 9428   3.148   6.642   8.286  0.2656  0.1430 -2.2389
   94CHL1   C26 9429   3.169   6.847   8.374 -0.2983 -0.6687 -0.6376
   94CHL1  H26A 9430   3.170   6.821   8.482  0.8699 -0.9775 -0.7176
   94CHL1  H26B 9431   3.271   6.860   8.333 -0.4164 -0.3874 -0.8476
   94CHL1  H26C 9432   3.125   6.950   8.368  1.3864  0.0383 -1.4845
   94CHL1   C27 9433   2.955   6.695   8.364 -0.6277 -0.8495 -0.5244
   94CHL1  H27A 9434   2.904   6.793   8.374 -0.4668 -0.6073 -1.8742
   94CHL1  H27B 9435   2.893   6.628   8.300  0.9376 -1.3765 -1.5671
   94CHL1  H27C 9436   2.969   6.649   8.464 -0.5861 -2.0034 -1.0401
   95CHL1    C3 9437   2.999   4.875   6.926  0.4209  0.3742  0.0807
   95CHL1    H3 9438   2.899   4.867   6.975  0.9966 -0.2574  1.1808
   95CHL1    O3 9439   2.986   4.950   6.802  0.0372  0.1114  0.0319
   95CHL1   H3' 9440   3.071   4.933   6.760 -0.0479 -2.7307  0.7996
   95CHL1    C4 9441   3.097   4.955   7.015 -0.2086  0.4022  0.4334
   95CHL1   H4A 9442   3.191   4.978   6.960 -0.1985 -0.3516  0.1267
   95CHL1   H4B 9443   3.053   5.055   7.032 -0.6092  1.2861 -4.4356
   95CHL1    C5 9444   3.119   4.878   7.140 -0.3774 -0.7691 -0.5945
   95CHL1    C6 9445   3.092   4.942   7.255  0.0354  0.4820  0.3309
   95CHL1    H6 9446   3.080   5.051   7.246  2.0790  0.7172  0.0681
   95CHL1    C7 9447   3.112   4.885   7.393 -0.1256 -0.0815  0.2544
   95CHL1   H7A 9448   3.155   4.968   7.453 -1.9019  1.7841 -0.9359
   95CHL1   H7B 9449   3.015   4.858   7.440 -0.0488 -0.1016  0.4003
   95CHL1    C8 9450   3.193   4.746   7.380  0.2818 -0.6275  0.0794
   95CHL1    H8 9451   3.298   4.778   7.363  1.0448 -2.3518  1.2431
   95CHL1   C14 9452   3.186   4.669   7.512  0.6744  0.5418  0.0485
   95CHL1   H14 9453   3.077   4.660   7.528  0.7788  1.8574  1.9206
   95CHL1   C15 9454   3.222   4.741   7.641  0.7784 -0.2261 -0.0441
   95CHL1  H15A 9455   3.325   4.780   7.647 -0.5889  3.5249  3.9337
   95CHL1  H15B 9456   3.143   4.817   7.661  0.4312 -0.3444 -0.9117
   95CHL1   C16 9457   3.226   4.627   7.750 -0.0657 -0.4530 -0.5652
   95CHL1  H16A 9458   3.318   4.642   7.811 -2.2256  1.1687  2.6020
   95CHL1  H16B 9459   3.141   4.644   7.820  0.3157 -1.1250  0.0686
   95CHL1   C17 9460   3.212   4.491   7.667  0.1162  0.3234  0.3588
   95CHL1   H17 9461   3.105   4.460   7.675 -0.0610  0.7284 -0.3853
   95CHL1   C13 9462   3.248   4.530   7.521 -0.6272  0.2017 -0.7629
   95CHL1   C18 9463   3.393   4.537   7.495 -0.0902  0.2137  0.1935
   95CHL1  H18A 9464   3.423   4.445   7.441 -0.5992  0.3988 -0.4209
   95CHL1  H18B 9465   3.418   4.631   7.441 -0.6730  0.8677  1.0412
   95CHL1  H18C 9466   3.456   4.541   7.586 -1.3131  0.3122  1.0569
   95CHL1   C12 9467   3.178   4.441   7.413 -0.0003 -0.8448 -0.2434
   95CHL1  H12A 9468   3.215   4.336   7.405  3.8598  0.2925  0.5228
   95CHL1  H12B 9469   3.070   4.444   7.440 -0.2593  1.5346 -1.3335
   95CHL1   C11 9470   3.184   4.505   7.268  0.3250  0.1787  0.4798
   95CHL1  H11A 9471   3.291   4.498   7.239  0.2453 -1.6507  0.4965
   95CHL1  H11B 9472   3.129   4.431   7.205  0.6047 -0.5752  1.1112
   95CHL1    C9 9473   3.134   4.657   7.266 -0.7820  0.1902  0.4344
   95CHL1    H9 9474   3.025   4.660   7.288 -0.3694  1.2167  2.5917
   95CHL1   C10 9475   3.154   4.725   7.122 -0.3377  0.2265  0.5691
   95CHL1   C19 9476   3.309   4.713   7.085 -0.0495 -0.2872  0.2423
   95CHL1  H19A 9477   3.345   4.777   7.002 -2.6928 -1.1065 -1.6993
   95CHL1  H19B 9478   3.369   4.734   7.176 -0.6106  1.6540  0.2047
   95CHL1  H19C 9479   3.323   4.608   7.053  0.5213  0.4113 -1.9785
   95CHL1    C1 9480   3.080   4.647   7.021 -0.2702 -0.0974 -0.0750
   95CHL1   H1A 9481   3.135   4.555   6.992  0.0439  0.3817 -1.0698
   95CHL1   H1B 9482   2.977   4.615   7.047 -1.0432  1.0863 -1.4760
   95CHL1    C2 9483   3.056   4.735   6.895 -0.5038  0.8972  0.4730
   95CHL1   H2A 9484   3.007   4.684   6.809  1.5886 -0.4060 -0.0079
   95CHL1   H2B 9485   3.158   4.750   6.855 -0.2396 -0.3574  0.6199
   95CHL1   C20 9486   3.298   4.387   7.734  0.1479 -0.1158 -0.1932
   95CHL1   H20 9487   3.405   4.418   7.732  0.4104 -0.7662  1.7014
   95CHL1   C21 9488   3.292   4.247   7.671  0.6175 -0.3676 -0.5212
   95CHL1  H21A 9489   3.191   4.201   7.671  0.8829 -1.0179  0.9585
   95CHL1  H21B 9490   3.361   4.181   7.729 -0.6207 -0.4473  0.9494
   95CHL1  H21C 9491   3.334   4.259   7.570  1.2122  2.1749 -0.0312
   95CHL1   C22 9492   3.279   4.371   7.891  0.2621 -0.6068  0.4133
   95CHL1  H22A 9493   3.285   4.473   7.936 -2.0183  0.5589 -1.6922
   95CHL1  H22B 9494   3.175   4.335   7.909 -0.1305  0.5408  0.5173
   95CHL1   C23 9495   3.379   4.280   7.959  0.2372 -0.2075  0.3410
   95CHL1  H23A 9496   3.365   4.173   7.934  2.3021 -0.1918 -1.1036
   95CHL1  H23B 9497   3.475   4.317   7.918 -0.8507 -1.7298 -4.1750
   95CHL1   C24 9498   3.379   4.290   8.110  0.1859 -0.1459 -0.5349
   95CHL1  H24A 9499   3.385   4.397   8.139  0.9589  0.4730 -2.7560
   95CHL1  H24B 9500   3.282   4.253   8.148  0.7173  1.2777  2.4844
   95CHL1   C25 9501   3.490   4.217   8.187 -0.2276 -0.2976 -0.1648
   95CHL1   H25 9502   3.475   4.109   8.166 -1.0085  0.0224 -1.3830
   95CHL1   C26 9503   3.632   4.260   8.135  0.2848 -0.7609  0.2675
   95CHL1  H26A 9504   3.702   4.197   8.195  0.8054  2.2768  3.1302
   95CHL1  H26B 9505   3.632   4.237   8.026 -1.5072  0.8320 -0.1215
   95CHL1  H26C 9506   3.652   4.369   8.144 -2.2959  0.1709 -3.2245
   95CHL1   C27 9507   3.483   4.232   8.341  0.3612 -0.6466  0.3647
   95CHL1  H27A 9508   3.385   4.189   8.371  1.3118 -1.0961  3.1024
   95CHL1  H27B 9509   3.576   4.178   8.367  1.1086 -0.0587 -0.9706
   95CHL1  H27C 9510   3.481   4.340   8.369 -0.7751 -0.9432  1.5237
   96CHL1    C3 9511   1.546   5.450   7.065  0.6428 -0.0630  0.3080
   96CHL1    H3 9512   1.444   5.469   7.106 -0.0630  1.6160 -1.9826
   96CHL1    O3 9513   1.539   5.458   6.926 -0.0897 -0.2799  0.4168
   96CHL1   H3' 9514   1.626   5.469   6.888 -1.2879  0.2924 -2.4776
   96CHL1    C4 9515   1.654   5.551   7.116 -0.3262 -0.2044 -0.5242
   96CHL1   H4A 9516   1.749   5.541   7.060  0.3000 -0.8094  0.6254
   96CHL1   H4B 9517   1.618   5.649   7.078 -0.9553 -0.4242 -0.5198
   96CHL1    C5 9518   1.661   5.543   7.272 -0.5846  0.1324  0.6879
   96CHL1    C6 9519   1.623   5.637   7.356 -0.3299  0.0768  0.1790
   96CHL1    H6 9520   1.586   5.733   7.317 -0.8860 -0.3522 -0.3694
   96CHL1    C7 9521   1.625   5.624   7.505  0.7937 -0.0997 -0.1134
   96CHL1   H7A 9522   1.635   5.725   7.551 -0.4818  0.4817 -1.0446
   96CHL1   H7B 9523   1.520   5.594   7.527  0.8163  0.1314  0.3307
   96CHL1    C8 9524   1.724   5.508   7.546 -0.2737  0.5747  0.5551
   96CHL1    H8 9525   1.821   5.546   7.507 -1.2464  1.7558 -0.8187
   96CHL1   C14 9526   1.719   5.491   7.693 -0.9200  0.6044 -0.8768
   96CHL1   H14 9527   1.615   5.460   7.714 -0.1209 -1.4297  0.3921
   96CHL1   C15 9528   1.755   5.612   7.784  0.6043 -0.2913  0.7736
   96CHL1  H15A 9529   1.850   5.653   7.742 -1.7007  3.1702 -1.5582
   96CHL1  H15B 9530   1.685   5.697   7.769 -1.1419 -1.8822 -0.4469
   96CHL1   C16 9531   1.772   5.553   7.922 -0.0121 -0.5167 -0.2331
   96CHL1  H16A 9532   1.872   5.587   7.959  1.4761 -3.0879 -1.6053
   96CHL1  H16B 9533   1.691   5.582   7.992  0.3311  0.6501 -0.2848
   96CHL1   C17 9534   1.775   5.398   7.900 -0.6923  0.6099  0.4806
   96CHL1   H17 9535   1.671   5.361   7.907 -0.7580 -0.2467 -2.9918
   96CHL1   C13 9536   1.802   5.372   7.750  0.4872  0.2267 -0.0291
   96CHL1   C18 9537   1.953   5.390   7.722 -0.4423  0.1351 -0.2634
   96CHL1  H18A 9538   1.994   5.481   7.770 -0.7924  1.9302 -3.1304
   96CHL1  H18B 9539   2.003   5.305   7.774 -0.8032  1.0813  1.7190
   96CHL1  H18C 9540   1.991   5.395   7.618  0.1543 -3.8247 -0.4131
   96CHL1   C12 9541   1.751   5.239   7.683 -0.6229 -0.1850  0.4484
   96CHL1  H12A 9542   1.819   5.156   7.713  0.0323  0.3756  0.5492
   96CHL1  H12B 9543   1.649   5.213   7.718 -1.4822  1.1543 -0.9310
   96CHL1   C11 9544   1.760   5.249   7.528  0.4723  0.3832  0.2440
   96CHL1  H11A 9545   1.868   5.248   7.505  0.8239 -0.6392  1.8064
   96CHL1  H11B 9546   1.705   5.156   7.501  0.4232  0.0396  1.4760
   96CHL1    C9 9547   1.685   5.375   7.474  0.1476 -0.0273  1.3624
   96CHL1    H9 9548   1.578   5.362   7.500 -1.0418  4.4840 -0.2713
   96CHL1   C10 9549   1.698   5.399   7.322 -0.5386  0.1719 -0.4388
   96CHL1   C19 9550   1.849   5.376   7.300  0.0387  0.6317 -0.2335
   96CHL1  H19A 9551   1.912   5.450   7.352 -2.3488  1.8377  1.1143
   96CHL1  H19B 9552   1.894   5.277   7.323  4.3035  2.2830 -0.6288
   96CHL1  H19C 9553   1.866   5.387   7.190 -0.2328  1.2608 -0.2149
   96CHL1    C1 9554   1.614   5.293   7.253  0.3998 -0.6982  0.3249
   96CHL1   H1A 9555   1.655   5.190   7.261 -2.7842 -2.2312 -1.5363
   96CHL1   H1B 9556   1.510   5.287   7.292 -0.0822  1.2546 -0.5526
   96CHL1    C2 9557   1.593   5.306   7.101  0.3288 -0.4751  0.1907
   96CHL1   H2A 9558   1.516   5.231   7.070 -1.0863  0.2500  1.7532
   96CHL1   H2B 9559   1.695   5.286   7.062  0.5043  1.2884 -0.3550
   96CHL1   C20 9560   1.857   5.328   8.007 -0.3575 -0.0618 -0.8476
   96CHL1   H20 9561   1.963   5.359   7.998 -0.3136  0.4233  0.9356
   96CHL1   C21 9562   1.858   5.172   7.992 -0.3403  0.1345  0.1527
   96CHL1  H21A 9563   1.915   5.121   8.073  0.6337  1.3074  0.2263
   96CHL1  H21B 9564   1.895   5.143   7.891 -4.2579 -0.8827 -1.1831
   96CHL1  H21C 9565   1.752   5.141   8.003  0.6052 -3.5742  0.3781
   96CHL1   C22 9566   1.810   5.356   8.148  0.4548  0.6023  0.1932
   96CHL1  H22A 9567   1.798   5.465   8.167 -1.4021  0.3733  0.4583
   96CHL1  H22B 9568   1.709   5.314   8.165  0.6287 -0.4702 -1.2120
   96CHL1   C23 9569   1.907   5.308   8.262  0.4478 -0.4647 -0.1563
   96CHL1  H23A 9570   1.930   5.200   8.249  3.4285 -0.1375  1.4249
   96CHL1  H23B 9571   1.996   5.374   8.257 -1.0465  2.0719  2.7400
   96CHL1   C24 9572   1.838   5.319   8.399 -0.1128 -0.6198 -0.5179
   96CHL1  H24A 9573   1.816   5.426   8.420 -0.2411 -1.0881  2.0839
   96CHL1  H24B 9574   1.744   5.261   8.411 -1.4086  1.2855 -1.0295
   96CHL1   C25 9575   1.932   5.266   8.512 -0.8451 -0.0967 -0.1208
   96CHL1   H25 9576   1.961   5.162   8.488 -0.6668 -0.5178  1.7568
   96CHL1   C26 9577   2.070   5.337   8.523  0.5631 -0.2709 -0.0477
   96CHL1  H26A 9578   2.057   5.441   8.561  2.6747  0.0475 -0.0740
   96CHL1  H26B 9579   2.136   5.294   8.601 -0.0733  2.0611  1.9050
   96CHL1  H26C 9580   2.125   5.346   8.427  0.4252 -1.5006 -0.2478
   96CHL1   C27 9581   1.854   5.264   8.642 -0.0263  0.5962 -0.3857
   96CHL1  H27A 9582   1.765   5.197   8.637 -0.4060  1.2031 -2.0910
   96CHL1  H27B 9583   1.928   5.224   8.715  0.1209  0.0400 -0.8292
   96CHL1  H27C 9584   1.828   5.368   8.667 -0.6150  0.4305 -0.3000
   97OSM      N 9585   6.059   3.898  11.249 -0.0940 -0.6353 -0.7319
   97OSM    C15 9586   6.113   3.927  11.109 -0.1146  0.2797 -0.2401
   97OSM   H15A 9587   6.053   3.865  11.045 -0.0914 -2.3415  2.1133
   97OSM   H15B 9588   6.213   3.892  11.089 -0.5674 -0.2248 -1.7770
   97OSM   H15C 9589   6.098   4.030  11.077  1.7931  0.1994 -1.5783
   97OSM    C14 9590   6.175   3.943  11.337  0.3997  0.1313  0.0963
   97OSM   H14A 9591   6.208   4.045  11.325 -1.0538  1.1017  3.2665
   97OSM   H14B 9592   6.260   3.879  11.322  0.1272 -1.0259  2.9953
   97OSM   H14C 9593   6.157   3.928  11.442 -1.4021 -0.0572 -0.2053
   97OSM    C13 9594   5.943   3.988  11.275 -0.4397  0.7495  0.7404
   97OSM   H13A 9595   5.905   3.959  11.372  0.0496  1.4126  1.1452
   97OSM   H13B 9596   5.868   3.978  11.199 -0.1481  2.2210  0.2414
   97OSM   H13C 9597   5.982   4.088  11.276 -1.1805  1.0597 -0.4668
   97OSM    C12 9598   6.022   3.756  11.269 -0.1927  0.3072 -0.0746
   97OSM   H12A 9599   6.006   3.736  11.374 -0.9123  0.1205 -0.2131
   97OSM   H12B 9600   6.107   3.692  11.248 -1.0015 -0.3141 -1.6354
   97OSM    C11 9601   5.904   3.705  11.176 -0.4462  0.6631  0.3449
   97OSM   H11A 9602   5.814   3.746  11.225 -0.4603 -1.3354  2.1382
   97OSM   H11B 9603   5.900   3.594  11.188  1.0018  0.4234 -0.9552
   97OSM      P 9604   5.791   3.786  10.954  0.2651 -0.2955  0.3421
   97OSM    O13 9605   5.667   3.709  10.996  0.2260 -0.4473 -0.0890
   97OSM    O14 9606   5.781   3.930  10.978  0.6396 -1.1349  0.3596
   97OSM    O11 9607   5.826   3.764  10.805  0.2682 -0.5705  0.0872
   97OSM    O12 9608   5.918   3.734  11.035  0.1090 -0.0148  0.1381
   97OSM    C1S 9609   5.952   3.799  10.745  1.0473 -0.5716 -0.2750
   97OSM    H1S 9610   6.035   3.762  10.808  2.3162  1.1116 -0.8881
   97OSM    H1T 9611   5.967   3.908  10.754  1.9116 -0.8312  2.2808
   97OSM     NF 9612   6.102   3.762  10.555  0.3307 -1.4309 -0.5514
   97OSM    HNF 9613   6.111   3.840  10.494  1.7222 -0.5637  0.6914
   97OSM    C2S 9614   5.967   3.738  10.603 -1.2894 -0.1583  0.5200
   97OSM    H2S 9615   5.944   3.629  10.602 -0.8233 -0.2846 -1.3651
   97OSM    C3S 9616   5.855   3.801  10.511  0.2039  0.4031 -0.1830
   97OSM    H3S 9617   5.874   3.910  10.506  2.1800  0.3373  3.0325
   97OSM     O3 9618   5.726   3.792  10.559  0.0572  0.0224 -0.1720
   97OSM    HO3 9619   5.752   3.755  10.644 -0.6896 -0.3185 -0.0826
   97OSM    C4S 9620   5.881   3.739  10.368  0.1455  0.4114 -0.2140
   97OSM    H4S 9621   5.965   3.788  10.317 -1.3672  2.1263 -1.2057
   97OSM    C5S 9622   5.823   3.637  10.307  0.2426 -0.4581 -0.1607
   97OSM    H5S 9623   5.743   3.585  10.363  2.4390 -0.1404  3.6659
   97OSM    C6S 9624   5.855   3.584  10.173 -0.0935 -0.1676  0.0622
   97OSM    H6S 9625   5.782   3.617  10.097  0.8890 -2.6986 -2.1577
   97OSM    H6T 9626   5.846   3.473  10.169  0.8188 -0.2592  0.2683
   97OSM    C7S 9627   5.997   3.611  10.115 -0.1652 -0.3821  0.3513
   97OSM    H7S 9628   6.076   3.580  10.187  1.0263 -0.9027 -1.1218
   97OSM    H7T 9629   6.016   3.720  10.104  1.8366 -0.7455 -0.3309
   97OSM    C8S 9630   6.024   3.534   9.983  1.1085 -0.7322 -0.8773
   97OSM    H8S 9631   5.958   3.446   9.999 -3.9338  2.6793 -0.6145
   97OSM    H8T 9632   6.132   3.510   9.969  1.3312  0.1134 -0.6931
   97OSM    C9S 9633   5.971   3.602   9.849 -0.9978  0.1473 -0.2360
   97OSM    H9S 9634   5.994   3.711   9.852 -0.8614  0.1207 -0.2719
   97OSM    H9T 9635   5.862   3.589   9.836 -0.7572  0.6778 -4.1588
   97OSM   C10S 9636   6.036   3.529   9.726  0.0477  0.4824 -0.1913
   97OSM   H10S 9637   6.021   3.419   9.725 -1.7120  0.6620  1.2583
   97OSM   H10T 9638   6.145   3.545   9.743  0.3799 -0.0918 -1.6657
   97OSM   C11S 9639   6.014   3.597   9.585 -0.0718  0.1773 -0.0967
   97OSM   H11S 9640   6.066   3.695   9.587  0.5612 -0.1324 -0.9383
   97OSM   H11T 9641   5.906   3.622   9.574  0.0620  0.5182 -0.6780
   97OSM   C12S 9642   6.074   3.523   9.468 -0.8243 -0.5145 -0.1696
   97OSM   H12S 9643   6.043   3.417   9.480 -0.8900 -0.2271  2.9083
   97OSM   H12T 9644   6.184   3.534   9.458 -0.9008  1.4799  0.8036
   97OSM   C13S 9645   6.024   3.576   9.334 -0.2587 -0.6492  0.1650
   97OSM   H13S 9646   6.022   3.687   9.330 -0.4404 -0.6768 -1.5739
   97OSM   H13T 9647   5.917   3.547   9.324 -0.5148  0.1256  0.5649
   97OSM   C14S 9648   6.100   3.528   9.214  0.0539 -0.6165  0.0111
   97OSM   H14S 9649   6.118   3.418   9.215 -0.5955 -0.7313 -0.4480
   97OSM   H14T 9650   6.198   3.581   9.216 -0.9502  1.3264 -0.5446
   97OSM   C15S 9651   6.022   3.551   9.081  0.7125 -0.7996  0.2126
   97OSM   H15S 9652   5.997   3.658   9.073 -2.4503 -1.2692  2.0599
   97OSM   H15T 9653   5.931   3.487   9.088  0.4692 -0.7664 -2.0481
   97OSM   C16S 9654   6.105   3.493   8.959 -0.0439  0.4923  0.0571
   97OSM   H16S 9655   6.050   3.487   8.863  1.1790  0.2803 -0.6496
   97OSM   H16T 9656   6.130   3.388   8.986  1.0310  0.1051 -2.2290
   97OSM   C17S 9657   6.238   3.568   8.935  0.3619 -1.0356 -0.1827
   97OSM   H17S 9658   6.297   3.585   9.028  3.1228  1.5483 -2.2014
   97OSM   H17T 9659   6.213   3.671   8.903 -0.9821  0.0171  3.6475
   97OSM   C18S 9660   6.326   3.493   8.846  0.2724 -0.4820  0.1399
   97OSM   H18S 9661   6.356   3.401   8.901  1.5348  0.1939  0.6200
   97OSM   H18T 9662   6.416   3.555   8.826 -1.4175  1.3989 -2.2813
   97OSM   H18U 9663   6.275   3.473   8.749  0.5307 -1.2673  0.1589
   97OSM    C1F 9664   6.207   3.711  10.607  0.1125 -0.9389 -0.6467
   97OSM     OF 9665   6.197   3.613  10.682 -0.2596  0.5061  1.3404
   97OSM    C2F 9666   6.342   3.773  10.579  0.2958 -0.1126  0.0225
   97OSM    H2F 9667   6.380   3.802  10.679 -0.4497 -1.1331  0.6064
   97OSM    H2G 9668   6.324   3.866  10.519 -1.2454 -0.9694 -0.9119
   97OSM    C3F 9669   6.425   3.672  10.497  0.4042 -0.1358  0.1724
   97OSM    H3F 9670   6.431   3.569  10.538 -1.3650 -0.9206 -1.3790
   97OSM    H3G 9671   6.530   3.708  10.492  0.9072 -1.5278  0.3895
   97OSM    C4F 9672   6.371   3.652  10.363  0.2138 -0.3042  0.1208
   97OSM    H4F 9673   6.350   3.741  10.300  3.8796 -0.5678 -1.7516
   97OSM    H4G 9674   6.274   3.599  10.366  0.5455 -0.9133  0.2170
   97OSM    C5F 9675   6.481   3.578  10.276 -0.3138 -0.0450  0.0441
   97OSM    H5F 9676   6.539   3.512  10.345 -0.2087  0.0291  0.0274
   97OSM    H5G 9677   6.550   3.662  10.252  1.5266 -1.5601 -0.2076
   97OSM    C6F 9678   6.427   3.506  10.159  0.2533  0.4911  0.5447
   97OSM    H6F 9679   6.388   3.578  10.084  1.1864 -0.3420 -0.7882
   97OSM    H6G 9680   6.348   3.440  10.199  1.9715 -2.2066 -0.2704
   97OSM    C7F 9681   6.534   3.429  10.091 -0.2934  0.4541 -0.4019
   97OSM    H7F 9682   6.573   3.339  10.144 -1.1045  0.1065 -0.3836
   97OSM    H7G 9683   6.618   3.495  10.060 -2.3421  2.1794 -2.6021
   97OSM    C8F 9684   6.479   3.374   9.956  0.0304  0.6950  0.2925
   97OSM    H8F 9685   6.380   3.335   9.990  0.4310 -1.5980 -0.9761
   97OSM    H8G 9686   6.543   3.294   9.913  0.9910  3.0135 -3.0074
   97OSM    C9F 9687   6.466   3.473   9.843  0.2233  0.5262 -0.3533
   97OSM    H9F 9688   6.462   3.571   9.892  0.4295  0.8678 -1.0016
   97OSM   C10F 9689   6.470   3.457   9.709 -0.3764 -0.0136  0.0475
   97OSM   H10F 9690   6.461   3.538   9.635  2.2610 -1.3508 -1.8978
   97OSM   C11F 9691   6.495   3.324   9.643 -0.8426 -0.2119  0.0624
   97OSM   H11F 9692   6.395   3.294   9.604 -0.0591 -0.5137 -1.8272
   97OSM   H11G 9693   6.541   3.249   9.712 -3.0386 -0.4506  1.3524
   97OSM   C12F 9694   6.597   3.330   9.525 -0.3102  0.0119 -0.3473
   97OSM   H12F 9695   6.627   3.228   9.493 -0.4334  0.6895 -2.8962
   97OSM   H12G 9696   6.688   3.387   9.556  0.6357 -1.3896 -0.4258
   97OSM   C13F 9697   6.543   3.388   9.395 -0.1020 -0.5359  0.0729
   97OSM   H13F 9698   6.505   3.492   9.398  0.5523 -0.2524 -0.9494
   97OSM   H13G 9699   6.459   3.322   9.364  0.8307 -1.7704  0.0674
   97OSM   C14F 9700   6.650   3.372   9.285  0.3824 -0.6766 -0.3752
   97OSM   H14F 9701   6.691   3.270   9.300  2.3477 -0.2321 -2.3032
   97OSM   H14G 9702   6.738   3.440   9.291 -0.0717  0.0171 -1.3306
   97OSM   C15F 9703   6.593   3.392   9.147 -0.7954  0.8912  0.6764
   97OSM   H15F 9704   6.557   3.497   9.136  1.4317  1.6396 -0.1758
   97OSM   H15G 9705   6.505   3.329   9.124  1.0469 -1.0733 -1.5849
   97OSM   C16F 9706   6.696   3.352   9.036  0.1270  0.3071 -0.2532
   97OSM   H16F 9707   6.791   3.389   9.081 -1.8669 -0.3447  5.3168
   97OSM   H16G 9708   6.669   3.409   8.945 -4.2313 -1.2110 -0.1391
   97OSM   C17F 9709   6.716   3.201   9.002  0.5969  0.1116 -0.6886
   97OSM   H17F 9710   6.621   3.152   8.971 -0.8370  2.6236 -0.4949
   97OSM   H17G 9711   6.743   3.154   9.099  1.6298  1.3359 -0.3675
   97OSM   C18F 9712   6.827   3.177   8.903 -0.2313 -0.3499 -0.3446
   97OSM   H18F 9713   6.790   3.168   8.798  1.9725 -1.1416 -1.1284
   97OSM   H18G 9714   6.886   3.087   8.929 -0.9832 -2.1366 -4.0792
   97OSM   H18H 9715   6.894   3.266   8.901  0.6882 -1.0328 -1.0547
   98OSM      N 9716   5.788   1.666  11.334  0.5043  0.5449  0.3614
   98OSM    C15 9717   5.691   1.732  11.421  0.2384  0.3302  0.3793
   98OSM   H15A 9718   5.625   1.800  11.369  2.7412  2.0204 -0.7942
   98OSM   H15B 9719   5.741   1.799  11.490  0.5402  2.2583 -1.5975
   98OSM   H15C 9720   5.639   1.658  11.479  3.4070 -2.8045 -0.4336
   98OSM    C14 9721   5.867   1.780  11.272  0.3394  0.0439  0.3323
   98OSM   H14A 9722   5.948   1.734  11.217 -1.2315 -2.1948 -0.2505
   98OSM   H14B 9723   5.902   1.832  11.360  3.3319 -1.1937 -0.0065
   98OSM   H14C 9724   5.810   1.838  11.201  0.2115  0.4707  0.7793
   98OSM    C13 9725   5.862   1.570  11.422 -0.1099 -0.7127 -0.6152
   98OSM   H13A 9726   5.798   1.515  11.490  3.0031 -4.2586 -0.2398
   98OSM   H13B 9727   5.933   1.621  11.484 -1.1137  0.6392 -0.5217
   98OSM   H13C 9728   5.919   1.506  11.356  0.7764  0.8974 -1.4482
   98OSM    C12 9729   5.719   1.587  11.223  0.0855 -0.0750 -0.2355
   98OSM   H12A 9730   5.635   1.645  11.187 -0.3464 -0.5817 -0.0607
   98OSM   H12B 9731   5.671   1.502  11.270  0.8695 -0.2616  0.2481
   98OSM    C11 9732   5.810   1.542  11.107 -0.2211 -0.1616 -0.2477
   98OSM   H11A 9733   5.850   1.633  11.058 -1.6191  0.4435 -0.3359
   98OSM   H11B 9734   5.736   1.492  11.041 -0.9387 -0.4999  0.7884
   98OSM      P 9735   6.054   1.452  11.089  0.1714 -0.3318 -0.6366
   98OSM    O13 9736   6.160   1.437  11.190  0.3805  0.2231  0.1132
   98OSM    O14 9737   6.058   1.364  10.976  0.5614 -0.0187 -0.0620
   98OSM    O11 9738   6.069   1.603  11.042 -0.2946 -0.3972 -0.3205
   98OSM    O12 9739   5.910   1.453  11.160  0.5529  0.0795  0.7102
   98OSM    C1S 9740   6.122   1.617  10.906 -0.0293 -0.6589 -0.6869
   98OSM    H1S 9741   6.060   1.567  10.829  0.1689  0.0545 -1.3187
   98OSM    H1T 9742   6.224   1.573  10.892 -1.2917 -3.4050 -1.9539
   98OSM     NF 9743   6.210   1.768  10.744  0.1084  0.1544  0.4639
   98OSM    HNF 9744   6.306   1.794  10.755 -0.3172  1.7342  0.6766
   98OSM    C2S 9745   6.128   1.767  10.866  0.4951  0.1474  0.0880
   98OSM    H2S 9746   6.023   1.798  10.850  0.0765 -0.9310  0.6011
   98OSM    C3S 9747   6.192   1.854  10.977 -0.4299  0.3195 -0.5217
   98OSM    H3S 9748   6.299   1.822  10.972 -0.0666  1.4909 -0.7524
   98OSM     O3 9749   6.159   1.834  11.114 -0.3464  0.4413 -0.3617
   98OSM    HO3 9750   6.131   1.742  11.112  1.7396 -0.2531 -0.0325
   98OSM    C4S 9751   6.192   1.999  10.942  0.6742 -0.2021 -0.3191
   98OSM    H4S 9752   6.294   2.033  10.919  1.4358 -1.4999  0.9983
   98OSM    C5S 9753   6.085   2.079  10.945  0.5007  0.6744  0.1720
   98OSM    H5S 9754   5.985   2.037  10.966  1.3157 -0.6566  1.5908
   98OSM    C6S 9755   6.098   2.224  10.921  0.0536  0.3012  0.6214
   98OSM    H6S 9756   6.183   2.256  10.985  1.7371 -0.1853 -1.2457
   98OSM    H6T 9757   6.005   2.267  10.963 -2.1264 -1.4235 -2.0958
   98OSM    C7S 9758   6.107   2.283  10.778 -0.0995  0.3536  0.8399
   98OSM    H7S 9759   6.107   2.394  10.783  0.6461  0.3290  1.9759
   98OSM    H7T 9760   6.015   2.242  10.732 -0.6742  1.1759  1.2307
   98OSM    C8S 9761   6.236   2.239  10.697  0.3991 -0.3437 -1.0624
   98OSM    H8S 9762   6.230   2.133  10.663  2.3775 -0.9057  0.1774
   98OSM    H8T 9763   6.323   2.243  10.767 -0.0483  0.0075 -0.5200
   98OSM    C9S 9764   6.248   2.322  10.573  0.0698 -0.2154 -0.1401
   98OSM    H9S 9765   6.292   2.416  10.612  0.1397 -1.2450  2.4205
   98OSM    H9T 9766   6.149   2.360  10.541  0.5408  0.8628 -0.3419
   98OSM   C10S 9767   6.342   2.257  10.481  0.0129  0.1843  0.2993
   98OSM   H10S 9768   6.293   2.170  10.432  0.9917 -0.6227  0.7028
   98OSM   H10T 9769   6.432   2.230  10.540 -0.7309 -0.3144  1.2301
   98OSM   C11S 9770   6.402   2.356  10.380  0.0555 -0.2294  0.4514
   98OSM   H11S 9771   6.480   2.424  10.420 -1.3763  2.1988 -0.7165
   98OSM   H11T 9772   6.315   2.419  10.355  0.0447 -0.7672 -0.9213
   98OSM   C12S 9773   6.455   2.282  10.252 -0.5125 -0.3708 -0.1209
   98OSM   H12S 9774   6.394   2.191  10.240 -2.9964  0.9728  1.4840
   98OSM   H12T 9775   6.555   2.236  10.266 -0.5635 -0.2350  0.7656
   98OSM   C13S 9776   6.457   2.381  10.133 -0.6016 -0.5391 -0.1220
   98OSM   H13S 9777   6.562   2.397  10.099 -0.1714  0.5058  1.6050
   98OSM   H13T 9778   6.412   2.477  10.166  0.1420 -0.4434  0.6367
   98OSM   C14S 9779   6.386   2.332  10.009 -0.4186  0.8678 -0.4658
   98OSM   H14S 9780   6.282   2.318  10.044  0.3030 -0.4960  1.2622
   98OSM   H14T 9781   6.425   2.230   9.991  0.2926  1.0449  0.0143
   98OSM   C15S 9782   6.386   2.407   9.872 -0.5582 -0.4817  0.2607
   98OSM   H15S 9783   6.455   2.493   9.886 -1.8690  0.9836 -1.6819
   98OSM   H15T 9784   6.285   2.446   9.846 -0.2211 -0.5889 -1.3087
   98OSM   C16S 9785   6.449   2.324   9.762  0.0240  0.3577  0.6389
   98OSM   H16S 9786   6.381   2.238   9.744  0.1798  0.1909  0.8488
   98OSM   H16T 9787   6.546   2.276   9.785 -0.4098 -1.3938 -0.9566
   98OSM   C17S 9788   6.471   2.397   9.634 -0.3570  0.0284  0.3515
   98OSM   H17S 9789   6.531   2.336   9.564 -1.7929 -0.7665 -0.2189
   98OSM   H17T 9790   6.507   2.502   9.642  0.9409  0.1800 -4.4176
   98OSM   C18S 9791   6.333   2.416   9.568  0.3171 -0.3059  0.0726
   98OSM   H18S 9792   6.291   2.316   9.543  1.3978 -0.2189 -2.4165
   98OSM   H18T 9793   6.337   2.487   9.482  1.2533  0.8172  1.0050
   98OSM   H18U 9794   6.253   2.461   9.631  0.7357 -0.8882  1.0337
   98OSM    C1F 9795   6.167   1.722  10.625  0.2932 -0.5560 -0.0595
   98OSM     OF 9796   6.050   1.678  10.609 -0.2303 -0.3755  0.0950
   98OSM    C2F 9797   6.263   1.737  10.518 -0.1609 -0.2215 -0.0720
   98OSM    H2F 9798   6.311   1.641  10.490 -1.2983 -0.8285 -0.0067
   98OSM    H2G 9799   6.335   1.815  10.550  1.1440 -0.0647 -3.0247
   98OSM    C3F 9800   6.202   1.796  10.393  0.2869  0.2600  0.3278
   98OSM    H3F 9801   6.154   1.894  10.412  1.6837  0.9546  0.3801
   98OSM    H3G 9802   6.126   1.721  10.361 -0.0560 -0.7527  3.2444
   98OSM    C4F 9803   6.302   1.821  10.280 -0.0615 -0.1947  0.1846
   98OSM    H4F 9804   6.339   1.719  10.254 -0.7665 -1.2013  2.8439
   98OSM    H4G 9805   6.388   1.883  10.313 -1.0783  1.6103 -0.4532
   98OSM    C5F 9806   6.224   1.897  10.163 -0.6465 -0.3243  0.0677
   98OSM    H5F 9807   6.206   1.996  10.211 -2.5547 -0.7704  0.3603
   98OSM    H5G 9808   6.124   1.850  10.153 -0.0975 -1.6394  0.4646
   98OSM    C6F 9809   6.291   1.917  10.026 -0.1571  0.5207  0.3965
   98OSM    H6F 9810   6.359   2.004  10.040 -1.1844  1.5581 -0.8551
   98OSM    H6G 9811   6.211   1.945   9.954 -1.6322 -0.6018  1.5227
   98OSM    C7F 9812   6.382   1.806   9.975  0.0039  0.7043 -0.5482
   98OSM    H7F 9813   6.326   1.711   9.978  1.3828 -0.1216  1.3251
   98OSM    H7G 9814   6.473   1.793  10.039 -0.6171  0.2349  0.2560
   98OSM    C8F 9815   6.423   1.828   9.830  1.2654 -0.0161  0.4108
   98OSM    H8F 9816   6.503   1.757   9.800  1.6381  0.9260 -0.9226
   98OSM    H8G 9817   6.468   1.929   9.830  2.5990 -0.5953  0.8023
   98OSM    C9F 9818   6.319   1.802   9.723 -0.1527 -0.8423 -0.3550
   98OSM    H9F 9819   6.246   1.721   9.731 -0.5101 -0.4045  1.1727
   98OSM   C10F 9820   6.292   1.874   9.612  0.4335  0.6693 -0.5664
   98OSM   H10F 9821   6.223   1.826   9.541  0.2966  0.5844 -0.3767
   98OSM   C11F 9822   6.356   1.994   9.566  0.6810 -0.0558  0.7672
   98OSM   H11F 9823   6.400   2.044   9.655 -0.5495 -0.3107  1.5470
   98OSM   H11G 9824   6.273   2.055   9.524  0.0622 -1.9494 -0.9430
   98OSM   C12F 9825   6.463   1.969   9.461  1.4495 -0.1345 -0.2565
   98OSM   H12F 9826   6.428   1.908   9.375 -2.4088  0.8771  0.3699
   98OSM   H12G 9827   6.545   1.912   9.509  0.6528  0.3471  1.7832
   98OSM   C13F 9828   6.525   2.094   9.396 -0.2039  0.0103 -0.0685
   98OSM   H13F 9829   6.631   2.085   9.365 -0.0152  1.1390  0.1964
   98OSM   H13G 9830   6.528   2.172   9.475  0.0569  1.3585 -1.3410
   98OSM   C14F 9831   6.442   2.157   9.275  0.4830 -0.2581  0.3772
   98OSM   H14F 9832   6.470   2.264   9.260 -0.3379  0.3700  2.8149
   98OSM   H14G 9833   6.333   2.157   9.300  0.7518 -1.4932  1.7078
   98OSM   C15F 9834   6.456   2.070   9.151 -0.0151  0.0606 -0.2663
   98OSM   H15F 9835   6.369   2.089   9.085 -1.1544  2.4277  1.7068
   98OSM   H15G 9836   6.458   1.962   9.178 -0.3718  0.3451  0.9830
   98OSM   C16F 9837   6.582   2.103   9.078  0.4212  0.1847 -0.0508
   98OSM   H16F 9838   6.664   2.040   9.118 -1.2935 -2.9820 -1.1607
   98OSM   H16G 9839   6.597   2.213   9.084 -0.3391  0.4213 -1.9850
   98OSM   C17F 9840   6.557   2.054   8.936 -0.1529 -0.2099  0.1436
   98OSM   H17F 9841   6.473   2.110   8.889  0.4134  0.8406  0.3335
   98OSM   H17G 9842   6.535   1.945   8.930 -0.6058 -0.1095 -0.1114
   98OSM   C18F 9843   6.686   2.082   8.858  0.4021  0.7921 -0.3298
   98OSM   H18F 9844   6.688   2.191   8.835 -0.3739  1.0781  0.8209
   98OSM   H18G 9845   6.682   2.016   8.769  0.1439  0.7834 -0.3137
   98OSM   H18H 9846   6.770   2.064   8.929 -1.2027  0.4346  1.5766
   99OSM      N 9847   2.511   3.747  10.965  0.3445 -0.0002 -0.8778
   99OSM    C15 9848   2.399   3.838  10.967  0.2129 -0.8709  0.8103
   99OSM   H15A 9849   2.312   3.782  11.000 -0.3764 -0.7999 -0.5177
   99OSM   H15B 9850   2.385   3.899  10.879  0.4290 -0.8167  0.8131
   99OSM   H15C 9851   2.417   3.919  11.035 -1.2466  0.6746 -0.5411
   99OSM    C14 9852   2.652   3.807  10.926  0.9005 -0.2361  0.1635
   99OSM   H14A 9853   2.675   3.879  11.003  0.7514  2.5028 -2.1923
   99OSM   H14B 9854   2.651   3.851  10.827  2.2533 -0.4196  0.0388
   99OSM   H14C 9855   2.736   3.738  10.921 -0.0706 -1.3562 -2.4126
   99OSM    C13 9856   2.523   3.698  11.104  0.0302 -0.3442  0.6774
   99OSM   H13A 9857   2.535   3.780  11.173 -1.7552  1.0937 -0.6028
   99OSM   H13B 9858   2.609   3.634  11.121  0.0031 -0.1912  1.4267
   99OSM   H13C 9859   2.432   3.646  11.131  0.4273 -0.0291  2.7745
   99OSM    C12 9860   2.483   3.643  10.859 -0.4344  0.4449 -0.0930
   99OSM   H12A 9861   2.581   3.602  10.842 -0.3108  0.8954 -0.4712
   99OSM   H12B 9862   2.443   3.696  10.774 -2.8294  0.4944  0.9672
   99OSM    C11 9863   2.380   3.533  10.895  0.2426  0.5988 -0.3149
   99OSM   H11A 9864   2.421   3.473  10.980  0.4605  2.7015  1.1569
   99OSM   H11B 9865   2.362   3.456  10.817  0.0933  0.4772 -0.1616
   99OSM      P 9866   2.150   3.640  10.848 -0.1955 -0.1808  0.2734
   99OSM    O13 9867   2.027   3.559  10.881 -0.4310 -0.1510 -0.0266
   99OSM    O14 9868   2.141   3.788  10.859 -0.0797  0.1618  0.4218
   99OSM    O11 9869   2.212   3.616  10.703 -0.6843  0.1330  0.2407
   99OSM    O12 9870   2.258   3.589  10.948 -0.0346 -0.0290  0.9022
   99OSM    C1S 9871   2.162   3.517  10.608  0.1193  0.1200 -0.5912
   99OSM    H1S 9872   2.064   3.472  10.634  0.3504 -0.3506 -0.5155
   99OSM    H1T 9873   2.234   3.432  10.608 -0.5879 -0.5222  1.0478
   99OSM     NF 9874   2.112   3.492  10.367 -0.0012  0.5463 -0.2637
   99OSM    HNF 9875   2.166   3.433  10.307  3.4078  0.1888  2.8807
   99OSM    C2S 9876   2.187   3.563  10.461 -0.6525 -0.1589 -0.0764
   99OSM    H2S 9877   2.163   3.671  10.449  0.2330  0.3558  2.2280
   99OSM    C3S 9878   2.341   3.545  10.437 -0.0059 -0.2412 -0.4382
   99OSM    H3S 9879   2.360   3.436  10.432 -0.5200 -0.2940 -1.4793
   99OSM     O3 9880   2.424   3.609  10.533  0.0505 -0.4259  0.0689
   99OSM    HO3 9881   2.365   3.635  10.604 -2.5906 -1.8774 -1.4271
   99OSM    C4S 9882   2.384   3.592  10.299 -0.1072  0.1813  0.6461
   99OSM    H4S 9883   2.342   3.513  10.234  0.6787 -1.0305  1.5685
   99OSM    C5S 9884   2.443   3.705  10.247 -0.7468  0.2697  0.0652
   99OSM    H5S 9885   2.477   3.794  10.301  0.4876  0.2299 -0.6056
   99OSM    C6S 9886   2.457   3.710  10.099  0.3963 -0.1243 -0.2251
   99OSM    H6S 9887   2.562   3.742  10.078  0.2652 -1.1788 -2.9544
   99OSM    H6T 9888   2.402   3.805  10.085  0.1428 -0.0998  0.9045
   99OSM    C7S 9889   2.422   3.599  10.002 -0.2821  0.0100 -0.1352
   99OSM    H7S 9890   2.314   3.583  10.019  0.4675 -2.0593  4.1071
   99OSM    H7T 9891   2.474   3.505  10.027 -0.0210  0.1514 -0.1416
   99OSM    C8S 9892   2.457   3.649   9.860 -0.2780  0.1401  0.9728
   99OSM    H8S 9893   2.567   3.665   9.856 -0.3078  0.0763 -1.7553
   99OSM    H8T 9894   2.428   3.756   9.853  0.9432  0.4320  0.0526
   99OSM    C9S 9895   2.408   3.558   9.748  0.1371 -0.6173 -0.0274
   99OSM    H9S 9896   2.408   3.624   9.659  0.2943  0.3875  0.6945
   99OSM    H9T 9897   2.305   3.527   9.779 -0.0429  0.9685  1.0522
   99OSM   C10S 9898   2.513   3.453   9.713  0.2456  0.7278  0.3196
   99OSM   H10S 9899   2.530   3.388   9.801 -2.6507 -2.8115 -1.4559
   99OSM   H10T 9900   2.608   3.509   9.701 -0.9734  2.4769 -2.3186
   99OSM   C11S 9901   2.478   3.368   9.587  0.7743  0.3622  0.7713
   99OSM   H11S 9902   2.367   3.357   9.593  0.7518 -0.0357 -0.2627
   99OSM   H11T 9903   2.530   3.270   9.589 -3.5276 -2.2990 -1.6557
   99OSM   C12S 9904   2.506   3.444   9.452  0.6405  0.4778 -0.2987
   99OSM   H12S 9905   2.458   3.544   9.459 -0.4043  0.0391 -0.9160
   99OSM   H12T 9906   2.616   3.459   9.451  0.5585  1.3308  0.9046
   99OSM   C13S 9907   2.444   3.359   9.341  0.4254 -0.8205  0.2828
   99OSM   H13S 9908   2.334   3.363   9.360  0.5409  0.9165  0.7248
   99OSM   H13T 9909   2.478   3.253   9.347  0.8778 -0.7100 -0.2776
   99OSM   C14S 9910   2.474   3.410   9.198  0.2571  1.0699 -0.4776
   99OSM   H14S 9911   2.581   3.438   9.188  1.3738 -2.5239 -0.0521
   99OSM   H14T 9912   2.418   3.503   9.174  0.7565  0.7175 -3.2578
   99OSM   C15S 9913   2.440   3.312   9.087 -0.0820  0.1858  0.8152
   99OSM   H15S 9914   2.490   3.215   9.107 -0.8643 -0.1482  1.1697
   99OSM   H15T 9915   2.473   3.363   8.994  2.3895 -0.6426  1.1752
   99OSM   C16S 9916   2.288   3.290   9.067 -0.1878 -0.2679  0.8019
   99OSM   H16S 9917   2.227   3.372   9.109 -4.0972 -1.0660 -2.6565
   99OSM   H16T 9918   2.269   3.201   9.131 -0.3500 -1.6988 -1.1562
   99OSM   C17S 9919   2.261   3.263   8.924  0.4270 -0.2407  0.2744
   99OSM   H17S 9920   2.295   3.164   8.887  0.0096 -0.9235  1.6489
   99OSM   H17T 9921   2.311   3.342   8.864  3.4506 -1.0107  1.6285
   99OSM   C18S 9922   2.115   3.254   8.901  0.7849 -0.5191 -0.4955
   99OSM   H18S 9923   2.078   3.358   8.892  3.7728  0.7413  0.5662
   99OSM   H18T 9924   2.066   3.207   8.989  2.2890  2.3749  2.0920
   99OSM   H18U 9925   2.077   3.212   8.806 -1.3496  0.7369 -0.2492
   99OSM    C1F 9926   1.976   3.503  10.357 -0.6239 -0.8375 -0.6203
   99OSM     OF 9927   1.916   3.556  10.447  0.0137 -1.0358 -0.1774
   99OSM    C2F 9928   1.917   3.430  10.241  0.0729 -0.1106 -0.4082
   99OSM    H2F 9929   1.903   3.324  10.270 -2.1374  0.3357  0.2848
   99OSM    H2G 9930   1.990   3.430  10.156  0.3336 -0.3364 -0.1897
   99OSM    C3F 9931   1.790   3.495  10.202  0.1914  0.1865  0.6409
   99OSM    H3F 9932   1.718   3.484  10.285 -0.4144  1.8213  0.3769
   99OSM    H3G 9933   1.801   3.605  10.191 -0.9585  0.3257  0.7261
   99OSM    C4F 9934   1.721   3.451  10.068  0.3693  0.0410  0.2704
   99OSM    H4F 9935   1.627   3.510  10.059 -0.1375 -0.7260  0.4925
   99OSM    H4G 9936   1.699   3.343  10.077 -1.0119  0.2964  0.1361
   99OSM    C5F 9937   1.806   3.497   9.947  0.4163 -0.1453 -0.4441
   99OSM    H5F 9938   1.880   3.419   9.921 -0.9622 -2.0671  1.0926
   99OSM    H5G 9939   1.866   3.585   9.976 -0.0735  0.0232  0.0835
   99OSM    C6F 9940   1.727   3.537   9.827  0.2952 -0.0035  0.5903
   99OSM    H6F 9941   1.781   3.623   9.781 -0.3940 -0.3139 -0.8407
   99OSM    H6G 9942   1.627   3.580   9.850  0.0132  1.1196 -2.3298
   99OSM    C7F 9943   1.703   3.434   9.714 -0.0416 -0.1176 -0.4453
   99OSM    H7F 9944   1.629   3.365   9.760  0.4425 -0.7168 -0.5526
   99OSM    H7G 9945   1.799   3.384   9.689  0.9824  0.5428  1.9304
   99OSM    C8F 9946   1.634   3.512   9.603 -0.1549 -0.4835 -0.0257
   99OSM    H8F 9947   1.714   3.572   9.555  0.1471  0.3427  1.4675
   99OSM    H8G 9948   1.563   3.584   9.650 -0.8610  0.1716 -1.9811
   99OSM    C9F 9949   1.556   3.432   9.503  0.6809  0.0840 -0.6724
   99OSM    H9F 9950   1.451   3.411   9.527  0.6925 -0.9305 -1.4405
   99OSM   C10F 9951   1.595   3.402   9.375  0.3662  0.2055 -0.0837
   99OSM   H10F 9952   1.526   3.340   9.315 -0.3863  0.6232  0.3446
   99OSM   C11F 9953   1.729   3.433   9.324 -0.2182 -0.4279 -0.6458
   99OSM   H11F 9954   1.803   3.425   9.407 -1.1977 -1.4895  0.1554
   99OSM   H11G 9955   1.731   3.536   9.280  1.7920 -1.2149 -2.6040
   99OSM   C12F 9956   1.772   3.332   9.211  1.2271 -0.5793  0.2727
   99OSM   H12F 9957   1.784   3.233   9.259  1.0030 -0.1256  1.2883
   99OSM   H12G 9958   1.872   3.370   9.180  1.1711  0.3381  1.1499
   99OSM   C13F 9959   1.681   3.331   9.083  0.1017  0.5902 -0.2101
   99OSM   H13F 9960   1.678   3.429   9.031  0.5043  0.4151 -0.5692
   99OSM   H13G 9961   1.574   3.315   9.109 -0.0024  0.2750 -0.8279
   99OSM   C14F 9962   1.713   3.229   8.975  0.6553 -0.7736  0.3605
   99OSM   H14F 9963   1.677   3.133   9.019 -0.0844 -0.5704  0.1980
   99OSM   H14G 9964   1.824   3.232   8.962  0.5439 -1.3540 -0.8473
   99OSM   C15F 9965   1.641   3.252   8.845  0.2595  0.7609  0.6168
   99OSM   H15F 9966   1.535   3.284   8.861 -0.9595 -2.2930 -0.5675
   99OSM   H15G 9967   1.622   3.160   8.787  1.5691 -0.6288  2.2904
   99OSM   C16F 9968   1.718   3.348   8.747  0.5470 -0.3092  0.5185
   99OSM   H16F 9969   1.821   3.307   8.745  0.4621 -0.5284 -0.6823
   99OSM   H16G 9970   1.715   3.449   8.792  2.3141  0.9290 -1.9092
   99OSM   C17F 9971   1.653   3.361   8.604 -1.0616  0.1581 -0.3954
   99OSM   H17F 9972   1.644   3.253   8.579 -0.2965 -0.6285  2.3880
   99OSM   H17G 9973   1.720   3.412   8.531  0.0721  0.3894  0.7656
   99OSM   C18F 9974   1.515   3.432   8.597  0.4263 -0.0218  0.0745
   99OSM   H18F 9975   1.526   3.530   8.649  0.1425 -1.2527  2.6604
   99OSM   H18G 9976   1.432   3.383   8.653 -0.2101  0.7711 -0.1599
   99OSM   H18H 9977   1.488   3.442   8.490  1.9312 -4.2277 -0.8929
  100OSM      N 9978   4.779   3.347  10.638 -0.6196 -0.2139  0.6113
  100OSM    C15 9979   4.742   3.393  10.501 -0.7897  0.1491  1.0639
  100OSM   H15A 9980   4.792   3.484  10.472  0.5644 -0.9906 -0.3116
  100OSM   H15B 9981   4.635   3.404  10.492 -0.7744 -1.2462 -1.8879
  100OSM   H15C 9982   4.775   3.314  10.435 -3.2291  0.4387 -0.6406
  100OSM    C14 9983   4.928   3.354  10.647  0.1402 -0.5602  0.0405
  100OSM   H14A 9984   4.968   3.297  10.564  0.1522 -1.1941  0.4744
  100OSM   H14B 9985   4.967   3.322  10.743 -3.7478  0.0727  2.0517
  100OSM   H14C 9986   4.959   3.457  10.637 -2.0651  0.0657 -0.8924
  100OSM    C13 9987   4.716   3.428  10.740 -0.6014 -0.2551  0.0466
  100OSM   H13A 9988   4.759   3.396  10.834  1.3688 -3.1934 -1.6779
  100OSM   H13B 9989   4.612   3.403  10.756 -0.7734  0.0383 -0.5685
  100OSM   H13C 9990   4.722   3.535  10.724 -0.2806 -0.2896 -0.0819
  100OSM    C12 9991   4.743   3.203  10.662 -0.0644  0.7780  0.3134
  100OSM   H12A 9992   4.768   3.177  10.764 -1.0982 -1.2366  0.1121
  100OSM   H12B 9993   4.806   3.140  10.600  2.4175  0.4689  2.9537
  100OSM    C11 9994   4.597   3.162  10.642  0.2389  0.0802 -0.6872
  100OSM   H11A 9995   4.597   3.052  10.651  1.0652  0.1726  0.8318
  100OSM   H11B 9996   4.566   3.178  10.536 -0.6314 -1.3963 -0.6712
  100OSM      P 9997   4.396   3.143  10.799 -0.1519  0.0540 -0.2833
  100OSM    O13 9998   4.452   3.043  10.891  0.2883  0.6177 -0.4710
  100OSM    O14 9999   4.288   3.233  10.850 -0.1564  0.1675  0.2457
  100OSM    O1110000   4.337   3.078  10.659 -0.5735  0.8783  0.1131
  100OSM    O1210001   4.514   3.231  10.742  0.3803 -0.7288 -0.3257
  100OSM    C1S10002   4.286   3.155  10.549  0.3456 -0.2961  0.7310
  100OSM    H1S10003   4.311   3.262  10.566 -2.0564  0.4761 -0.1518
  100OSM    H1T10004   4.175   3.153  10.545  0.3807 -1.3542 -0.2615
  100OSM     NF10005   4.269   3.174  10.304 -0.1526  0.6068 -0.1232
  100OSM    HNF10006   4.206   3.132  10.240 -0.2377 -1.7629  1.3794
  100OSM    C2S10007   4.313   3.084  10.413  0.8743  0.6205 -0.6190
  100OSM    H2S10008   4.421   3.063  10.400 -0.1326 -5.0065 -2.3919
  100OSM    C3S10009   4.247   2.945  10.403 -0.4103  0.3737  0.2559
  100OSM    H3S10010   4.136   2.953  10.402 -0.4148  0.2731 -0.4359
  100OSM     O310011   4.269   2.854  10.507 -0.0076 -0.5617  0.2701
  100OSM    HO310012   4.290   2.919  10.575 -3.9209  0.4085  0.7996
  100OSM    C4S10013   4.291   2.888  10.269  0.7175  0.0212  0.6105
  100OSM    H4S10014   4.204   2.886  10.202  2.7170 -2.4187 -2.1827
  100OSM    C5S10015   4.402   2.814  10.235 -0.2679  0.2372  0.1809
  100OSM    H5S10016   4.478   2.796  10.312  0.9628 -0.2304 -1.1016
  100OSM    C6S10017   4.430   2.743  10.104 -0.4164  0.1247  0.0995
  100OSM    H6S10018   4.419   2.632  10.114 -0.4157  0.0458 -0.7152
  100OSM    H6T10019   4.534   2.760  10.070 -0.4169  2.5974  1.1507
  100OSM    C7S10020   4.351   2.798   9.988  0.0493 -0.4519  0.0895
  100OSM    H7S10021   4.370   2.908   9.985 -1.2872 -0.2032  0.0062
  100OSM    H7T10022   4.242   2.788  10.011  0.0514  1.2916  1.0727
  100OSM    C8S10023   4.381   2.723   9.852 -0.1488 -0.0536 -0.7739
  100OSM    H8S10024   4.380   2.612   9.853  0.2423 -0.0825 -2.0800
  100OSM    H8T10025   4.485   2.753   9.828  0.1736  1.5801  2.1426
  100OSM    C9S10026   4.311   2.776   9.723 -0.0034  0.3383  0.5122
  100OSM    H9S10027   4.302   2.886   9.710 -3.2486  0.0222 -0.8130
  100OSM    H9T10028   4.206   2.740   9.733  0.3018 -1.1846 -1.1898
  100OSM   C10S10029   4.363   2.702   9.599  0.9618 -0.1965  0.8067
  100OSM   H10S10030   4.317   2.602   9.608  0.7601 -0.1170  0.6662
  100OSM   H10T10031   4.470   2.674   9.599  1.2195  0.5228 -1.9145
  100OSM   C11S10032   4.308   2.764   9.461  0.2395  0.1735 -0.2514
  100OSM   H11S10033   4.345   2.868   9.451  0.7741 -0.0338 -0.4745
  100OSM   H11T10034   4.200   2.738   9.454  0.1038  0.8964 -1.0037
  100OSM   C12S10035   4.367   2.692   9.341 -0.1145  0.4945  0.7874
  100OSM   H12S10036   4.347   2.583   9.343  1.2131  0.2261  0.2716
  100OSM   H12T10037   4.476   2.711   9.336 -0.3237  1.4571 -0.5630
  100OSM   C13S10038   4.297   2.757   9.214 -0.1283  0.1179 -0.5083
  100OSM   H13S10039   4.356   2.846   9.180  0.4438  0.4285  1.2339
  100OSM   H13T10040   4.197   2.795   9.245 -0.0959 -0.8568  0.8725
  100OSM   C14S10041   4.290   2.659   9.099 -0.1760  0.8946 -0.3385
  100OSM   H14S10042   4.191   2.676   9.052  0.5447 -0.5802 -2.5685
  100OSM   H14T10043   4.282   2.558   9.144 -1.0695  0.6199 -1.0949
  100OSM   C15S10044   4.410   2.650   9.009  0.2986 -0.1886 -0.8064
  100OSM   H15S10045   4.400   2.548   8.968  0.9389  0.2960 -2.2179
  100OSM   H15T10046   4.506   2.667   9.063 -1.1340  1.1095  1.4902
  100OSM   C16S10047   4.422   2.752   8.889 -0.1849 -0.1321  0.1339
  100OSM   H16S10048   4.512   2.717   8.835  0.2266  0.9921  0.0692
  100OSM   H16T10049   4.429   2.854   8.932 -1.7472 -0.1731  0.5560
  100OSM   C17S10050   4.307   2.737   8.791 -0.1863  0.2261  0.7730
  100OSM   H17S10051   4.326   2.801   8.702 -0.2713 -1.2072 -0.3170
  100OSM   H17T10052   4.218   2.768   8.849 -0.1949  0.5687  0.5828
  100OSM   C18S10053   4.282   2.592   8.739  0.2640  0.1989 -0.6083
  100OSM   H18S10054   4.359   2.570   8.662  0.7054 -0.5306  0.0288
  100OSM   H18T10055   4.179   2.584   8.698  0.1121  0.5762 -0.3118
  100OSM   H18U10056   4.281   2.513   8.817 -2.2303  0.8624  0.1315
  100OSM    C1F10057   4.320   3.294  10.290 -0.5440 -0.0569  0.4779
  100OSM     OF10058   4.434   3.299  10.335  0.0379 -0.1254  0.4098
  100OSM    C2F10059   4.249   3.418  10.219  0.1933  0.5193 -0.3901
  100OSM    H2F10060   4.229   3.498  10.293  2.0194 -0.2321  0.9775
  100OSM    H2G10061   4.149   3.386  10.181 -0.5830  1.9260  0.3910
  100OSM    C3F10062   4.349   3.480  10.120 -0.0499  0.4797 -0.0563
  100OSM    H3F10063   4.376   3.409  10.038  5.1208 -0.7598  2.3571
  100OSM    H3G10064   4.445   3.494  10.173  0.3740 -0.9215 -0.3968
  100OSM    C4F10065   4.291   3.603  10.050  0.1619  0.4470  0.6025
  100OSM    H4F10066   4.271   3.680  10.128 -0.5345 -0.7146  1.6181
  100OSM    H4G10067   4.196   3.578   9.999 -0.3466 -0.5625  1.9575
  100OSM    C5F10068   4.387   3.660   9.946 -0.1916 -0.3787 -0.6215
  100OSM    H5F10069   4.490   3.654   9.988 -0.9269 -1.4696  1.1434
  100OSM    H5G10070   4.350   3.763   9.933 -0.3366 -0.4017 -0.4011
  100OSM    C6F10071   4.406   3.586   9.817  0.1216  0.3592 -0.2831
  100OSM    H6F10072   4.431   3.481   9.843 -0.8769  0.0123 -0.6958
  100OSM    H6G10073   4.496   3.622   9.763  1.8585 -2.4222  0.5816
  100OSM    C7F10074   4.289   3.584   9.726  0.2952  0.5865 -0.5612
  100OSM    H7F10075   4.272   3.692   9.706  0.1069  0.6354 -0.1411
  100OSM    H7G10076   4.204   3.545   9.785  0.4618  1.0412 -0.0180
  100OSM    C8F10077   4.302   3.518   9.588 -0.4360  0.2415 -0.1537
  100OSM    H8F10078   4.203   3.487   9.548  0.4996  0.4759 -2.9357
  100OSM    H8G10079   4.344   3.418   9.612  1.3133  1.1143  0.5919
  100OSM    C9F10080   4.392   3.591   9.485  0.6993  0.0523 -0.1931
  100OSM    H9F10081   4.473   3.650   9.530  0.1089  0.9808 -0.3176
  100OSM   C10F10082   4.375   3.601   9.353  0.7133  0.7194 -0.2010
  100OSM   H10F10083   4.465   3.634   9.298  0.0822  0.9357 -1.1321
  100OSM   C11F10084   4.274   3.540   9.261  0.2721  0.2578 -0.1531
  100OSM   H11F10085   4.204   3.616   9.221  2.1556  2.2874  0.1831
  100OSM   H11G10086   4.216   3.463   9.315  1.3630 -2.5479 -2.6850
  100OSM   C12F10087   4.328   3.468   9.132  0.2366 -0.5006 -0.3859
  100OSM   H12F10088   4.238   3.421   9.088  0.2986 -0.7204 -0.2765
  100OSM   H12G10089   4.403   3.392   9.160  0.3354  0.4283  2.0970
  100OSM   C13F10090   4.378   3.562   9.028  0.4161  0.0422 -0.2916
  100OSM   H13F10091   4.487   3.577   9.042  0.6488 -0.2105 -1.6947
  100OSM   H13G10092   4.346   3.668   9.034  1.1000  0.2647 -0.5208
  100OSM   C14F10093   4.367   3.518   8.878 -0.1765  0.3463  0.4485
  100OSM   H14F10094   4.265   3.524   8.835  1.0210  1.6019 -2.4642
  100OSM   H14G10095   4.405   3.417   8.855  3.8034  1.7269  0.2319
  100OSM   C15F10096   4.448   3.626   8.798  0.7608  0.4478 -0.1750
  100OSM   H15F10097   4.555   3.611   8.825  1.2938  1.1150 -1.7524
  100OSM   H15G10098   4.421   3.726   8.839  1.2376  0.6059 -0.2329
  100OSM   C16F10099   4.443   3.624   8.645  0.3906 -0.3688 -0.9710
  100OSM   H16F10100   4.510   3.698   8.594  0.8739 -1.7594 -2.4323
  100OSM   H16G10101   4.336   3.631   8.615 -0.6090 -2.4985  1.7041
  100OSM   C17F10102   4.508   3.492   8.595  0.2475 -0.5051  0.7423
  100OSM   H17F10103   4.479   3.494   8.488 -2.7222  1.7565  1.4600
  100OSM   H17G10104   4.465   3.397   8.633 -1.0810 -0.1658  0.1423
  100OSM   C18F10105   4.662   3.482   8.603 -0.8572  0.1965  0.8273
  100OSM   H18F10106   4.710   3.474   8.503 -2.4510  1.7875 -0.1378
  100OSM   H18G10107   4.680   3.386   8.656 -0.3590 -0.1191  0.1035
  100OSM   H18H10108   4.716   3.560   8.660 -0.6779  1.0541 -0.4821
  101OSM      N10109   0.633   4.260  11.120  0.0363 -0.2147  0.1709
  101OSM    C1510110   0.516   4.319  11.203 -0.0222 -0.5954  0.5225
  101OSM   H15A10111   0.467   4.241  11.259 -0.9538 -0.4287 -0.0526
  101OSM   H15B10112   0.441   4.363  11.140  0.0024  0.8483  1.4548
  101OSM   H15C10113   0.544   4.388  11.281 -0.1136 -1.2723  1.1663
  101OSM    C1410114   0.737   4.208  11.206  0.0502  0.6861 -0.9280
  101OSM   H14A10115   0.710   4.113  11.249  0.0120  2.1120  2.5800
  101OSM   H14B10116   0.764   4.280  11.282 -0.0448  0.9539 -1.1478
  101OSM   H14C10117   0.825   4.199  11.144  1.4057  0.8054  0.9139
  101OSM    C1310118   0.580   4.155  11.029 -0.1041 -0.4973 -0.0073
  101OSM   H13A10119   0.496   4.185  10.968  1.3133 -3.2291 -3.6611
  101OSM   H13B10120   0.539   4.074  11.089 -1.6789  0.3789  0.1500
  101OSM   H13C10121   0.665   4.125  10.971 -0.1385 -2.2293  0.7583
  101OSM    C1210122   0.685   4.375  11.025  0.0686  0.0142  0.2068
  101OSM   H12A10123   0.730   4.448  11.090 -2.8157  2.4643 -0.3293
  101OSM   H12B10124   0.594   4.415  10.984  0.1390 -0.8742 -0.8763
  101OSM    C1110125   0.782   4.345  10.915  0.0264 -0.0359  0.1070
  101OSM   H11A10126   0.794   4.436  10.853  0.8657 -0.7735 -0.8436
  101OSM   H11B10127   0.736   4.278  10.840 -1.2136 -1.4206  2.0101
  101OSM      P10128   1.033   4.353  10.933 -0.0437 -0.4781 -0.2239
  101OSM    O1310129   1.046   4.478  11.013  0.9449 -0.1760  0.4324
  101OSM    O1410130   1.132   4.248  10.949 -0.2029  0.4109  0.4476
  101OSM    O1110131   1.020   4.386  10.775  0.1313  0.0684  0.5146
  101OSM    O1210132   0.895   4.286  10.969 -0.2193 -0.2511  0.0610
  101OSM    C1S10133   1.017   4.277  10.680  0.5493 -0.0020 -0.3322
  101OSM    H1S10134   0.914   4.237  10.683  0.5726 -0.1039 -0.7664
  101OSM    H1T10135   1.097   4.204  10.707  1.2479  1.8818  3.2882
  101OSM     NF10136   0.954   4.238  10.443  0.2117 -0.2660 -0.4155
  101OSM    HNF10137   1.007   4.164  10.401  2.1513  0.3161  0.8694
  101OSM    C2S10138   1.028   4.324  10.534  0.2554 -0.9876 -0.0382
  101OSM    H2S10139   0.977   4.422  10.526  1.4733 -0.1243  2.0836
  101OSM    C3S10140   1.178   4.338  10.487  0.0498  0.0546 -0.0636
  101OSM    H3S10141   1.225   4.239  10.501 -1.5788 -0.6960  0.3041
  101OSM     O310142   1.248   4.436  10.566  0.0159 -0.2963  0.3547
  101OSM    HO310143   1.182   4.454  10.633 -0.4200 -0.4079 -0.0351
  101OSM    C4S10144   1.186   4.393  10.348 -0.1027 -0.2927  0.5888
  101OSM    H4S10145   1.110   4.468  10.319  0.4945  0.2272  0.3594
  101OSM    C5S10146   1.269   4.364  10.248  0.0334 -0.3500 -0.0602
  101OSM    H5S10147   1.338   4.280  10.263  1.9631  1.3622  1.3234
  101OSM    C6S10148   1.268   4.422  10.108 -0.1368  0.2977 -0.7689
  101OSM    H6S10149   1.366   4.467  10.080 -0.9209  0.8245 -2.8718
  101OSM    H6T10150   1.192   4.503  10.098  0.8571  1.2739 -0.5856
  101OSM    C7S10151   1.237   4.316  10.008  0.2418 -0.2095  0.5419
  101OSM    H7S10152   1.138   4.271  10.031 -1.6074  2.6063 -1.3038
  101OSM    H7T10153   1.307   4.230  10.016  1.2826  0.6954  1.2894
  101OSM    C8S10154   1.237   4.366   9.868 -0.3260 -0.5162 -0.0927
  101OSM    H8S10155   1.175   4.456   9.850  0.5516  0.3294  1.0138
  101OSM    H8T10156   1.190   4.295   9.796  1.6294 -2.9452  0.8758
  101OSM    C9S10157   1.380   4.400   9.817  0.5760  0.5440  0.3232
  101OSM    H9S10158   1.455   4.322   9.843  0.4359 -0.3121 -1.6497
  101OSM    H9T10159   1.424   4.489   9.868  1.4001  0.9139 -0.9719
  101OSM   C10S10160   1.371   4.417   9.667  0.3950  0.0581 -0.0661
  101OSM   H10S10161   1.296   4.494   9.638 -0.3044 -1.2780 -1.9935
  101OSM   H10T10162   1.334   4.319   9.630  2.8264 -1.9602  2.4435
  101OSM   C11S10163   1.510   4.429   9.600  0.5199 -0.2990  0.1834
  101OSM   H11S10164   1.585   4.353   9.632  1.0598  0.5842  1.0814
  101OSM   H11T10165   1.555   4.529   9.618  0.9853 -0.5702  0.5853
  101OSM   C12S10166   1.497   4.431   9.446  0.4375  0.2107  0.6641
  101OSM   H12S10167   1.397   4.470   9.418  0.3909 -0.1593  0.3042
  101OSM   H12T10168   1.491   4.328   9.404 -0.7360 -0.0648  1.4618
  101OSM   C13S10169   1.603   4.513   9.363  0.4588  0.2490 -0.1356
  101OSM   H13S10170   1.698   4.487   9.414 -0.4197 -0.2696  1.2920
  101OSM   H13T10171   1.593   4.623   9.373  3.4588  0.4064  2.4715
  101OSM   C14S10172   1.607   4.481   9.208 -0.6238 -0.6452  0.3474
  101OSM   H14S10173   1.508   4.513   9.168 -0.1942  1.6790  1.0064
  101OSM   H14T10174   1.621   4.371   9.196 -0.2878 -0.4256 -1.5001
  101OSM   C15S10175   1.718   4.562   9.146 -0.4461  0.7822  0.0185
  101OSM   H15S10176   1.748   4.502   9.058  0.4600  2.8610 -1.1399
  101OSM   H15T10177   1.805   4.561   9.216 -0.3459 -1.2917 -0.0643
  101OSM   C16S10178   1.679   4.700   9.097 -0.3879  0.0198  0.6199
  101OSM   H16S10179   1.623   4.749   9.180  1.7561 -0.1580  2.2658
  101OSM   H16T10180   1.608   4.692   9.013 -0.7567 -0.1215  0.9429
  101OSM   C17S10181   1.800   4.793   9.060 -0.6403  0.0133 -0.0017
  101OSM   H17S10182   1.852   4.812   9.156  0.8336 -1.3445 -0.4954
  101OSM   H17T10183   1.743   4.887   9.044 -1.7923 -0.1646  2.5731
  101OSM   C18S10184   1.882   4.753   8.937 -1.1633 -0.4781 -0.0506
  101OSM   H18S10185   1.946   4.838   8.904 -1.4204 -0.3541 -0.2229
  101OSM   H18T10186   1.816   4.725   8.852 -1.5381  0.3629 -0.0440
  101OSM   H18U10187   1.951   4.669   8.964 -1.8218 -1.8599 -2.4438
  101OSM    C1F10188   0.820   4.239  10.444 -0.2022  0.1907 -0.0219
  101OSM     OF10189   0.759   4.341  10.470  0.7721  0.1965  0.6375
  101OSM    C2F10190   0.758   4.109  10.416  0.2777  0.4676 -0.5785
  101OSM    H2F10191   0.654   4.143  10.396 -0.9130 -1.8541  1.2434
  101OSM    H2G10192   0.751   4.035  10.499 -1.7135  0.6071 -0.5731
  101OSM    C3F10193   0.819   4.032  10.295  0.1298  0.0881 -0.0870
  101OSM    H3F10194   0.749   3.946  10.290  0.3582 -0.0839 -0.4294
  101OSM    H3G10195   0.915   3.985  10.327  0.9839  0.9836 -1.2267
  101OSM    C4F10196   0.818   4.103  10.164 -0.6565 -0.3433  0.4575
  101OSM    H4F10197   0.912   4.162  10.160 -0.0905 -1.1684  1.1604
  101OSM    H4G10198   0.729   4.169  10.156 -0.9787 -0.8311 -0.0482
  101OSM    C5F10199   0.815   4.009  10.043 -0.2807  0.1214  0.0909
  101OSM    H5F10200   0.711   3.976  10.024  0.1800 -2.2366  1.2379
  101OSM    H5G10201   0.879   3.922  10.071 -1.5971 -1.1403 -0.6928
  101OSM    C6F10202   0.879   4.067   9.915 -0.1966  0.2790  0.7084
  101OSM    H6F10203   0.819   4.151   9.874  0.5669 -0.0442 -1.1999
  101OSM    H6G10204   0.979   4.106   9.942  0.3345  0.2091 -0.9996
  101OSM    C7F10205   0.899   3.951   9.805  0.0987 -0.4613  0.0464
  101OSM    H7F10206   0.795   3.940   9.768 -1.1863  4.3217  1.5252
  101OSM    H7G10207   0.936   3.866   9.866 -0.3621  0.3578  1.5256
  101OSM    C8F10208   0.981   3.987   9.684 -0.4681  0.0802  0.8002
  101OSM    H8F10209   1.001   3.895   9.625  0.0762 -2.7636  4.9725
  101OSM    H8G10210   1.081   4.027   9.714  0.4257 -0.3086 -1.4392
  101OSM    C9F10211   0.919   4.101   9.611 -0.6853  0.1179  0.5014
  101OSM    H9F10212   0.951   4.197   9.655  0.8584 -0.6420  1.0869
  101OSM   C10F10213   0.868   4.103   9.487  0.3116  0.5575 -0.2478
  101OSM   H10F10214   0.837   4.203   9.453  1.9671  1.0315 -0.4451
  101OSM   C11F10215   0.844   3.981   9.405  0.1817  0.2314  0.4836
  101OSM   H11F10216   0.735   3.964   9.398 -0.2320  2.2095  1.4722
  101OSM   H11G10217   0.889   3.891   9.452  1.6127  0.2473 -0.7780
  101OSM   C12F10218   0.910   3.976   9.267  0.5484 -0.0488  0.0484
  101OSM   H12F10219   0.895   3.873   9.228 -0.5867  0.0773  0.1138
  101OSM   H12G10220   1.015   3.997   9.296  0.4618  0.3243  0.1008
  101OSM   C13F10221   0.855   4.077   9.169 -0.0099 -0.2194 -0.0868
  101OSM   H13F10222   0.851   4.179   9.212  2.2667  0.3204 -1.0236
  101OSM   H13G10223   0.752   4.043   9.144 -1.4992  2.9248  1.3216
  101OSM   C14F10224   0.936   4.077   9.040  0.4420  0.5755  0.8558
  101OSM   H14F10225   0.874   4.125   8.961 -1.0293  0.0220  1.6502
  101OSM   H14G10226   0.956   3.976   8.998 -1.1075  0.4342  0.4086
  101OSM   C15F10227   1.070   4.151   9.059 -0.4480  0.4437  0.2880
  101OSM   H15F10228   1.076   4.212   9.152  0.9286  0.5786  0.1368
  101OSM   H15G10229   1.070   4.223   8.974  0.2509  0.7062  0.5024
  101OSM   C16F10230   1.187   4.058   9.039 -0.1578 -0.1101 -1.1121
  101OSM   H16F10231   1.199   4.058   8.928 -0.6363  0.8852 -1.1750
  101OSM   H16G10232   1.179   3.956   9.082  1.3591 -0.8577 -2.4821
  101OSM   C17F10233   1.329   4.116   9.079  0.3899  0.5500 -0.1275
  101OSM   H17F10234   1.337   4.219   9.038 -3.7007  1.2840  0.3934
  101OSM   H17G10235   1.405   4.038   9.057 -0.3716 -0.1613 -0.2843
  101OSM   C18F10236   1.338   4.143   9.235  0.8912  1.2517  0.7284
  101OSM   H18F10237   1.268   4.225   9.260 -2.0686 -0.7719 -0.4074
  101OSM   H18G10238   1.444   4.165   9.260  1.2142 -1.1959  1.8377
  101OSM   H18H10239   1.314   4.054   9.297 -1.1441  2.2158  1.4116
  102OSM      N10240   4.795   6.654  11.116  0.1204  0.1385  0.4054
  102OSM    C1510241   4.731   6.780  11.165 -0.1511 -0.2010 -0.4427
  102OSM   H15A10242   4.729   6.796  11.272  1.0424  0.2990 -0.4854
  102OSM   H15B10243   4.627   6.780  11.136 -0.4700 -1.7531  0.5267
  102OSM   H15C10244   4.765   6.872  11.121  0.2850  0.3126  0.9243
  102OSM    C1410245   4.945   6.668  11.129  0.0010  0.6708 -0.4140
  102OSM   H14A10246   4.991   6.711  11.041  0.0373  0.2868 -0.5866
  102OSM   H14B10247   4.991   6.570  11.126  0.4724  0.9058 -2.0359
  102OSM   H14C10248   4.975   6.711  11.223 -0.0562 -1.1353  0.4797
  102OSM    C1310249   4.761   6.549  11.214  0.5707  0.1768  0.2673
  102OSM   H13A10250   4.654   6.536  11.227  0.4411  0.2394 -0.6558
  102OSM   H13B10251   4.810   6.558  11.310 -0.9557 -2.0219  1.3253
  102OSM   H13C10252   4.794   6.454  11.174  0.4551  0.4295 -0.4500
  102OSM    C1210253   4.758   6.604  10.977 -0.0263 -0.3347 -0.3460
  102OSM   H12A10254   4.651   6.592  10.973  0.1955 -2.3631 -1.3482
  102OSM   H12B10255   4.799   6.506  10.958  0.7017 -0.3495  1.1739
  102OSM    C1110256   4.797   6.700  10.864 -0.5069 -0.0618  0.1824
  102OSM   H11A10257   4.768   6.807  10.870  2.7062  1.2498 -3.6207
  102OSM   H11B10258   4.751   6.665  10.769  0.5007 -0.6327 -0.1112
  102OSM      P10259   5.023   6.585  10.785 -0.0510 -0.2697  0.1959
  102OSM    O1310260   5.154   6.636  10.757 -0.2598 -0.1403  0.1487
  102OSM    O1410261   5.035   6.473  10.881 -0.3042  0.8849  0.1274
  102OSM    O1110262   4.956   6.542  10.650 -0.1789  0.0274  0.3926
  102OSM    O1210263   4.937   6.707  10.840 -0.0937 -0.2462  0.4959
  102OSM    C1S10264   4.912   6.640  10.558 -0.0862  0.6273  0.6877
  102OSM    H1S10265   4.875   6.734  10.605  2.2928  2.0053 -0.0173
  102OSM    H1T10266   4.819   6.608  10.507  0.0341  0.7008  0.4139
  102OSM     NF10267   4.962   6.771  10.343 -0.2062  0.0166 -0.1280
  102OSM    HNF10268   4.925   6.729  10.260  1.1823 -0.5442 -0.4970
  102OSM    C2S10269   5.016   6.676  10.443 -0.7127  0.4059 -0.8406
  102OSM    H2S10270   5.094   6.743  10.485 -1.8014  1.6265 -0.7081
  102OSM    C3S10271   5.075   6.546  10.379  0.8261 -0.2344  0.0989
  102OSM    H3S10272   4.987   6.483  10.352  1.3552 -2.2279  2.5582
  102OSM     O310273   5.148   6.460  10.467  0.1350 -0.1581 -0.1917
  102OSM    HO310274   5.142   6.504  10.552 -2.2292 -1.2510  0.3214
  102OSM    C4S10275   5.155   6.574  10.252  0.4596 -0.9967 -0.0735
  102OSM    H4S10276   5.236   6.647  10.262 -0.4296  0.0037 -0.0241
  102OSM    C5S10277   5.135   6.509  10.136 -0.1164  0.9717  0.8328
  102OSM    H5S10278   5.068   6.422  10.125  1.1187  0.2668 -2.2150
  102OSM    C6S10279   5.223   6.541  10.018  0.0716 -0.3839 -0.1329
  102OSM    H6S10280   5.212   6.648   9.990 -3.3170 -0.3799  0.8170
  102OSM    H6T10281   5.179   6.491   9.930 -0.9924  0.9150 -0.3747
  102OSM    C7S10282   5.368   6.516  10.040  0.4395 -0.4359  0.0553
  102OSM    H7S10283   5.388   6.416  10.083  0.1551  0.2742  1.9382
  102OSM    H7T10284   5.397   6.590  10.118 -1.0711  0.4508 -0.1818
  102OSM    C8S10285   5.455   6.516   9.918 -0.3932 -0.5035  1.3809
  102OSM    H8S10286   5.455   6.420   9.860  3.1777 -0.1448  0.5823
  102OSM    H8T10287   5.562   6.518   9.948  0.1432 -0.6229 -0.3955
  102OSM    C9S10288   5.424   6.630   9.820  0.0650  1.1818  0.1455
  102OSM    H9S10289   5.433   6.723   9.879 -1.6920  2.2570 -1.1387
  102OSM    H9T10290   5.318   6.626   9.786  0.1399 -1.8457  0.0004
  102OSM   C10S10291   5.519   6.634   9.701  0.3978 -0.2295 -0.4553
  102OSM   H10S10292   5.613   6.579   9.724 -0.1257 -2.1432 -2.5409
  102OSM   H10T10293   5.546   6.739   9.677  1.5489 -0.1895  0.8696
  102OSM   C11S10294   5.472   6.567   9.571 -0.4684  0.2192 -0.4475
  102OSM   H11S10295   5.365   6.597   9.562 -0.2487  1.8945  1.5096
  102OSM   H11T10296   5.468   6.456   9.573 -1.0175  0.1725 -2.4956
  102OSM   C12S10297   5.544   6.616   9.447  0.0712  0.2690 -0.6951
  102OSM   H12S10298   5.646   6.575   9.462  0.2180  0.1302 -1.9965
  102OSM   H12T10299   5.546   6.725   9.422  0.0902 -0.1695 -2.7828
  102OSM   C13S10300   5.486   6.556   9.317  1.0469 -0.5255 -0.1701
  102OSM   H13S10301   5.388   6.603   9.293 -0.2528 -3.6394 -1.4234
  102OSM   H13T10302   5.459   6.450   9.332  2.4117 -1.1185 -1.5934
  102OSM   C14S10303   5.579   6.585   9.194  0.2696 -0.7226  0.0154
  102OSM   H14S10304   5.677   6.621   9.233 -0.9573  1.7484  1.0356
  102OSM   H14T10305   5.543   6.677   9.142  2.7729 -0.1446 -0.8623
  102OSM   C15S10306   5.601   6.458   9.111  0.1124  0.0085  0.4086
  102OSM   H15S10307   5.500   6.413   9.106 -0.0966  0.2875 -5.6521
  102OSM   H15T10308   5.676   6.388   9.154  3.5121  1.5915 -2.3501
  102OSM   C16S10309   5.637   6.485   8.966 -0.1332 -0.0630 -0.0656
  102OSM   H16S10310   5.581   6.567   8.917  0.2746  1.9163  2.5472
  102OSM   H16T10311   5.628   6.393   8.904  2.7501 -0.1836 -0.4602
  102OSM   C17S10312   5.782   6.531   8.956 -0.1880 -0.0066  0.4656
  102OSM   H17S10313   5.841   6.457   9.013  1.8121  0.2836 -1.1037
  102OSM   H17T10314   5.790   6.617   9.026 -0.7844  0.8303 -0.4599
  102OSM   C18S10315   5.830   6.565   8.811  0.4097  0.1060 -0.4174
  102OSM   H18S10316   5.801   6.490   8.734  0.2974  0.5338 -0.7955
  102OSM   H18T10317   5.940   6.554   8.819  0.3769 -0.2433 -0.4270
  102OSM   H18U10318   5.790   6.667   8.794 -0.0542  0.3760  1.9751
  102OSM    C1F10319   4.926   6.896  10.367 -0.5221 -0.5233 -0.2898
  102OSM     OF10320   4.944   6.948  10.475  0.3665 -0.2145  0.2960
  102OSM    C2F10321   4.843   6.972  10.262 -0.6374  0.0662 -0.5284
  102OSM    H2F10322   4.783   7.042  10.323 -0.9018 -3.1502  3.3529
  102OSM    H2G10323   4.779   6.897  10.211  0.3670 -0.9169 -0.3818
  102OSM    C3F10324   4.937   7.046  10.161  0.4783 -0.1230  0.2370
  102OSM    H3F10325   5.004   6.973  10.111 -2.8952 -2.6215 -1.0029
  102OSM    H3G10326   4.991   7.129  10.213  0.1595  0.7557 -0.7885
  102OSM    C4F10327   4.855   7.117  10.048 -0.3587 -0.1942 -0.1331
  102OSM    H4F10328   4.809   7.203  10.100  3.6930  0.1660  3.4560
  102OSM    H4G10329   4.773   7.050  10.016 -0.1290 -0.0621 -1.0345
  102OSM    C5F10330   4.961   7.162   9.939  0.1586 -0.0597 -0.4459
  102OSM    H5F10331   5.012   7.070   9.902 -1.0529 -0.8267 -0.2701
  102OSM    H5G10332   5.034   7.232   9.984  0.4001  1.3808 -2.9237
  102OSM    C6F10333   4.899   7.242   9.821  0.4766 -0.6456  0.4581
  102OSM    H6F10334   4.844   7.334   9.850  0.0975 -0.3088 -1.2626
  102OSM    H6G10335   4.818   7.182   9.776 -0.5560  1.1333 -0.1654
  102OSM    C7F10336   5.003   7.292   9.724  0.2300 -0.2295  0.0895
  102OSM    H7F10337   5.104   7.247   9.731 -0.0262 -0.8494 -0.1576
  102OSM    H7G10338   5.031   7.395   9.756  2.8742 -0.0967 -2.2619
  102OSM    C8F10339   4.965   7.307   9.579 -0.1873 -0.2758  0.2332
  102OSM    H8F10340   4.868   7.361   9.576 -0.7815 -1.3276 -0.0644
  102OSM    H8G10341   4.950   7.202   9.544 -1.8710  0.4806 -1.5387
  102OSM    C9F10342   5.067   7.365   9.487 -0.8097  0.1125  0.0856
  102OSM    H9F10343   5.169   7.327   9.505 -1.4570 -1.2698  0.9326
  102OSM   C10F10344   5.049   7.478   9.403 -0.4845  0.2087 -0.4671
  102OSM   H10F10345   5.136   7.525   9.355 -0.0617 -0.4142 -0.3280
  102OSM   C11F10346   4.927   7.559   9.378 -0.4808  0.2056 -0.7112
  102OSM   H11F10347   4.900   7.633   9.457 -0.4221  0.3193 -0.7972
  102OSM   H11G10348   4.852   7.483   9.348  0.4571 -1.1968  0.3159
  102OSM   C12F10349   4.955   7.652   9.260 -0.2135 -0.7648 -0.8668
  102OSM   H12F10350   5.046   7.710   9.287  0.1364 -0.7256 -2.1049
  102OSM   H12G10351   4.876   7.729   9.247 -0.0167 -0.2562  0.7286
  102OSM   C13F10352   4.981   7.594   9.130  0.0144  0.2469  0.0726
  102OSM   H13F10353   5.040   7.501   9.145 -0.2666 -0.0473 -0.5849
  102OSM   H13G10354   5.059   7.662   9.091 -0.7349  1.6026  0.8581
  102OSM   C14F10355   4.858   7.575   9.038  0.1338 -0.0502 -0.7508
  102OSM   H14F10356   4.796   7.666   9.051 -1.0280 -1.0017  0.9368
  102OSM   H14G10357   4.804   7.487   9.081 -0.9546  0.2948 -1.3818
  102OSM   C15F10358   4.888   7.545   8.888  0.0980 -0.4833  0.3572
  102OSM   H15F10359   4.790   7.513   8.847 -0.2596  0.5767  0.3379
  102OSM   H15G10360   4.967   7.467   8.884 -0.5868 -1.1198 -1.2742
  102OSM   C16F10361   4.927   7.681   8.815  0.1702  0.4272  0.0171
  102OSM   H16F10362   5.004   7.738   8.870 -0.1959  1.0496 -0.1042
  102OSM   H16G10363   4.836   7.744   8.812  1.0925  1.9008  1.4505
  102OSM   C17F10364   4.967   7.659   8.669  0.6152  0.1987  0.0406
  102OSM   H17F10365   4.889   7.593   8.626  0.5777 -2.6735  3.8837
  102OSM   H17G10366   5.058   7.595   8.661  0.0991 -0.6054  0.3852
  102OSM   C18F10367   5.006   7.788   8.593  0.0740  0.1000 -0.2384
  102OSM   H18F10368   5.085   7.836   8.653 -1.4053  1.3293  0.8161
  102OSM   H18G10369   4.927   7.867   8.590 -0.7921 -0.5844  2.3739
  102OSM   H18H10370   5.028   7.759   8.488 -0.6691  2.8818 -1.2685
  103OSM      N10371   0.731   2.965  11.048  0.6446  0.1011 -0.5091
  103OSM    C1510372   0.800   2.843  11.104 -0.3335  0.6803  0.5309
  103OSM   H15A10373   0.736   2.756  11.112  0.8025 -0.1940  0.3970
  103OSM   H15B10374   0.841   2.872  11.200  0.4899  1.7293 -0.1220
  103OSM   H15C10375   0.873   2.812  11.030 -2.4735 -0.7237 -1.1542
  103OSM    C1410376   0.625   3.008  11.155  0.2078  0.0514 -0.0246
  103OSM   H14A10377   0.672   3.026  11.251 -1.2949  1.2803  0.5326
  103OSM   H14B10378   0.541   2.941  11.160 -0.9351  1.4746  1.1387
  103OSM   H14C10379   0.567   3.094  11.126 -1.5172 -1.2728 -0.6267
  103OSM    C1310380   0.838   3.074  11.044 -0.6350 -0.8240 -0.6927
  103OSM   H13A10381   0.797   3.173  11.027 -1.9159 -0.9250  1.5154
  103OSM   H13B10382   0.905   3.066  10.959 -0.1000  2.2098 -0.6804
  103OSM   H13C10383   0.895   3.075  11.136 -2.3643 -1.3476  0.4144
  103OSM    C1210384   0.671   2.945  10.915  0.6837 -0.1277  0.8328
  103OSM   H12A10385   0.633   3.037  10.873 -0.4059 -1.1058 -0.4196
  103OSM   H12B10386   0.584   2.882  10.914 -0.7264  1.7411  0.7637
  103OSM    C1110387   0.762   2.881  10.808  0.2058 -0.4410  0.0106
  103OSM   H11A10388   0.697   2.856  10.721 -0.4108  0.6516  0.1322
  103OSM   H11B10389   0.807   2.782  10.831 -1.1620 -0.8344  1.1723
  103OSM      P10390   0.821   3.088  10.671  0.3386 -0.4223  0.5191
  103OSM    O1310391   0.667   3.104  10.668 -0.3011  0.1553 -0.0665
  103OSM    O1410392   0.900   3.210  10.687 -0.2031  0.2286  0.4324
  103OSM    O1110393   0.873   3.039  10.530 -0.8367 -0.7156 -0.1894
  103OSM    O1210394   0.861   2.979  10.776  0.1408 -0.6003  0.3593
  103OSM    C1S10395   0.783   2.979  10.439  0.3637 -0.0101 -0.2462
  103OSM    H1S10396   0.679   3.016  10.446 -0.5208 -2.1608 -1.2229
  103OSM    H1T10397   0.787   2.868  10.448  1.2875 -0.0223 -0.6673
  103OSM     NF10398   0.739   2.924  10.199 -0.3422  0.0296 -0.3015
  103OSM    HNF10399   0.774   2.838  10.161  0.3594 -0.0740  0.5494
  103OSM    C2S10400   0.828   2.993  10.285  0.4628 -0.0605 -0.4665
  103OSM    H2S10401   0.813   3.102  10.268  0.7468 -0.0208 -0.4649
  103OSM    C3S10402   0.980   2.967  10.269  0.1216 -0.8715  0.8014
  103OSM    H3S10403   1.006   2.869  10.316 -0.2420  0.0873  3.1342
  103OSM     O310404   1.062   3.060  10.344 -0.5864  0.2556 -0.0365
  103OSM    HO310405   1.009   3.094  10.416 -0.4673  0.8185 -0.2153
  103OSM    C4S10406   1.020   2.977  10.126 -0.3316 -0.2041  0.5427
  103OSM    H4S10407   1.020   2.877  10.080 -2.0213 -0.3289  0.7419
  103OSM    C5S10408   1.044   3.086  10.047  0.2164  0.1936 -0.0940
  103OSM    H5S10409   1.032   3.188  10.086  1.0500  1.3612 -2.6617
  103OSM    C6S10410   1.082   3.088   9.899  0.4187 -0.9132 -0.4048
  103OSM    H6S10411   1.190   3.064   9.885  0.0721 -2.3858 -0.8002
  103OSM    H6T10412   1.046   3.181   9.851 -0.8447 -1.8198 -1.2925
  103OSM    C7S10413   1.015   2.985   9.807  0.3106  0.6219 -0.7771
  103OSM    H7S10414   0.905   2.996   9.815  0.4726  3.4556 -1.5164
  103OSM    H7T10415   1.039   2.882   9.840 -0.2188  0.8316  0.3079
  103OSM    C8S10416   1.048   3.014   9.665 -0.0323  0.4874  0.3445
  103OSM    H8S10417   1.154   2.990   9.645  0.6772  2.9326  0.8567
  103OSM    H8T10418   1.027   3.122   9.648 -1.3995  0.5840  2.3091
  103OSM    C9S10419   0.958   2.932   9.567  0.3062 -0.4938 -0.0162
  103OSM    H9S10420   0.860   2.982   9.554  1.8190  2.9674  0.8394
  103OSM    H9T10421   0.961   2.826   9.601  0.3558  0.4307  3.1631
  103OSM   C10S10422   1.014   2.948   9.420  0.1663  0.5280 -0.2020
  103OSM   H10S10423   1.125   2.943   9.418  0.1770  0.9745 -1.1567
  103OSM   H10T10424   0.995   3.050   9.380  0.8769  0.4464 -0.7543
  103OSM   C11S10425   0.945   2.844   9.326  0.1880 -0.3352  0.2351
  103OSM   H11S10426   0.840   2.874   9.343  1.3511  4.3835  0.7029
  103OSM   H11T10427   0.954   2.738   9.356 -0.3693  0.4419  3.5656
  103OSM   C12S10428   1.003   2.860   9.183 -0.0420 -0.2878  0.0667
  103OSM   H12S10429   1.113   2.850   9.189  0.2801  3.0190  3.5054
  103OSM   H12T10430   0.997   2.964   9.146  0.8075  0.4672  1.9178
  103OSM   C13S10431   0.945   2.759   9.084 -0.2969  0.7922  0.2408
  103OSM   H13S10432   0.929   2.657   9.125  3.3977 -0.2259 -0.5601
  103OSM   H13T10433   1.014   2.738   9.000 -3.1185 -3.1911 -1.4288
  103OSM   C14S10434   0.814   2.818   9.024 -1.1070  0.2533 -0.1636
  103OSM   H14S10435   0.842   2.919   8.988 -0.7410  0.3770  0.4457
  103OSM   H14T10436   0.742   2.825   9.108  1.2488 -0.8711  2.1123
  103OSM   C15S10437   0.757   2.745   8.911 -0.1387 -0.4133  0.3529
  103OSM   H15S10438   0.825   2.741   8.823 -1.6920 -0.7504 -0.8748
  103OSM   H15T10439   0.662   2.789   8.873 -0.3211 -2.3825 -1.6924
  103OSM   C16S10440   0.727   2.602   8.947  0.8685  0.2992 -0.0411
  103OSM   H16S10441   0.639   2.603   9.016  0.9492  1.2161  0.0668
  103OSM   H16T10442   0.815   2.562   9.002  0.4564  0.7121  0.9524
  103OSM   C17S10443   0.700   2.518   8.818 -0.0763 -0.4193  0.6388
  103OSM   H17S10444   0.687   2.412   8.847 -1.1990  0.2943  3.0035
  103OSM   H17T10445   0.795   2.520   8.761 -0.4476 -1.7345 -0.0595
  103OSM   C18S10446   0.588   2.562   8.724  0.3415 -0.3233  0.0116
  103OSM   H18S10447   0.614   2.656   8.670  2.4751 -1.3841 -0.9153
  103OSM   H18T10448   0.499   2.599   8.779 -0.3782 -1.5100 -0.3403
  103OSM   H18U10449   0.559   2.477   8.659  1.0787  0.2644 -1.1160
  103OSM    C1F10450   0.616   2.964  10.195 -0.1910 -0.2597 -0.0479
  103OSM     OF10451   0.584   3.075  10.235  0.3514 -0.3751  0.0681
  103OSM    C2F10452   0.513   2.857  10.137 -0.3150 -0.3019  0.1552
  103OSM    H2F10453   0.411   2.874  10.178 -0.1051  3.4246 -0.4747
  103OSM    H2G10454   0.545   2.752  10.155 -0.9414 -1.3143 -3.7062
  103OSM    C3F10455   0.495   2.883   9.982  0.7436 -0.5800  0.3550
  103OSM    H3F10456   0.476   2.991   9.968 -1.2992 -1.0348 -0.6820
  103OSM    H3G10457   0.414   2.822   9.936  1.3768 -0.1503 -1.3882
  103OSM    C4F10458   0.629   2.859   9.907  1.1499 -0.4421  0.7708
  103OSM    H4F10459   0.655   2.753   9.929 -2.6742 -1.8758 -0.7207
  103OSM    H4G10460   0.696   2.934   9.955 -0.3950  1.5725 -0.0981
  103OSM    C5F10461   0.623   2.891   9.754  0.4111  0.7223 -0.2204
  103OSM    H5F10462   0.730   2.880   9.726  0.4916 -0.2003  0.4262
  103OSM    H5G10463   0.597   2.998   9.738 -0.6808  0.6137  0.7162
  103OSM    C6F10464   0.529   2.801   9.672  0.3245 -0.4219 -0.2214
  103OSM    H6F10465   0.427   2.833   9.701 -0.7018 -3.4729 -0.0768
  103OSM    H6G10466   0.528   2.694   9.702  0.9956 -0.0529  1.1893
  103OSM    C7F10467   0.551   2.816   9.521 -0.5976  0.9493 -0.5346
  103OSM    H7F10468   0.632   2.742   9.504 -1.4529 -0.0570 -0.3196
  103OSM    H7G10469   0.594   2.914   9.491  2.0369 -0.3740 -1.4451
  103OSM    C8F10470   0.442   2.772   9.432 -0.4635 -0.4597  0.5297
  103OSM    H8F10471   0.349   2.831   9.452  0.0765  0.6179 -0.0676
  103OSM    H8G10472   0.423   2.665   9.454  2.8161 -1.4541 -0.9429
  103OSM    C9F10473   0.485   2.783   9.285  0.2241 -0.0554 -0.1555
  103OSM    H9F10474   0.577   2.727   9.262  1.5990  2.0649 -0.1214
  103OSM   C10F10475   0.410   2.829   9.188 -0.3734  0.0999  0.4687
  103OSM   H10F10476   0.453   2.835   9.087 -1.3286  0.3316  0.0616
  103OSM   C11F10477   0.280   2.907   9.198  0.0532 -0.8140 -0.6519
  103OSM   H11F10478   0.223   2.868   9.285  4.1743 -0.4566  2.4881
  103OSM   H11G10479   0.216   2.881   9.111  2.1044  2.6621 -3.4823
  103OSM   C12F10480   0.306   3.060   9.202  0.4408  0.0578 -0.0118
  103OSM   H12F10481   0.308   3.093   9.096 -0.2205 -0.3285 -0.1500
  103OSM   H12G10482   0.402   3.085   9.251  0.3686  1.2833 -0.4801
  103OSM   C13F10483   0.199   3.144   9.278 -0.0856  0.1371  0.4624
  103OSM   H13F10484   0.102   3.144   9.225  0.5943  0.3414 -0.8336
  103OSM   H13G10485   0.232   3.250   9.281 -1.1200  0.4983 -0.3953
  103OSM   C14F10486   0.183   3.101   9.422 -1.0819  0.6689 -0.3888
  103OSM   H14F10487   0.282   3.065   9.458 -0.9893 -1.4967 -2.5507
  103OSM   H14G10488   0.114   3.014   9.429 -0.3298  0.0526 -0.4921
  103OSM   C15F10489   0.132   3.209   9.513 -0.1786  0.4454  0.6329
  103OSM   H15F10490   0.062   3.269   9.451  0.8733  0.2216 -0.8144
  103OSM   H15G10491   0.220   3.271   9.542  0.6435 -0.2727 -0.2456
  103OSM   C16F10492   0.062   3.152   9.632  0.7949  0.5579  0.2298
  103OSM   H16F10493  -0.002   3.065   9.607 -0.4011  2.0255 -2.2708
  103OSM   H16G10494   0.001   3.232   9.679  2.8234  1.9489  0.6698
  103OSM   C17F10495   0.160   3.097   9.741  0.4016 -1.1016  0.5857
  103OSM   H17F10496   0.220   3.184   9.776  0.1323 -0.4921 -0.4147
  103OSM   H17G10497   0.233   3.026   9.696  0.8433 -0.0919 -0.3429
  103OSM   C18F10498   0.096   3.043   9.866  0.0649 -0.1947  0.2120
  103OSM   H18F10499   0.174   3.010   9.938  0.6200 -0.4269 -0.4844
  103OSM   H18G10500   0.035   2.956   9.833 -0.8036 -0.6179  2.6902
  103OSM   H18H10501   0.038   3.121   9.921  2.6817  0.6034  2.0536
  104OSM      N10502   2.887   3.003  11.037 -0.2302 -0.4560 -0.0159
  104OSM    C1510503   2.754   2.953  11.088 -0.1229 -0.0469  0.7941
  104OSM   H15A10504   2.733   3.003  11.182  0.0132  0.9531  0.3139
  104OSM   H15B10505   2.763   2.847  11.103  0.7037 -0.5909 -2.7536
  104OSM   H15C10506   2.682   2.985  11.014  2.1170  0.6842 -1.2032
  104OSM    C1410507   2.923   3.139  11.089 -0.1211  0.5232 -0.0492
  104OSM   H14A10508   2.915   3.148  11.196 -2.1213  3.1833 -0.3174
  104OSM   H14B10509   2.852   3.208  11.045 -0.3771 -0.7517 -1.7616
  104OSM   H14C10510   3.019   3.174  11.053  0.8197 -2.9652 -1.4165
  104OSM    C1310511   2.990   2.910  11.089 -0.0424  0.4799  0.1716
  104OSM   H13A10512   3.090   2.933  11.054  0.2697 -3.4902 -2.2093
  104OSM   H13B10513   2.962   2.814  11.047 -1.7882  1.5118 -1.1466
  104OSM   H13C10514   2.995   2.900  11.196  2.4323 -1.1832 -0.0038
  104OSM    C1210515   2.894   2.991  10.888  0.3906  0.0237 -0.5019
  104OSM   H12A10516   2.856   2.893  10.863 -1.7422  0.6061  0.2720
  104OSM   H12B10517   2.998   2.992  10.859  0.1971  0.0577 -1.2143
  104OSM    C1110518   2.812   3.095  10.807  0.1505  0.1865  0.5307
  104OSM   H11A10519   2.832   3.083  10.698 -0.4491  1.8023  0.2121
  104OSM   H11B10520   2.849   3.197  10.832  2.4990 -1.0425  2.3960
  104OSM      P10521   2.569   3.200  10.799 -0.1078 -0.2244  0.5529
  104OSM    O1310522   2.440   3.154  10.853  0.7215 -0.0853  0.1534
  104OSM    O1410523   2.615   3.332  10.841  0.2087 -0.4208 -0.3581
  104OSM    O1110524   2.565   3.202  10.642  0.1223 -0.0653 -0.7022
  104OSM    O1210525   2.672   3.082  10.827  0.2196  0.2369  0.4007
  104OSM    C1S10526   2.527   3.099  10.555  0.4640  0.5943 -0.0086
  104OSM    H1S10527   2.416   3.092  10.562  0.3939 -0.6132 -1.8371
  104OSM    H1T10528   2.566   3.000  10.587 -2.1957 -0.2153  1.0422
  104OSM     NF10529   2.507   3.015  10.326  0.1191  0.5427 -0.3362
  104OSM    HNF10530   2.571   2.953  10.282  0.1532  1.2646 -1.3467
  104OSM    C2S10531   2.556   3.128  10.406  0.3212 -0.4053 -0.6958
  104OSM    H2S10532   2.518   3.230  10.384  0.6373  0.0629  0.8237
  104OSM    C3S10533   2.709   3.143  10.393 -0.8678  0.5826  1.2665
  104OSM    H3S10534   2.762   3.046  10.406  1.3454  1.4407 -0.5182
  104OSM     O310535   2.774   3.224  10.486  0.2790  0.4828  0.7792
  104OSM    HO310536   2.699   3.234  10.546 -1.7234  1.0209 -1.6330
  104OSM    C4S10537   2.756   3.182  10.250  0.2990 -0.3144  0.1308
  104OSM    H4S10538   2.819   3.107  10.200  0.0120  0.4284 -1.3971
  104OSM    C5S10539   2.714   3.286  10.172 -0.0814  0.2424  0.8765
  104OSM    H5S10540   2.648   3.367  10.204 -1.4840 -0.5405  0.0748
  104OSM    C6S10541   2.746   3.318  10.026  1.2639 -0.5445  0.1676
  104OSM    H6S10542   2.767   3.426  10.015 -0.9924 -0.0208  0.5358
  104OSM    H6T10543   2.662   3.291   9.957  1.4252 -1.4999  0.3216
  104OSM    C7S10544   2.874   3.252   9.974 -0.1297 -0.1093  0.3577
  104OSM    H7S10545   2.883   3.143   9.998  0.9879 -0.0503  0.2617
  104OSM    H7T10546   2.962   3.299  10.022 -1.4319  0.1113  2.6664
  104OSM    C8S10547   2.873   3.261   9.820 -0.5062 -0.4675  0.2947
  104OSM    H8S10548   2.982   3.272   9.799 -0.6743 -0.4053 -0.5884
  104OSM    H8T10549   2.819   3.351   9.783 -1.8753 -1.2504  0.3131
  104OSM    C9S10550   2.814   3.142   9.746  0.2847 -0.5573 -1.0237
  104OSM    H9S10551   2.704   3.137   9.758 -0.0545  1.9946 -2.4162
  104OSM    H9T10552   2.856   3.043   9.776 -0.8245 -0.3796  1.3332
  104OSM   C10S10553   2.831   3.171   9.596 -0.1389 -0.7069  0.0508
  104OSM   H10S10554   2.939   3.179   9.574 -0.0279 -1.3091  0.3812
  104OSM   H10T10555   2.779   3.268   9.578  1.6361  0.5164  1.1615
  104OSM   C11S10556   2.778   3.056   9.511 -0.1115  0.3072 -0.9981
  104OSM   H11S10557   2.684   3.011   9.549 -0.1074  0.2011 -1.1133
  104OSM   H11T10558   2.856   2.980   9.528  0.4813  0.3786 -3.1041
  104OSM   C12S10559   2.755   3.096   9.369  0.0265  0.5068  0.0505
  104OSM   H12S10560   2.838   3.169   9.353 -0.1246  1.1942  2.0681
  104OSM   H12T10561   2.661   3.154   9.357  0.3492  1.1354  0.4865
  104OSM   C13S10562   2.748   2.982   9.278  0.4083 -0.2918  0.2241
  104OSM   H13S10563   2.694   2.902   9.333 -1.3170  0.4528 -0.3236
  104OSM   H13T10564   2.846   2.934   9.256 -0.0273 -1.0630 -0.1027
  104OSM   C14S10565   2.682   3.012   9.141 -0.0752  0.0835  0.0019
  104OSM   H14S10566   2.727   3.104   9.100  1.1072 -1.0507 -1.3527
  104OSM   H14T10567   2.574   3.037   9.154 -0.7021 -1.4352 -1.8172
  104OSM   C15S10568   2.693   2.903   9.032  0.5817 -0.5720 -0.4349
  104OSM   H15S10569   2.641   2.810   9.064 -0.1336 -1.2191 -3.2690
  104OSM   H15T10570   2.802   2.885   9.021  1.1376  0.5623  2.2526
  104OSM   C16S10571   2.627   2.949   8.906 -0.2163 -0.3804  0.3862
  104OSM   H16S10572   2.672   3.042   8.864  0.2880 -0.9465 -0.3572
  104OSM   H16T10573   2.521   2.977   8.928 -0.3389  0.2022 -0.8429
  104OSM   C17S10574   2.635   2.845   8.792 -0.4919 -0.9542 -0.2637
  104OSM   H17S10575   2.739   2.809   8.775 -1.4093 -2.7008 -2.8717
  104OSM   H17T10576   2.607   2.892   8.695  1.2077  0.6193 -0.0583
  104OSM   C18S10577   2.535   2.733   8.814  0.5402 -0.3374  0.1151
  104OSM   H18S10578   2.557   2.690   8.914 -2.0717 -0.6749  0.6328
  104OSM   H18T10579   2.554   2.650   8.743 -2.3512 -1.5744  0.6381
  104OSM   H18U10580   2.429   2.768   8.815  1.6481  3.9993 -3.1989
  104OSM    C1F10581   2.372   2.991  10.313 -0.3472  0.5144 -0.6458
  104OSM     OF10582   2.299   3.087  10.328  0.1824 -1.3174  0.8587
  104OSM    C2F10583   2.317   2.847  10.299 -0.9164  0.0332 -0.1026
  104OSM    H2F10584   2.353   2.804  10.395 -0.1857  2.0975  0.5981
  104OSM    H2G10585   2.355   2.805  10.203 -1.8920 -0.0973 -0.4412
  104OSM    C3F10586   2.162   2.842  10.305 -0.5886  0.3440  0.4756
  104OSM    H3F10587   2.120   2.901  10.221 -1.5827  0.3474  0.9593
  104OSM    H3G10588   2.130   2.888  10.400  0.5080  2.2966 -0.0436
  104OSM    C4F10589   2.109   2.701  10.292  0.4774  0.3599 -0.0951
  104OSM    H4F10590   2.148   2.633  10.372  0.7826 -1.4229 -1.6816
  104OSM    H4G10591   2.144   2.645  10.203  1.2611 -1.6914  1.4180
  104OSM    C5F10592   1.952   2.695  10.286 -0.4866  0.5062 -0.1252
  104OSM    H5F10593   1.911   2.751  10.373 -1.8665 -1.4690  0.5775
  104OSM    H5G10594   1.932   2.586  10.294 -1.9293  0.8315  1.1965
  104OSM    C6F10595   1.885   2.749  10.164 -0.0598 -0.3355 -0.2832
  104OSM    H6F10596   1.885   2.859  10.174 -1.1793 -0.3541  0.0851
  104OSM    H6G10597   1.777   2.721  10.162  0.3739 -2.2699  0.2607
  104OSM    C7F10598   1.952   2.724  10.024  1.1375  0.2059  0.1574
  104OSM    H7F10599   1.933   2.616  10.004 -1.5391  1.0869 -2.9254
  104OSM    H7G10600   2.058   2.757  10.023  0.8760  1.0440 -0.4722
  104OSM    C8F10601   1.869   2.792   9.910 -0.5035  0.3083 -0.4369
  104OSM    H8F10602   1.915   2.780   9.810 -1.6197 -0.3808 -0.8821
  104OSM    H8G10603   1.858   2.898   9.940  0.3951  0.5262 -0.8597
  104OSM    C9F10604   1.732   2.735   9.896  0.1218  0.0083  0.0123
  104OSM    H9F10605   1.662   2.775   9.972  1.0178  1.8143 -0.0641
  104OSM   C10F10606   1.685   2.657   9.800  0.4732  0.1797 -0.4193
  104OSM   H10F10607   1.580   2.627   9.805  0.5195  0.2019  0.8643
  104OSM   C11F10608   1.765   2.596   9.690  0.4356  0.3652  0.0217
  104OSM   H11F10609   1.722   2.495   9.678 -0.9653  1.2447 -3.4196
  104OSM   H11G10610   1.872   2.588   9.720  0.8732 -1.8244 -1.8990
  104OSM   C12F10611   1.744   2.661   9.554  0.2570 -0.4305 -0.5780
  104OSM   H12F10612   1.817   2.614   9.484 -0.2226 -2.1109 -0.0056
  104OSM   H12G10613   1.772   2.768   9.566  4.2335 -0.6782 -4.6347
  104OSM   C13F10614   1.601   2.657   9.495  0.5102 -0.0067 -0.4822
  104OSM   H13F10615   1.535   2.728   9.550  1.0777 -0.7200  1.1830
  104OSM   H13G10616   1.568   2.555   9.524 -1.0262  0.6171  0.0975
  104OSM   C14F10617   1.607   2.693   9.345 -0.6048  0.9043 -1.0692
  104OSM   H14F10618   1.677   2.618   9.302 -0.1082 -1.0101  2.6747
  104OSM   H14G10619   1.651   2.795   9.330  1.9272 -0.1026 -1.0732
  104OSM   C15F10620   1.466   2.684   9.289 -0.8104  0.1014  0.8635
  104OSM   H15F10621   1.403   2.757   9.343 -1.9978 -0.1301 -0.1677
  104OSM   H15G10622   1.420   2.583   9.294  0.2169 -0.5571 -1.3571
  104OSM   C16F10623   1.479   2.705   9.136  0.3339  0.1664  1.0202
  104OSM   H16F10624   1.553   2.627   9.108 -0.3764 -0.1195 -0.1117
  104OSM   H16G10625   1.524   2.802   9.105  3.3060 -1.7569 -1.2262
  104OSM   C17F10626   1.350   2.673   9.059 -0.3986  0.3360  0.1568
  104OSM   H17F10627   1.271   2.705   9.130 -0.9858  0.0222 -0.3476
  104OSM   H17G10628   1.327   2.565   9.049 -0.3903  0.0392  2.7036
  104OSM   C18F10629   1.332   2.732   8.922 -0.0907 -0.5396 -0.7140
  104OSM   H18F10630   1.418   2.701   8.859  0.7844  0.8392 -0.2507
  104OSM   H18G10631   1.337   2.842   8.933 -0.4160 -0.6045  0.1772
  104OSM   H18H10632   1.233   2.717   8.873 -0.8492  0.5794  0.4051
  105OSM      N10633   6.714   4.354  10.868  0.9379  0.1394 -0.3636
  105OSM    C1510634   6.814   4.263  10.931  0.2942 -0.2215  0.1834
  105OSM   H15A10635   6.915   4.279  10.896  0.0436 -0.7692 -0.8085
  105OSM   H15B10636   6.791   4.161  10.903 -0.1006 -0.0012 -0.3120
  105OSM   H15C10637   6.813   4.259  11.039 -1.2125 -1.0211  0.1697
  105OSM    C1410638   6.724   4.351  10.718  0.0256 -0.0220 -0.1206
  105OSM   H14A10639   6.825   4.369  10.683 -0.2810 -1.6527 -2.0607
  105OSM   H14B10640   6.642   4.407  10.674 -1.6457  0.3339  3.1588
  105OSM   H14C10641   6.717   4.247  10.691 -0.2705 -0.3301  1.0956
  105OSM    C1310642   6.579   4.310  10.917  0.0580 -0.1144 -0.4152
  105OSM   H13A10643   6.545   4.218  10.871  2.2089 -0.4800 -1.4041
  105OSM   H13B10644   6.511   4.392  10.905  0.9251  1.0612  2.1795
  105OSM   H13C10645   6.583   4.296  11.024  0.0274  1.1075 -0.2436
  105OSM    C1210646   6.745   4.492  10.920 -0.1289  0.9613  0.2994
  105OSM   H12A10647   6.846   4.513  10.889  0.1429  0.0268  0.5163
  105OSM   H12B10648   6.748   4.487  11.028  1.3498 -0.2611  0.2328
  105OSM    C1110649   6.653   4.609  10.877  0.5466  0.0152 -0.6348
  105OSM   H11A10650   6.552   4.593  10.922 -0.6131 -0.2802 -3.1247
  105OSM   H11B10651   6.638   4.615  10.767 -1.3912 -1.0337 -0.4779
  105OSM      P10652   6.852   4.794  10.884  0.2670 -0.0992 -0.0730
  105OSM    O1310653   6.871   4.924  10.954 -0.1782  0.5401  0.2133
  105OSM    O1410654   6.962   4.693  10.898 -0.1059 -0.6875  0.3237
  105OSM    O1110655   6.840   4.828  10.731 -0.2452 -0.0143 -0.4794
  105OSM    O1210656   6.714   4.727  10.919  0.1110  0.1384  0.5543
  105OSM    C1S10657   6.738   4.917  10.686 -0.2192 -0.2344  0.3849
  105OSM    H1S10658   6.731   5.008  10.749 -2.7331 -0.2858  0.3059
  105OSM    H1T10659   6.640   4.865  10.689  0.2294 -1.0633  1.5596
  105OSM     NF10660   6.694   5.074  10.512  0.8824 -0.3789 -0.2939
  105OSM    HNF10661   6.596   5.060  10.502  1.1978 -2.7187 -0.6410
  105OSM    C2S10662   6.775   4.962  10.533  0.2532  0.9056 -0.0761
  105OSM    H2S10663   6.884   4.984  10.527  0.2682  0.4636 -2.4183
  105OSM    C3S10664   6.746   4.840  10.443  0.6184 -0.4500 -0.0959
  105OSM    H3S10665   6.646   4.799  10.468  1.8738 -3.4367  0.5239
  105OSM     O310666   6.842   4.743  10.481 -0.1508  0.1409 -0.3713
  105OSM    HO310667   6.871   4.769  10.569 -0.8842  1.1591 -0.4215
  105OSM    C4S10668   6.759   4.869  10.300 -0.3742  0.6618 -0.0320
  105OSM    H4S10669   6.866   4.887  10.284 -0.3131  0.6979  0.4087
  105OSM    C5S10670   6.661   4.874  10.201  0.0629  0.2073 -0.1735
  105OSM    H5S10671   6.558   4.877  10.239  0.6809  2.9066  1.5915
  105OSM    C6S10672   6.688   4.908  10.056 -0.4148  0.0712  0.5770
  105OSM    H6S10673   6.617   4.981  10.009  1.1673  0.9884 -0.4843
  105OSM    H6T10674   6.674   4.810  10.005  1.5169 -0.5671  1.2152
  105OSM    C7S10675   6.829   4.961  10.026 -0.5177 -0.5298 -0.3004
  105OSM    H7S10676   6.908   4.886  10.046  0.5287  0.7574  0.6010
  105OSM    H7T10677   6.842   5.049  10.092 -3.1726 -0.9188  0.8583
  105OSM    C8S10678   6.855   5.016   9.885 -0.1016  0.1912  0.1827
  105OSM    H8S10679   6.955   5.065   9.887 -0.4206  0.9474 -1.2593
  105OSM    H8T10680   6.773   5.085   9.857 -1.6147 -0.5330  2.5969
  105OSM    C9S10681   6.845   4.906   9.775  0.0889 -0.0523  0.3683
  105OSM    H9S10682   6.743   4.862   9.778 -0.2877  0.7770 -0.0439
  105OSM    H9T10683   6.920   4.826   9.795 -1.3587 -1.1062  1.7867
  105OSM   C10S10684   6.870   4.954   9.632 -0.2193 -0.3794  0.7822
  105OSM   H10S10685   6.938   5.040   9.645  0.2526 -0.9059  1.9540
  105OSM   H10T10686   6.775   4.996   9.591  0.6815  0.5060 -0.4627
  105OSM   C11S10687   6.909   4.835   9.540  0.4616 -0.2137  0.6960
  105OSM   H11S10688   6.831   4.755   9.539 -0.1832  0.4033 -0.6816
  105OSM   H11T10689   7.000   4.789   9.585 -0.5265 -1.0332  1.9373
  105OSM   C12S10690   6.942   4.874   9.396  0.2692 -0.4842  0.2740
  105OSM   H12S10691   7.041   4.923   9.400  0.8788 -1.7382  1.4419
  105OSM   H12T10692   6.860   4.934   9.351  0.1511 -1.4537 -0.8540
  105OSM   C13S10693   6.962   4.743   9.310 -0.0662 -0.1728  0.8997
  105OSM   H13S10694   6.864   4.714   9.265 -0.4637  0.9767  1.0149
  105OSM   H13T10695   7.002   4.659   9.371  0.6933 -0.4812 -0.0014
  105OSM   C14S10696   7.056   4.768   9.183 -0.7929  0.2785 -0.0006
  105OSM   H14S10697   7.157   4.738   9.218 -0.1135  1.8174 -0.5261
  105OSM   H14T10698   7.069   4.875   9.153 -0.0829 -0.6562 -3.4459
  105OSM   C15S10699   7.028   4.681   9.068 -0.1888  0.4154  0.3660
  105OSM   H15S10700   6.919   4.685   9.049 -0.2690 -3.0087 -0.7231
  105OSM   H15T10701   7.069   4.580   9.094  3.2729  1.4782 -0.3472
  105OSM   C16S10702   7.101   4.737   8.944 -0.0433  0.1419 -0.0476
  105OSM   H16S10703   7.197   4.779   8.983 -0.1200 -1.2893  1.8265
  105OSM   H16T10704   7.047   4.820   8.894 -0.9904  0.2879  1.1701
  105OSM   C17S10705   7.111   4.621   8.854  0.1791 -0.2358  0.1523
  105OSM   H17S10706   7.007   4.587   8.834 -0.5422  2.5591 -1.5131
  105OSM   H17T10707   7.169   4.542   8.905  0.2099  0.9451  2.0486
  105OSM   C18S10708   7.180   4.660   8.721 -0.0877 -0.6083 -0.6812
  105OSM   H18S10709   7.110   4.729   8.670  0.5075  0.7629  0.3165
  105OSM   H18T10710   7.198   4.571   8.657  2.2906  0.3000 -1.3894
  105OSM   H18U10711   7.278   4.710   8.739  0.0617 -0.9543 -0.5230
  105OSM    C1F10712   6.738   5.192  10.551  0.6681 -0.8257 -0.1329
  105OSM     OF10713   6.839   5.209  10.611 -0.1525 -0.1619 -0.5087
  105OSM    C2F10714   6.646   5.305  10.521  0.6513 -0.0157 -0.2918
  105OSM    H2F10715   6.659   5.375  10.607  1.1815 -0.1928 -0.2293
  105OSM    H2G10716   6.543   5.266  10.534  1.3838 -2.3576 -1.1452
  105OSM    C3F10717   6.667   5.360  10.380  0.7519 -0.2723 -0.7846
  105OSM    H3F10718   6.606   5.451  10.363 -1.8537 -1.8758 -0.5784
  105OSM    H3G10719   6.638   5.279  10.310  1.4324 -0.5573 -0.7505
  105OSM    C4F10720   6.812   5.392  10.351 -0.2191 -0.0603  0.4379
  105OSM    H4F10721   6.884   5.308  10.342  0.1397  0.4387 -1.9608
  105OSM    H4G10722   6.849   5.445  10.441 -1.7380 -1.6265  2.0662
  105OSM    C5F10723   6.839   5.481  10.230  0.1750 -0.4342 -0.3755
  105OSM    H5F10724   6.949   5.495  10.233 -0.1477  2.8575 -0.6198
  105OSM    H5G10725   6.791   5.578  10.253 -1.9339 -1.6740  0.7047
  105OSM    C6F10726   6.799   5.430  10.094 -0.1086  1.1210 -0.6534
  105OSM    H6F10727   6.689   5.438  10.080 -0.4553  0.0511  1.2454
  105OSM    H6G10728   6.823   5.324  10.073 -1.9344  0.6884 -0.6818
  105OSM    C7F10729   6.859   5.503   9.972 -0.5234  0.4682 -0.4307
  105OSM    H7F10730   6.962   5.530  10.002 -1.2082  0.2451  2.3559
  105OSM    H7G10731   6.804   5.599   9.962  0.3596  1.2920  1.9510
  105OSM    C8F10732   6.840   5.426   9.847 -0.0717 -0.6472  0.3996
  105OSM    H8F10733   6.879   5.322   9.854  1.4688 -0.3232 -2.2508
  105OSM    H8G10734   6.904   5.482   9.776  2.1813 -0.1076  2.7305
  105OSM    C9F10735   6.701   5.437   9.786  0.2498 -0.7687 -0.1216
  105OSM    H9F10736   6.633   5.507   9.836  1.0365  0.6343 -0.9585
  105OSM   C10F10737   6.663   5.384   9.675  0.6849 -0.2109  0.1652
  105OSM   H10F10738   6.558   5.401   9.646  0.3413 -1.0864  0.8390
  105OSM   C11F10739   6.747   5.299   9.578 -0.1504 -0.0268  0.4131
  105OSM   H11F10740   6.702   5.198   9.585 -0.8522  0.2834  0.4478
  105OSM   H11G10741   6.851   5.314   9.615 -0.3812 -0.0341  1.0877
  105OSM   C12F10742   6.746   5.333   9.426 -0.8781 -0.1845  0.0076
  105OSM   H12F10743   6.825   5.271   9.379 -0.3135 -0.8599  1.7765
  105OSM   H12G10744   6.755   5.441   9.402 -0.4971  0.3351  2.2694
  105OSM   C13F10745   6.619   5.280   9.354  0.2035 -0.4303 -0.1398
  105OSM   H13F10746   6.534   5.283   9.426 -0.1061  0.1431 -0.5240
  105OSM   H13G10747   6.635   5.178   9.314  1.7778 -0.7313  1.1669
  105OSM   C14F10748   6.583   5.376   9.238 -0.0566 -0.0151 -0.0874
  105OSM   H14F10749   6.673   5.386   9.175  1.9387  1.4347  2.7422
  105OSM   H14G10750   6.569   5.475   9.287  0.4203 -0.8626  1.8786
  105OSM   C15F10751   6.462   5.336   9.158  0.0086 -0.1183  0.3528
  105OSM   H15F10752   6.435   5.418   9.088  1.1488 -0.9330 -1.0962
  105OSM   H15G10753   6.373   5.325   9.224  0.5938  0.3831  1.2590
  105OSM   C16F10754   6.489   5.215   9.080  0.6906  0.0770  0.1740
  105OSM   H16F10755   6.481   5.126   9.146 -4.2208 -0.7319 -1.0977
  105OSM   H16G10756   6.584   5.210   9.023  0.4503  2.7638 -0.5721
  105OSM   C17F10757   6.378   5.183   8.978 -0.0205 -0.0405  0.6163
  105OSM   H17F10758   6.408   5.132   8.884 -1.1530 -1.0553  0.7923
  105OSM   H17G10759   6.333   5.279   8.946 -1.1535 -0.2352  1.5546
  105OSM   C18F10760   6.261   5.102   9.041 -0.3543 -0.0491  0.5688
  105OSM   H18F10761   6.165   5.106   8.986  0.2334 -0.5268 -0.5238
  105OSM   H18G10762   6.249   5.141   9.144  4.2894  0.6937  1.0574
  105OSM   H18H10763   6.290   4.996   9.056  1.6876  0.4226  0.2380
  106OSM      N10764   4.150   3.884  10.617  0.9595 -0.1732 -0.1109
  106OSM    C1510765   4.249   3.920  10.511  0.3029  0.3437 -0.5451
  106OSM   H15A10766   4.322   3.844  10.486 -0.5115 -1.0248  1.0036
  106OSM   H15B10767   4.294   4.014  10.538 -0.9033  1.0792 -1.0025
  106OSM   H15C10768   4.187   3.947  10.427 -0.9901  1.1492  0.6347
  106OSM    C1410769   4.051   3.802  10.551 -0.7162 -0.0876 -0.1020
  106OSM   H14A10770   4.013   3.840  10.457  0.5083 -1.7929 -1.3640
  106OSM   H14B10771   3.968   3.788  10.618  1.6653  0.2986  3.1633
  106OSM   H14C10772   4.089   3.703  10.531 -0.9669 -0.0059 -1.0378
  106OSM    C1310773   4.211   3.802  10.729  0.0841 -0.3616 -0.0985
  106OSM   H13A10774   4.296   3.849  10.776  1.9986 -0.7864 -2.8714
  106OSM   H13B10775   4.237   3.709  10.680 -0.4623 -0.6703  0.1901
  106OSM   H13C10776   4.147   3.761  10.806  0.3336  1.9196  1.4197
  106OSM    C1210777   4.089   4.008  10.671 -0.1157 -0.3552 -0.1051
  106OSM   H12A10778   4.024   3.980  10.753  1.6507  1.1855  1.9391
  106OSM   H12B10779   4.021   4.046  10.596 -1.0220 -1.8458 -0.0794
  106OSM    C1110780   4.182   4.124  10.723 -0.0574 -0.4251  0.8532
  106OSM   H11A10781   4.251   4.087  10.801  0.4716 -0.0979  0.5531
  106OSM   H11B10782   4.137   4.214  10.771 -0.2526 -0.4774  0.7713
  106OSM      P10783   4.211   4.292  10.524 -0.1715  0.3588  0.3107
  106OSM    O1310784   4.064   4.311  10.537 -0.3722  0.7644  0.0115
  106OSM    O1410785   4.300   4.405  10.543  0.6497 -0.3578 -0.0692
  106OSM    O1110786   4.236   4.236  10.379 -0.1463 -0.2212  0.2638
  106OSM    O1210787   4.263   4.175  10.614  0.4043  0.2445 -0.3444
  106OSM    C1S10788   4.370   4.221  10.311  0.9984  0.6618 -1.0409
  106OSM    H1S10789   4.383   4.111  10.300 -2.8551 -0.5458  3.0065
  106OSM    H1T10790   4.451   4.270  10.368  0.6751  0.6827 -0.5897
  106OSM     NF10791   4.505   4.243  10.111  0.3639 -0.4706  0.1224
  106OSM    HNF10792   4.582   4.303  10.133 -0.0081  0.8526 -1.9366
  106OSM    C2S10793   4.380   4.281  10.173  0.0710  0.5795  1.0942
  106OSM    H2S10794   4.306   4.222  10.116  0.0217  0.5563  1.1820
  106OSM    C3S10795   4.352   4.434  10.173  0.3285  0.3570  0.1417
  106OSM    H3S10796   4.406   4.482  10.258  0.2702  0.2665  0.2300
  106OSM     O310797   4.216   4.456  10.207  0.3820  0.3457  0.2285
  106OSM    HO310798   4.204   4.398  10.282 -1.0728  2.1655  1.5083
  106OSM    C4S10799   4.388   4.502  10.045  0.1102 -0.5043 -0.3190
  106OSM    H4S10800   4.496   4.512  10.026  0.2255 -1.6029 -0.3095
  106OSM    C5S10801   4.317   4.537   9.935  0.4148  0.4198 -0.3853
  106OSM    H5S10802   4.211   4.508   9.935  0.5035 -0.2057  2.8993
  106OSM    C6S10803   4.378   4.602   9.816 -0.2774 -0.5932  0.7330
  106OSM    H6S10804   4.483   4.623   9.845 -0.0410 -2.2511  1.1416
  106OSM    H6T10805   4.327   4.698   9.793  0.1606 -0.6872 -0.7378
  106OSM    C7S10806   4.380   4.517   9.682 -0.1604 -0.2295  0.0898
  106OSM    H7S10807   4.286   4.459   9.670 -0.9145  0.8764  0.4864
  106OSM    H7T10808   4.460   4.440   9.685 -1.5472 -1.8150 -1.3592
  106OSM    C8S10809   4.395   4.602   9.552 -0.4179 -0.2631  0.3407
  106OSM    H8S10810   4.487   4.664   9.560  0.4308 -1.5893  1.0468
  106OSM    H8T10811   4.304   4.663   9.533  0.2760  0.3488 -1.1786
  106OSM    C9S10812   4.421   4.504   9.438 -0.2770 -0.1505  0.2402
  106OSM    H9S10813   4.333   4.436   9.439 -0.1137 -0.3621  1.4409
  106OSM    H9T10814   4.513   4.447   9.465  0.9560  0.6495 -1.9912
  106OSM   C10S10815   4.434   4.567   9.305  0.4381 -0.0946  0.0315
  106OSM   H10S10816   4.458   4.491   9.228 -0.7278 -0.1129 -0.3272
  106OSM   H10T10817   4.513   4.646   9.303  2.3576 -1.8773  1.3299
  106OSM   C11S10818   4.304   4.625   9.250 -0.1767  0.5969  0.1804
  106OSM   H11S10819   4.310   4.736   9.243  1.2345  0.4946 -0.5776
  106OSM   H11T10820   4.222   4.603   9.322  2.5662 -1.0122  3.0830
  106OSM   C12S10821   4.275   4.560   9.122  0.0900  0.5132  0.2651
  106OSM   H12S10822   4.268   4.453   9.149  0.3656  0.3126 -0.4438
  106OSM   H12T10823   4.353   4.559   9.044  0.7806 -0.5589  0.9459
  106OSM   C13S10824   4.141   4.610   9.059 -0.6895  0.0586  0.3164
  106OSM   H13S10825   4.159   4.717   9.034 -0.0736  0.5080  2.5130
  106OSM   H13T10826   4.069   4.614   9.143  1.2019 -0.7945  2.0658
  106OSM   C14S10827   4.074   4.516   8.953  0.1479 -0.7847  0.5462
  106OSM   H14S10828   3.984   4.570   8.914 -0.6662 -2.6902 -0.3257
  106OSM   H14T10829   4.041   4.420   8.997 -1.6979 -0.2999  0.3236
  106OSM   C15S10830   4.164   4.478   8.828  0.1891  0.2084  0.2611
  106OSM   H15S10831   4.260   4.438   8.868  2.3456  0.3810 -4.1143
  106OSM   H15T10832   4.188   4.573   8.775  0.9848  0.0365  0.2972
  106OSM   C16S10833   4.106   4.378   8.722 -0.0082 -0.0392  0.2047
  106OSM   H16S10834   4.103   4.277   8.767  0.2639 -1.4812 -2.7914
  106OSM   H16T10835   4.162   4.372   8.627 -2.2485 -0.1766 -1.1937
  106OSM   C17S10836   3.972   4.420   8.677 -0.0069 -0.4395 -0.1359
  106OSM   H17S10837   3.968   4.523   8.636 -2.5648  0.9897  3.1722
  106OSM   H17T10838   3.905   4.422   8.766 -1.2448  1.2804 -1.0536
  106OSM   C18S10839   3.913   4.325   8.574  0.1959 -0.2763  0.5962
  106OSM   H18S10840   3.899   4.223   8.614 -3.4036 -1.6987 -3.4962
  106OSM   H18T10841   3.970   4.331   8.479 -0.8382 -1.4911 -0.1378
  106OSM   H18U10842   3.813   4.356   8.537  2.1748  1.6912 -3.7890
  106OSM    C1F10843   4.531   4.121  10.058 -0.1084 -0.1116  0.1572
  106OSM     OF10844   4.447   4.028  10.069  0.0359  0.3319  0.1535
  106OSM    C2F10845   4.673   4.096  10.004 -0.2105 -1.3303  0.7483
  106OSM    H2F10846   4.740   4.117  10.090  0.6422  0.8470 -0.3678
  106OSM    H2G10847   4.693   4.171   9.924 -0.3550 -2.6243 -0.5619
  106OSM    C3F10848   4.698   3.958   9.942 -0.1186  0.3664 -0.0256
  106OSM    H3F10849   4.621   3.921   9.871 -0.6240  1.2305  0.0569
  106OSM    H3G10850   4.690   3.888  10.027 -0.6416 -0.3852 -0.6815
  106OSM    C4F10851   4.841   3.945   9.882  0.0745 -0.0830 -0.0069
  106OSM    H4F10852   4.923   3.968   9.953  1.5896  0.9614 -1.9990
  106OSM    H4G10853   4.836   4.010   9.792  1.9643 -0.8964 -0.7534
  106OSM    C5F10854   4.864   3.807   9.838 -0.5067  0.8464  0.0817
  106OSM    H5F10855   4.787   3.785   9.762 -0.4362 -0.5865  0.4052
  106OSM    H5G10856   4.843   3.735   9.919 -1.2476 -1.3110 -1.9232
  106OSM    C6F10857   4.986   3.785   9.748  1.0515 -0.1185 -0.2094
  106OSM    H6F10858   5.075   3.812   9.808  2.7988 -2.7083 -1.4270
  106OSM    H6G10859   4.989   3.861   9.667  0.4507  0.3548  0.2091
  106OSM    C7F10860   4.997   3.642   9.694  0.0941 -0.3584  0.0909
  106OSM    H7F10861   4.905   3.618   9.636 -0.6215 -0.6920  1.3452
  106OSM    H7G10862   5.003   3.561   9.770 -0.5744 -0.4110  0.0944
  106OSM    C8F10863   5.107   3.629   9.588 -0.4004  1.0996  0.2053
  106OSM    H8F10864   5.207   3.626   9.636 -0.8255  1.2699  1.1273
  106OSM    H8G10865   5.106   3.711   9.513  0.2536  1.2843  0.3939
  106OSM    C9F10866   5.108   3.500   9.520 -0.1445  0.1110  0.5413
  106OSM    H9F10867   5.093   3.409   9.581  1.9750 -0.3466  0.4701
  106OSM   C10F10868   5.097   3.488   9.384  0.7025  0.1147 -0.4533
  106OSM   H10F10869   5.101   3.390   9.336 -0.9169 -0.2372  0.0644
  106OSM   C11F10870   5.085   3.600   9.285 -0.6536 -1.0228  1.0078
  106OSM   H11F10871   5.040   3.693   9.325 -2.5650 -0.7018 -1.6556
  106OSM   H11G10872   5.019   3.570   9.200  0.7588 -0.2232 -0.4165
  106OSM   C12F10873   5.219   3.630   9.220  0.7047  0.0889 -0.2687
  106OSM   H12F10874   5.261   3.529   9.196 -0.4967 -0.5934  0.3964
  106OSM   H12G10875   5.271   3.685   9.301 -3.9303  2.2834  1.6141
  106OSM   C13F10876   5.211   3.718   9.093 -0.9084  0.2441 -0.0126
  106OSM   H13F10877   5.179   3.817   9.133  2.2559  0.5686  2.0704
  106OSM   H13G10878   5.140   3.681   9.016 -2.0630  0.2826  0.9953
  106OSM   C14F10879   5.350   3.727   9.015  0.3918 -0.0707  0.2222
  106OSM   H14F10880   5.336   3.801   8.933  0.9308 -0.1289  0.0722
  106OSM   H14G10881   5.385   3.632   8.970 -1.1794 -0.0268 -1.2084
  106OSM   C15F10882   5.464   3.769   9.114  0.8055 -0.6046  0.3511
  106OSM   H15F10883   5.481   3.698   9.198 -0.8460  1.1830  2.3015
  106OSM   H15G10884   5.428   3.865   9.156 -4.0756 -1.4020 -1.2924
  106OSM   C16F10885   5.579   3.816   9.041 -0.1017 -0.0790 -0.0092
  106OSM   H16F10886   5.570   3.892   8.960 -2.4147  1.0843  1.2400
  106OSM   H16G10887   5.619   3.727   8.987  0.4439  0.4330 -0.4654
  106OSM   C17F10888   5.692   3.868   9.134 -0.1177 -0.3751  1.2179
  106OSM   H17F10889   5.781   3.889   9.071 -0.7578 -0.1987  0.3493
  106OSM   H17G10890   5.718   3.792   9.210  1.2423 -2.4206 -1.1366
  106OSM   C18F10891   5.650   4.002   9.203  0.3084  0.1187 -0.6906
  106OSM   H18F10892   5.604   4.082   9.142 -1.6172  0.3918  1.0192
  106OSM   H18G10893   5.736   4.055   9.250  0.6963 -2.3044  1.5995
  106OSM   H18H10894   5.582   3.980   9.288  2.9890  1.3017  1.9535
  107OSM      N10895   3.473   0.916  10.622  0.6850  0.4308 -0.6961
  107OSM    C1510896   3.583   0.950  10.531  0.0927  0.1943 -0.1635
  107OSM   H15A10897   3.676   0.918  10.576  2.3249  0.1522 -4.2988
  107OSM   H15B10898   3.586   1.054  10.501  2.1433 -0.3024 -1.9515
  107OSM   H15C10899   3.568   0.897  10.438 -4.5708 -0.3082  0.6343
  107OSM    C1410900   3.482   0.770  10.664  0.7289 -0.1723  0.5217
  107OSM   H14A10901   3.454   0.703  10.584  2.9730  2.0104 -2.3242
  107OSM   H14B10902   3.403   0.752  10.735 -0.9920  2.2525 -0.6210
  107OSM   H14C10903   3.578   0.741  10.703  0.9110 -0.0242  0.1962
  107OSM    C1310904   3.468   1.005  10.742 -0.3010  0.0971  0.1861
  107OSM   H13A10905   3.468   1.103  10.698 -0.4744  0.5721  1.2088
  107OSM   H13B10906   3.558   1.000  10.803 -1.5363 -0.0729  2.0721
  107OSM   H13C10907   3.379   1.005  10.803 -0.4985  2.4122 -0.0317
  107OSM    C1210908   3.344   0.928  10.541 -0.3245 -0.5027 -0.5537
  107OSM   H12A10909   3.353   0.861  10.457  1.2528  0.6067 -1.3054
  107OSM   H12B10910   3.351   1.026  10.496 -0.8728  0.4075  1.2473
  107OSM    C1110911   3.206   0.921  10.618  0.0050  0.7918  0.3272
  107OSM   H11A10912   3.187   0.826  10.673 -1.9131  1.0981  0.2850
  107OSM   H11B10913   3.128   0.930  10.539  2.2954 -0.4524 -2.2453
  107OSM      P10914   3.062   1.115  10.718  0.6909  0.0567 -0.3965
  107OSM    O1310915   2.951   1.022  10.753 -0.1297  0.4624  0.3891
  107OSM    O1410916   3.071   1.230  10.817 -0.4217  0.1591  0.7990
  107OSM    O1110917   3.043   1.176  10.568  0.2410  0.0534 -0.1244
  107OSM    O1210918   3.193   1.029  10.716 -0.0349  0.0665  0.1365
  107OSM    C1S10919   3.160   1.237  10.511  0.0020 -0.2366  0.5938
  107OSM    H1S10920   3.248   1.170  10.521  0.2127 -0.0079  0.2647
  107OSM    H1T10921   3.189   1.339  10.542  2.8813 -0.4754 -0.9776
  107OSM     NF10922   3.276   1.294  10.297 -0.1528 -0.4375  0.1111
  107OSM    HNF10923   3.289   1.389  10.271  0.1391 -0.0389  1.5800
  107OSM    C2S10924   3.145   1.252  10.354 -0.2920 -0.0456 -0.4052
  107OSM    H2S10925   3.126   1.149  10.315  2.6094 -0.5790 -0.6992
  107OSM    C3S10926   3.026   1.351  10.332 -0.4282 -0.1540 -0.2740
  107OSM    H3S10927   3.061   1.455  10.351 -0.1567 -0.4810  1.1276
  107OSM     O310928   2.907   1.334  10.416 -0.3437  0.3301  0.5187
  107OSM    HO310929   2.951   1.286  10.486  1.8941  2.1394  0.4877
  107OSM    C4S10930   2.988   1.352  10.186 -0.2386  0.3206  0.2937
  107OSM    H4S10931   3.021   1.435  10.121 -1.0575 -0.5519 -1.3216
  107OSM    C5S10932   2.918   1.252  10.123  0.0455 -0.4010  0.1281
  107OSM    H5S10933   2.899   1.153  10.168  1.5668 -0.4760  0.6537
  107OSM    C6S10934   2.874   1.249   9.984 -0.7023  0.0194  0.0814
  107OSM    H6S10935   2.764   1.234   9.983 -0.5532 -1.1795 -0.2356
  107OSM    H6T10936   2.914   1.160   9.930 -2.7354 -0.0998 -1.3322
  107OSM    C7S10937   2.904   1.365   9.891 -0.0372  0.3792  0.1143
  107OSM    H7S10938   3.012   1.391   9.887 -0.2918  1.5729  0.6099
  107OSM    H7T10939   2.856   1.453   9.938 -0.5164  0.0515  0.2457
  107OSM    C8S10940   2.856   1.323   9.748 -0.5189  0.0599 -0.5649
  107OSM    H8S10941   2.745   1.332   9.750 -0.3943  2.1247 -0.2939
  107OSM    H8T10942   2.874   1.217   9.723  0.0193 -0.2382  0.9849
  107OSM    C9S10943   2.922   1.415   9.646 -0.4213  0.3404  0.7429
  107OSM    H9S10944   3.028   1.380   9.643 -1.7789 -4.4422 -0.4256
  107OSM    H9T10945   2.917   1.518   9.687  2.0694 -0.2448  2.8178
  107OSM   C10S10946   2.850   1.402   9.506 -0.3308 -0.0548  0.4215
  107OSM   H10S10947   2.754   1.458   9.514  0.3987  1.1120  1.4994
  107OSM   H10T10948   2.839   1.293   9.487  0.5344 -0.1316  0.3136
  107OSM   C11S10949   2.933   1.462   9.384 -0.3936 -0.8503 -0.2216
  107OSM   H11S10950   3.039   1.429   9.384 -0.5778 -1.4758  0.7280
  107OSM   H11T10951   2.932   1.570   9.407  0.5142 -0.6703 -0.9722
  107OSM   C12S10952   2.879   1.408   9.244 -0.2523  0.1567  0.3819
  107OSM   H12S10953   2.769   1.414   9.260  0.1205  0.1544  3.5553
  107OSM   H12T10954   2.896   1.299   9.234 -3.1094 -0.2758 -0.9655
  107OSM   C13S10955   2.921   1.499   9.128 -0.1190  0.4378 -0.1289
  107OSM   H13S10956   3.031   1.503   9.114  0.0448  3.3810  1.3280
  107OSM   H13T10957   2.898   1.604   9.156  1.2811  0.4306  1.1564
  107OSM   C14S10958   2.858   1.439   8.995 -0.6414 -1.0480  0.9258
  107OSM   H14S10959   2.755   1.405   9.016 -1.5492 -0.7182 -2.4543
  107OSM   H14T10960   2.920   1.356   8.953  0.5844  0.5002 -0.4762
  107OSM   C15S10961   2.839   1.557   8.899 -1.3898  0.1579 -0.2759
  107OSM   H15S10962   2.942   1.598   8.891 -1.1357  0.0840  1.9260
  107OSM   H15T10963   2.777   1.645   8.928  0.0647  1.6150 -1.3984
  107OSM   C16S10964   2.762   1.518   8.775 -0.3176  0.7487 -0.2654
  107OSM   H16S10965   2.668   1.462   8.795 -0.2610  0.4135 -0.8927
  107OSM   H16T10966   2.826   1.447   8.719  1.2416  0.9125  1.2294
  107OSM   C17S10967   2.707   1.636   8.690 -0.6622 -0.3930  0.7455
  107OSM   H17S10968   2.709   1.614   8.581 -0.0890  1.1801  0.4054
  107OSM   H17T10969   2.773   1.725   8.702 -0.4675 -0.1893 -1.5027
  107OSM   C18S10970   2.566   1.678   8.719  0.2280  0.2552  0.4203
  107OSM   H18S10971   2.552   1.773   8.664  0.3037  0.1817  0.2759
  107OSM   H18T10972   2.556   1.699   8.828 -1.2923 -2.4869  0.8876
  107OSM   H18U10973   2.486   1.607   8.692 -0.4571  0.4373  1.8383
  107OSM    C1F10974   3.380   1.207  10.281  0.3893  0.4642  0.1344
  107OSM     OF10975   3.368   1.089  10.313  0.4127  0.2824  0.8407
  107OSM    C2F10976   3.517   1.253  10.236  0.5010 -0.0269  0.6500
  107OSM    H2F10977   3.593   1.181  10.274  1.1784  0.2703 -0.1154
  107OSM    H2G10978   3.530   1.358  10.271  1.1177 -0.4875  1.8528
  107OSM    C3F10979   3.523   1.281  10.079  1.3375 -1.0250 -1.2401
  107OSM    H3F10980   3.623   1.326  10.064  0.4475  1.6997  0.4097
  107OSM    H3G10981   3.446   1.352  10.042  2.2646 -0.0280 -1.2924
  107OSM    C4F10982   3.517   1.154   9.997 -0.2747 -0.3755 -0.3577
  107OSM    H4F10983   3.426   1.098  10.029 -0.3289  0.1237  0.3904
  107OSM    H4G10984   3.604   1.088  10.017  0.9860  1.5252  0.7512
  107OSM    C5F10985   3.512   1.184   9.855  0.8622 -0.1386 -0.5003
  107OSM    H5F10986   3.610   1.207   9.807  0.2376  0.8900 -1.2972
  107OSM    H5G10987   3.442   1.268   9.839  0.5557  0.0916  1.7060
  107OSM    C6F10988   3.456   1.081   9.757 -0.3658 -0.1147  0.5020
  107OSM    H6F10989   3.362   1.041   9.799  0.3197 -0.1525  2.0694
  107OSM    H6G10990   3.528   0.997   9.745 -2.4634 -1.6765 -2.2377
  107OSM    C7F10991   3.431   1.134   9.616  0.1441 -0.9224 -0.1563
  107OSM    H7F10992   3.526   1.184   9.587 -0.2031 -1.3396 -2.1125
  107OSM    H7G10993   3.346   1.205   9.608  0.9192 -0.0767 -1.2228
  107OSM    C8F10994   3.419   1.027   9.516 -0.2923  0.4039  0.2290
  107OSM    H8F10995   3.341   0.956   9.551 -0.0949  0.7585  1.4396
  107OSM    H8G10996   3.507   0.961   9.530 -1.2232 -1.3872 -1.8692
  107OSM    C9F10997   3.391   1.082   9.375 -0.0783 -0.0654 -1.3583
  107OSM    H9F10998   3.311   1.156   9.366 -0.3042 -0.1152 -0.0303
  107OSM   C10F10999   3.457   1.046   9.261  0.1661 -0.0287  0.1352
  107OSM   H10F11000   3.420   1.081   9.164 -2.3310  0.4108  1.1491
  107OSM   C11F11001   3.562   0.946   9.243  0.1559  0.1306 -0.4544
  107OSM   H11F11002   3.613   0.939   9.341 -1.9507  2.4423  0.9197
  107OSM   H11G11003   3.633   0.976   9.163  0.3363  0.6596 -0.1003
  107OSM   C12F11004   3.508   0.801   9.223 -1.1951 -0.2665  0.5649
  107OSM   H12F11005   3.418   0.784   9.287 -2.3042  0.4140 -0.7527
  107OSM   H12G11006   3.585   0.729   9.258 -0.4488 -0.5525 -1.5008
  107OSM   C13F11007   3.476   0.761   9.075 -0.0354 -0.2217  0.0356
  107OSM   H13F11008   3.568   0.771   9.014 -0.2545  0.0155 -0.2638
  107OSM   H13G11009   3.397   0.830   9.038  1.2612  1.4357  0.2382
  107OSM   C14F11010   3.436   0.613   9.068  0.3423  0.3445 -0.0394
  107OSM   H14F11011   3.350   0.581   9.129 -0.0167 -2.5752 -1.8776
  107OSM   H14G11012   3.527   0.558   9.101  0.1476 -0.8738 -1.4003
  107OSM   C15F11013   3.413   0.589   8.926  0.8521 -0.2427  0.9213
  107OSM   H15F11014   3.490   0.638   8.862  1.4135 -2.0822  0.1029
  107OSM   H15G11015   3.318   0.641   8.900  2.0373  0.8687 -1.5507
  107OSM   C16F11016   3.406   0.435   8.880  0.1150  0.0773 -0.1927
  107OSM   H16F11017   3.323   0.401   8.946 -1.6710  1.3159 -1.6725
  107OSM   H16G11018   3.487   0.367   8.915  0.5172  0.4291 -0.4343
  107OSM   C17F11019   3.344   0.399   8.742 -0.3618 -0.5065 -0.4306
  107OSM   H17F11020   3.410   0.438   8.663 -0.6626  1.2029  0.1277
  107OSM   H17G11021   3.247   0.453   8.741 -1.1500 -1.8668 -0.7378
  107OSM   C18F11022   3.302   0.252   8.736 -0.3302 -0.0965  0.4710
  107OSM   H18F11023   3.245   0.238   8.830 -0.0619  0.9568  0.7996
  107OSM   H18G11024   3.386   0.180   8.726  0.2412  0.6623 -0.3597
  107OSM   H18H11025   3.239   0.234   8.647  2.4688 -2.5298 -1.1940
  108OSM      N11026   5.301   1.902  11.028  0.0349 -0.5499  0.0740
  108OSM    C1511027   5.398   1.786  11.057 -0.4580 -0.1284  0.3164
  108OSM   H15A11028   5.386   1.749  11.158 -0.3052  1.5637  0.9874
  108OSM   H15B11029   5.501   1.819  11.054 -0.9937  1.7534  1.0097
  108OSM   H15C11030   5.394   1.711  10.979 -2.5905  2.2599 -2.1193
  108OSM    C1411031   5.164   1.855  11.048  1.5343  0.4544  0.3043
  108OSM   H14A11032   5.089   1.926  11.015  0.2141 -1.2573 -0.6188
  108OSM   H14B11033   5.151   1.822  11.150 -1.1542 -0.4792 -0.2619
  108OSM   H14C11034   5.137   1.776  10.978 -0.7130  2.9264 -1.8746
  108OSM    C1311035   5.319   2.014  11.129  0.2212 -0.0926 -0.0500
  108OSM   H13A11036   5.303   1.978  11.230  1.0044 -0.8968 -0.2089
  108OSM   H13B11037   5.242   2.090  11.130  1.4156  1.1522  0.3740
  108OSM   H13C11038   5.415   2.062  11.130 -0.4051  1.2308  2.1376
  108OSM    C1211039   5.323   1.964  10.890  0.1942 -0.4206 -0.5285
  108OSM   H12A11040   5.401   2.039  10.894  2.5790 -2.7296  2.7048
  108OSM   H12B11041   5.233   2.016  10.861  1.0742  1.3693 -0.1962
  108OSM    C1111042   5.349   1.865  10.777 -0.6752 -0.3354 -0.2703
  108OSM   H11A11043   5.445   1.809  10.789 -0.3596  0.7105  2.9367
  108OSM   H11B11044   5.371   1.921  10.683  0.8381 -0.3277  0.0569
  108OSM      P11045   5.124   1.801  10.663  0.1777 -0.0287 -0.3167
  108OSM    O1311046   5.033   1.689  10.659  0.3719  0.0780 -0.9005
  108OSM    O1411047   5.064   1.938  10.689  0.0409 -0.1299  0.2640
  108OSM    O1111048   5.207   1.810  10.526 -0.2911  1.0676  0.1227
  108OSM    O1211049   5.246   1.765  10.758  0.0950 -0.0367  0.0303
  108OSM    C1S11050   5.275   1.691  10.474  0.2334  0.9601  0.0775
  108OSM    H1S11051   5.197   1.615  10.453  2.2422 -0.6155 -2.1509
  108OSM    H1T11052   5.334   1.638  10.552 -1.1124 -0.2377  0.3371
  108OSM     NF11053   5.410   1.586  10.292  0.0687 -0.4269 -0.2839
  108OSM    HNF11054   5.492   1.540  10.324  1.8606  3.2677  1.0550
  108OSM    C2S11055   5.371   1.712  10.352  0.6678 -0.0341  0.5843
  108OSM    H2S11056   5.310   1.759  10.272  0.7808  0.2568  0.6676
  108OSM    C3S11057   5.480   1.811  10.393 -0.1812  0.3602  0.3936
  108OSM    H3S11058   5.546   1.757  10.464  0.7472 -0.2823 -0.9150
  108OSM     O311059   5.439   1.934  10.455  0.2028 -0.4228 -0.1338
  108OSM    HO311060   5.350   1.911  10.482  0.3296 -1.2725 -0.4319
  108OSM    C4S11061   5.565   1.836  10.275  0.0239 -0.3784  0.3963
  108OSM    H4S11062   5.506   1.869  10.189  0.3317  0.1851  0.3944
  108OSM    C5S11063   5.699   1.836  10.259  0.2997 -0.2094  1.1221
  108OSM    H5S11064   5.768   1.809  10.340  1.4543  0.7296  0.4798
  108OSM    C6S11065   5.777   1.882  10.136  0.3910  0.0091  0.0029
  108OSM    H6S11066   5.864   1.948  10.157  2.0399 -2.2529  0.6771
  108OSM    H6T11067   5.701   1.925  10.067  0.9342  0.2566 -0.4442
  108OSM    C7S11068   5.837   1.759  10.066 -0.5693 -0.1574 -0.3615
  108OSM    H7S11069   5.762   1.678  10.073 -0.3844 -0.2963  0.0444
  108OSM    H7T11070   5.921   1.726  10.131  0.1171  1.4910 -0.3417
  108OSM    C8S11071   5.880   1.777   9.918  0.0637  0.1608 -0.1029
  108OSM    H8S11072   5.968   1.845   9.927 -0.4137  1.0175 -1.5852
  108OSM    H8T11073   5.800   1.843   9.878 -0.2458  0.4344  0.9303
  108OSM    C9S11074   5.907   1.663   9.832  0.0517 -0.1943 -0.4962
  108OSM    H9S11075   5.823   1.591   9.828  0.6517 -0.8963 -0.8689
  108OSM    H9T11076   6.000   1.607   9.854  0.6383 -0.5320 -3.3507
  108OSM   C10S11077   5.925   1.709   9.682  0.5284 -0.6191  0.0570
  108OSM   H10S11078   5.995   1.794   9.676 -0.2937  0.1998  1.4436
  108OSM   H10T11079   5.832   1.760   9.648  0.7097 -0.0574  0.3836
  108OSM   C11S11080   5.967   1.600   9.582  0.2693  0.3628 -0.0235
  108OSM   H11S11081   5.888   1.523   9.588  0.1884  0.4808  0.5055
  108OSM   H11T11082   6.060   1.554   9.622 -1.5230 -1.6161  2.1196
  108OSM   C12S11083   5.987   1.667   9.441 -0.4107  0.2669 -0.2002
  108OSM   H12S11084   6.041   1.764   9.450  1.4690 -0.4803 -2.4890
  108OSM   H12T11085   5.883   1.688   9.407 -1.2365 -1.9983  0.7307
  108OSM   C13S11086   6.055   1.566   9.352 -0.1880 -0.0055 -0.6899
  108OSM   H13S11087   5.997   1.471   9.351  2.5915 -1.8248 -0.3718
  108OSM   H13T11088   6.150   1.529   9.397 -0.2893  1.6209  0.9438
  108OSM   C14S11089   6.068   1.618   9.206 -0.2519 -0.0008  0.4281
  108OSM   H14S11090   5.970   1.659   9.173 -0.6101  0.5576  2.0840
  108OSM   H14T11091   6.084   1.534   9.135  0.7045  1.9250 -1.7820
  108OSM   C15S11092   6.171   1.729   9.174 -0.0523  0.7257 -0.3686
  108OSM   H15S11093   6.274   1.687   9.177 -0.9484 -1.8098 -2.2715
  108OSM   H15T11094   6.171   1.801   9.259  0.4697 -2.1994  2.2661
  108OSM   C16S11095   6.149   1.805   9.038 -0.0085  0.9662 -0.3195
  108OSM   H16S11096   6.238   1.868   9.022 -0.0696  1.1875  0.1958
  108OSM   H16T11097   6.054   1.856   9.065 -2.1833 -2.1030 -1.4407
  108OSM   C17S11098   6.116   1.703   8.925  0.0722 -0.1357  0.5787
  108OSM   H17S11099   6.020   1.656   8.956  0.2113  0.5898  2.2194
  108OSM   H17T11100   6.197   1.632   8.896 -0.6926  0.5266 -3.8329
  108OSM   C18S11101   6.094   1.787   8.801 -0.2406 -0.0614  0.0026
  108OSM   H18S11102   6.023   1.757   8.721  1.2271 -0.7599 -1.0949
  108OSM   H18T11103   6.187   1.792   8.741  0.2004  1.3836  0.7455
  108OSM   H18U11104   6.061   1.889   8.833 -1.0560 -0.1640 -0.5028
  108OSM    C1F11105   5.331   1.523  10.206 -0.1499 -0.0881 -0.4582
  108OSM     OF11106   5.226   1.569  10.171 -0.4012  0.0674  0.2826
  108OSM    C2F11107   5.387   1.399  10.144 -0.3226 -0.8141  0.1130
  108OSM    H2F11108   5.315   1.374  10.062 -2.8431 -1.4832  2.3623
  108OSM    H2G11109   5.367   1.311  10.210 -1.4870  0.3923  1.4393
  108OSM    C3F11110   5.528   1.419  10.084 -0.3812 -0.6332 -0.4577
  108OSM    H3F11111   5.571   1.318  10.066 -1.9798 -1.3310 -0.4984
  108OSM    H3G11112   5.600   1.468  10.153 -0.4003 -2.4497  0.9195
  108OSM    C4F11113   5.545   1.488   9.946  0.4476 -0.1303  0.6013
  108OSM    H4F11114   5.635   1.553   9.935  1.8336 -2.0900 -0.2596
  108OSM    H4G11115   5.463   1.560   9.928  1.2103  1.0692  1.7668
  108OSM    C5F11116   5.560   1.391   9.825 -0.0282  0.8075 -0.1101
  108OSM    H5F11117   5.470   1.326   9.817  0.3736  0.2167  0.0903
  108OSM    H5G11118   5.648   1.324   9.840 -2.4379 -2.0034  3.1213
  108OSM    C6F11119   5.577   1.452   9.685  0.1482  0.5833 -0.3268
  108OSM    H6F11120   5.656   1.531   9.690  2.0924 -1.1680 -1.4890
  108OSM    H6G11121   5.476   1.491   9.665 -0.5732 -0.5385  0.9623
  108OSM    C7F11122   5.635   1.344   9.586 -0.3948 -0.1221  0.6611
  108OSM    H7F11123   5.549   1.275   9.599 -2.5191  2.4877  1.4724
  108OSM    H7G11124   5.733   1.301   9.617  0.0788 -1.2221 -2.0559
  108OSM    C8F11125   5.671   1.388   9.440 -0.4502 -0.4845 -0.2746
  108OSM    H8F11126   5.697   1.297   9.381 -0.8661  0.0039 -1.2450
  108OSM    H8G11127   5.765   1.446   9.445 -1.2077  1.0547 -2.4657
  108OSM    C9F11128   5.562   1.472   9.374  0.4696  0.0991 -0.7432
  108OSM    H9F11129   5.471   1.490   9.432 -0.2335 -1.6077 -1.2662
  108OSM   C10F11130   5.559   1.504   9.246  0.0164 -0.7026 -0.2240
  108OSM   H10F11131   5.476   1.563   9.204 -0.1062  0.1957  1.2052
  108OSM   C11F11132   5.669   1.482   9.145 -1.1494  0.1538  0.4831
  108OSM   H11F11133   5.762   1.449   9.197 -0.5730  0.7623 -0.1304
  108OSM   H11G11134   5.714   1.571   9.095  0.3647 -0.6227  0.3931
  108OSM   C12F11135   5.635   1.366   9.049  0.0138  0.1560 -0.4315
  108OSM   H12F11136   5.596   1.284   9.113 -0.1483 -1.2454 -2.2442
  108OSM   H12G11137   5.721   1.326   8.991 -0.4690 -0.0647 -1.0003
  108OSM   C13F11138   5.513   1.399   8.957  0.0335  0.7501 -0.1644
  108OSM   H13F11139   5.544   1.487   8.898 -0.2163  0.1581 -1.1912
  108OSM   H13G11140   5.421   1.419   9.016 -1.6920 -0.4106 -2.3032
  108OSM   C14F11141   5.492   1.278   8.860  0.4597 -0.5729 -0.0597
  108OSM   H14F11142   5.471   1.186   8.919 -1.1311  0.0583  0.4003
  108OSM   H14G11143   5.588   1.253   8.810  0.7360  0.2455  0.0454
  108OSM   C15F11144   5.394   1.304   8.739  0.5991  0.9304 -0.3999
  108OSM   H15F11145   5.403   1.407   8.697 -1.3912  0.3467 -2.4856
  108OSM   H15G11146   5.295   1.278   8.780  1.4508 -1.1422  0.4964
  108OSM   C16F11147   5.409   1.198   8.627 -0.3310  0.7176 -0.3364
  108OSM   H16F11148   5.386   1.091   8.649  1.8928  0.0327 -1.0504
  108OSM   H16G11149   5.513   1.198   8.588 -0.6343  0.7161 -1.1765
  108OSM   C17F11150   5.327   1.233   8.502 -0.2530 -0.2764  0.2890
  108OSM   H17F11151   5.218   1.219   8.519 -0.4186 -1.9187 -1.7280
  108OSM   H17G11152   5.352   1.153   8.429 -0.7360 -1.6091  1.5276
  108OSM   C18F11153   5.365   1.368   8.440 -0.1348 -0.2054 -0.1982
  108OSM   H18F11154   5.340   1.449   8.511 -1.9865 -0.8245 -0.0918
  108OSM   H18G11155   5.315   1.388   8.343  3.5258  0.4337 -2.1721
  108OSM   H18H11156   5.474   1.367   8.416 -0.1673 -1.3184 -0.3743
  109OSM      N11157   4.556   1.990  10.992  0.1925 -0.1196 -0.4997
  109OSM    C1511158   4.600   1.969  11.135 -0.2490  0.9448  0.3103
  109OSM   H15A11159   4.659   1.879  11.149 -0.8081  0.5612  0.2126
  109OSM   H15B11160   4.510   1.959  11.193  0.0521 -2.3258  0.4458
  109OSM   H15C11161   4.657   2.052  11.175 -0.6868  0.4885  1.9595
  109OSM    C1411162   4.687   2.009  10.912 -0.7451  0.0184 -0.1374
  109OSM   H14A11163   4.649   2.016  10.812 -1.4865 -1.9770 -0.0408
  109OSM   H14B11164   4.751   1.922  10.923 -1.2391 -0.1258  2.0094
  109OSM   H14C11165   4.736   2.101  10.940 -0.5176  0.1885 -1.0793
  109OSM    C1311166   4.482   1.868  10.955  0.8186  0.5410  0.2865
  109OSM   H13A11167   4.535   1.776  10.976  0.4439  0.0626 -0.7927
  109OSM   H13B11168   4.460   1.862  10.849  0.4831  2.2828  0.2259
  109OSM   H13C11169   4.386   1.861  11.003 -0.1663  2.6437 -1.2133
  109OSM    C1211170   4.472   2.108  10.983  0.6509  0.1938  0.4850
  109OSM   H12A11171   4.529   2.194  11.016  1.1047  1.2665 -2.7805
  109OSM   H12B11172   4.390   2.096  11.052  0.3306 -1.6232 -0.1671
  109OSM    C1111173   4.432   2.148  10.848 -0.2659 -0.5642 -0.4374
  109OSM   H11A11174   4.357   2.075  10.813 -0.9463  0.6775 -1.7035
  109OSM   H11B11175   4.505   2.148  10.765  0.6038  1.1408  0.2675
  109OSM      P11176   4.235   2.300  10.905 -0.1691 -0.0727  0.2691
  109OSM    O1311177   4.194   2.176  10.977  0.3393 -0.0008  0.4366
  109OSM    O1411178   4.227   2.428  10.975 -0.3839 -0.3146  0.1124
  109OSM    O1111179   4.139   2.302  10.778 -0.3830 -0.0835 -0.9002
  109OSM    O1211180   4.383   2.278  10.856  0.1071 -0.7645 -0.2173
  109OSM    C1S11181   4.167   2.214  10.664  0.0801 -0.1770  0.9865
  109OSM    H1S11182   4.137   2.111  10.695  0.9159 -0.3384  1.2971
  109OSM    H1T11183   4.276   2.216  10.642 -0.3703  3.2041 -1.6706
  109OSM     NF11184   4.092   2.149  10.436 -0.3292 -0.8957  0.0380
  109OSM    HNF11185   4.179   2.157  10.388  0.0866 -0.8783  0.7685
  109OSM    C2S11186   4.074   2.253  10.541 -0.3855 -0.0288 -0.5913
  109OSM    H2S11187   3.965   2.250  10.562 -0.7879 -3.5518 -2.3447
  109OSM    C3S11188   4.114   2.394  10.504  0.1247  0.9164  0.2532
  109OSM    H3S11189   4.224   2.397  10.485  0.0842  1.1153  0.0466
  109OSM     O311190   4.085   2.497  10.597  0.2476 -0.3448  0.1137
  109OSM    HO311191   4.077   2.441  10.675 -1.2351  0.9797  0.9708
  109OSM    C4S11192   4.048   2.424  10.377  0.3034 -0.2014  0.0692
  109OSM    H4S11193   3.943   2.397  10.365  0.2174 -0.1942  0.8161
  109OSM    C5S11194   4.117   2.471  10.270  0.8527  0.5469  0.5944
  109OSM    H5S11195   4.213   2.524  10.276  0.2585  1.9033 -1.0486
  109OSM    C6S11196   4.043   2.512  10.145 -0.2038  0.3947  0.6434
  109OSM    H6S11197   4.037   2.623  10.147 -0.5282  0.3721  1.0224
  109OSM    H6T11198   3.937   2.477  10.146  0.6040 -2.3006 -0.1883
  109OSM    C7S11199   4.112   2.474  10.009 -0.6942 -0.4682 -0.0310
  109OSM    H7S11200   4.124   2.364  10.012 -0.6336 -0.4392  1.6474
  109OSM    H7T11201   4.213   2.521  10.006 -1.4887  1.4449  1.2489
  109OSM    C8S11202   4.031   2.514   9.883  0.2275  0.5677  0.3270
  109OSM    H8S11203   4.019   2.624   9.879 -1.0571  0.4111 -1.3507
  109OSM    H8T11204   3.931   2.465   9.887  0.5190 -0.0944 -0.2676
  109OSM    C9S11205   4.091   2.466   9.755 -0.2921 -0.2570 -0.2063
  109OSM    H9S11206   4.093   2.355   9.755  1.0937 -0.3574 -4.0013
  109OSM    H9T11207   4.193   2.502   9.729 -0.9081 -0.4972 -3.1922
  109OSM   C10S11208   4.006   2.503   9.638  1.3512  0.1787  0.3960
  109OSM   H10S11209   4.001   2.611   9.614  0.0345 -0.0173 -0.2969
  109OSM   H10T11210   3.901   2.471   9.658  0.6139  2.0418 -0.2337
  109OSM   C11S11211   4.056   2.434   9.513  0.0728 -0.7905 -0.4469
  109OSM   H11S11212   4.059   2.323   9.521  1.0130 -0.7642 -0.3283
  109OSM   H11T11213   4.160   2.456   9.480  0.8033 -3.5176 -0.2082
  109OSM   C12S11214   3.971   2.476   9.392 -0.1397  0.9120  0.3684
  109OSM   H12S11215   4.001   2.578   9.361 -0.9917  0.5992 -1.6082
  109OSM   H12T11216   3.864   2.477   9.423 -0.1012  0.5808  0.5219
  109OSM   C13S11217   3.993   2.377   9.273 -0.1851  0.3973 -0.4024
  109OSM   H13S11218   3.937   2.283   9.294  3.2592 -2.0948 -1.4082
  109OSM   H13T11219   4.102   2.356   9.268 -0.0766  1.0279 -0.7754
  109OSM   C14S11220   3.950   2.427   9.135  0.2354 -0.0680  0.4203
  109OSM   H14S11221   4.001   2.523   9.111  0.7220 -0.4931 -0.2739
  109OSM   H14T11222   3.840   2.437   9.140  0.0875 -1.8757  1.9796
  109OSM   C15S11223   3.995   2.328   9.026 -0.0350  0.1741 -0.1249
  109OSM   H15S11224   3.950   2.230   9.051 -2.6199  1.4867  0.7838
  109OSM   H15T11225   4.104   2.308   9.040 -0.0894 -0.2927 -0.3698
  109OSM   C16S11226   3.972   2.374   8.884 -0.1958  0.6834 -0.4861
  109OSM   H16S11227   4.025   2.309   8.811  1.0342  0.7087  0.3513
  109OSM   H16T11228   4.028   2.468   8.861  0.2819  0.3402 -0.7483
  109OSM   C17S11229   3.825   2.398   8.853  0.3384 -0.5589 -0.7872
  109OSM   H17S11230   3.799   2.410   8.746 -2.1240  0.4685 -0.1686
  109OSM   H17T11231   3.789   2.495   8.895  1.9479  0.0339 -0.7218
  109OSM   C18S11232   3.730   2.303   8.923  0.1798 -0.1645  0.2354
  109OSM   H18S11233   3.735   2.203   8.874  1.4961 -0.9087  1.7905
  109OSM   H18T11234   3.629   2.346   8.908  0.6330  0.7191 -0.3711
  109OSM   H18U11235   3.753   2.293   9.031  0.7871  0.0544  0.1352
  109OSM    C1F11236   4.016   2.042  10.441 -0.2206 -0.2880 -0.2732
  109OSM     OF11237   3.934   2.025  10.537 -0.1346 -0.0891 -0.6720
  109OSM    C2F11238   4.036   1.952  10.326 -0.2610  0.7824  0.4672
  109OSM    H2F11239   3.961   1.871  10.315  0.2702  0.3322  0.1168
  109OSM    H2G11240   4.135   1.905  10.346 -0.2738  0.3787 -0.3695
  109OSM    C3F11241   4.057   2.016  10.180  0.0036  0.7502 -0.2397
  109OSM    H3F11242   4.144   2.085  10.184 -0.4664  1.2930  1.9614
  109OSM    H3G11243   3.964   2.068  10.149 -0.2878  0.0164 -0.6232
  109OSM    C4F11244   4.079   1.905  10.079 -0.9259  0.3550 -0.6301
  109OSM    H4F11245   3.986   1.844  10.072 -0.5875 -0.2425 -0.0187
  109OSM    H4G11246   4.152   1.827  10.110  0.1477  0.8137 -1.9472
  109OSM    C5F11247   4.114   1.962   9.939  0.6955 -0.5848 -0.2181
  109OSM    H5F11248   4.210   2.017   9.949 -0.4388  1.7913 -1.4506
  109OSM    H5G11249   4.040   2.035   9.900  1.2227  0.2749  0.3497
  109OSM    C6F11250   4.127   1.855   9.831 -0.5881 -0.7448 -0.0296
  109OSM    H6F11251   4.039   1.789   9.814  1.5750 -3.3902 -1.9954
  109OSM    H6G11252   4.207   1.783   9.861 -0.0287 -0.2049 -0.2135
  109OSM    C7F11253   4.179   1.923   9.701 -0.4007  0.4912  0.2257
  109OSM    H7F11254   4.284   1.957   9.716 -0.0567 -0.5854  0.3277
  109OSM    H7G11255   4.119   2.011   9.672  0.8677  0.6869 -2.0555
  109OSM    C8F11256   4.171   1.829   9.577 -0.0150 -0.0836 -0.3894
  109OSM    H8F11257   4.072   1.779   9.580  1.3176 -2.9412 -0.4798
  109OSM    H8G11258   4.251   1.752   9.588  0.4972  0.6828  1.8310
  109OSM    C9F11259   4.227   1.911   9.461  0.8527 -0.1721  0.0710
  109OSM    H9F11260   4.336   1.928   9.465  0.7372  0.9425 -1.0848
  109OSM   C10F11261   4.169   1.945   9.348 -0.9214  0.3698 -0.3407
  109OSM   H10F11262   4.234   1.991   9.272  1.3435 -2.0535  0.0143
  109OSM   C11F11263   4.031   1.903   9.296 -0.4928 -0.7222  0.0952
  109OSM   H11F11264   3.994   1.996   9.247  0.3258  0.1457  1.0665
  109OSM   H11G11265   3.960   1.877   9.377  0.1150  0.3786  1.0134
  109OSM   C12F11266   4.049   1.773   9.218  0.0659 -0.1880  0.5959
  109OSM   H12F11267   3.942   1.750   9.198 -0.5926  1.3064  2.1141
  109OSM   H12G11268   4.079   1.699   9.296 -1.1812 -1.1698  0.1701
  109OSM   C13F11269   4.138   1.790   9.089  0.0096 -0.2557 -0.8652
  109OSM   H13F11270   4.246   1.777   9.114 -0.4190 -1.5094  0.4245
  109OSM   H13G11271   4.109   1.890   9.048  1.1981  0.4769  0.0015
  109OSM   C14F11272   4.114   1.679   8.986 -0.2566 -0.0770  0.1873
  109OSM   H14F11273   4.043   1.725   8.915  1.6370  3.8907  0.6164
  109OSM   H14G11274   4.064   1.593   9.037  0.3126 -0.7982 -0.4531
  109OSM   C15F11275   4.246   1.638   8.911  0.7681 -0.1306  0.0560
  109OSM   H15F11276   4.323   1.601   8.982  0.5272 -0.6472  0.0548
  109OSM   H15G11277   4.288   1.723   8.854  1.1038 -0.9080 -0.8856
  109OSM   C16F11278   4.224   1.523   8.811  0.4689 -1.1632  0.0721
  109OSM   H16F11279   4.309   1.515   8.740 -1.1900 -1.2949 -1.9895
  109OSM   H16G11280   4.132   1.542   8.752 -0.5551 -1.2431  1.5855
  109OSM   C17F11281   4.182   1.385   8.867 -0.4281 -0.6532 -0.0347
  109OSM   H17F11282   4.097   1.400   8.936 -0.0368  1.7826 -0.0108
  109OSM   H17G11283   4.265   1.329   8.916 -1.0655 -1.2322  0.4100
  109OSM   C18F11284   4.125   1.299   8.760 -0.3602  0.1637  0.2630
  109OSM   H18F11285   4.211   1.267   8.696  1.0774 -0.5442  2.4526
  109OSM   H18G11286   4.055   1.358   8.697 -0.0302  1.2718  0.9003
  109OSM   H18H11287   4.077   1.205   8.793 -1.9945  0.9948  0.3810
  110OSM      N11288   2.010   1.459  10.937 -0.2049  0.6497 -0.3288
  110OSM    C1511289   2.120   1.560  10.967  1.4296 -0.0323 -0.2624
  110OSM   H15A11290   2.222   1.525  10.970  1.6629  0.6954  1.6219
  110OSM   H15B11291   2.098   1.601  11.064 -0.0424 -1.4640  0.0642
  110OSM   H15C11292   2.115   1.637  10.892 -0.9727 -1.8630 -2.1695
  110OSM    C1411293   1.999   1.360  11.053 -0.1951  0.6912  0.0146
  110OSM   H14A11294   1.966   1.409  11.143  1.1255  0.0382  0.8844
  110OSM   H14B11295   2.092   1.318  11.089 -2.1237 -0.9035  3.7311
  110OSM   H14C11296   1.951   1.273  11.010  3.8160 -0.6029 -2.3601
  110OSM    C1311297   1.874   1.522  10.938 -0.6034 -0.0490  0.3719
  110OSM   H13A11298   1.858   1.602  11.009 -1.9529 -0.9174  1.0918
  110OSM   H13B11299   1.790   1.453  10.933  0.3417 -1.2460  0.5319
  110OSM   H13C11300   1.875   1.572  10.843  0.4255 -1.7702 -0.5674
  110OSM    C1211301   2.045   1.388  10.815 -0.1809 -1.1171 -0.0242
  110OSM   H12A11302   2.147   1.360  10.794 -0.2948 -1.8642  0.3913
  110OSM   H12B11303   2.032   1.461  10.736  0.9937 -1.7315 -0.8132
  110OSM    C1111304   1.970   1.265  10.772 -0.3216 -0.1256 -0.7075
  110OSM   H11A11305   1.993   1.238  10.667 -0.7056 -1.5501 -0.4535
  110OSM   H11B11306   1.859   1.277  10.769 -0.1984  1.0159 -3.3938
  110OSM      P11307   2.135   1.065  10.851  0.0417  0.1787  0.1706
  110OSM    O1311308   2.244   1.116  10.934 -0.2149  0.3609  0.0200
  110OSM    O1411309   2.090   0.924  10.868 -0.8612  0.2415  0.2319
  110OSM    O1111310   2.177   1.087  10.697 -0.6442 -0.2018 -0.0431
  110OSM    O1211311   2.001   1.158  10.860  0.3944 -0.3825 -0.1103
  110OSM    C1S11312   2.157   0.996  10.595 -0.1887  0.4404 -0.1614
  110OSM    H1S11313   2.054   0.956  10.611  0.3461 -0.5794  0.8085
  110OSM    H1T11314   2.228   0.911  10.588 -1.1738 -0.2975 -1.7073
  110OSM     NF11315   2.101   0.981  10.357  0.3298  0.1372  0.0283
  110OSM    HNF11316   2.159   0.904  10.331 -0.1160 -0.0422 -0.4677
  110OSM    C2S11317   2.168   1.066  10.456  0.1151 -0.0884  0.0398
  110OSM    H2S11318   2.119   1.166  10.451 -1.8488 -0.8807  1.7177
  110OSM    C3S11319   2.318   1.092  10.427 -0.8626  0.1694 -0.1143
  110OSM    H3S11320   2.375   1.001  10.454  0.5555  1.0464 -0.1005
  110OSM     O311321   2.384   1.193  10.498 -0.8537 -0.5925  0.5642
  110OSM    HO311322   2.347   1.187  10.587  0.6598 -1.3485  1.1819
  110OSM    C4S11323   2.340   1.119  10.281  0.2362 -0.6224  0.5694
  110OSM    H4S11324   2.283   1.202  10.238  0.2867  0.8242  3.1108
  110OSM    C5S11325   2.425   1.046  10.204  0.1362  0.1010  1.2010
  110OSM    H5S11326   2.471   0.960  10.254 -1.1467  0.5543  3.2674
  110OSM    C6S11327   2.461   1.075  10.062  0.0058 -0.8133  0.1663
  110OSM    H6S11328   2.561   1.124  10.051  0.0509 -1.1708 -1.1131
  110OSM    H6T11329   2.380   1.134  10.014  2.1429  1.7343 -0.6112
  110OSM    C7S11330   2.445   0.950   9.980  0.5230  0.6386  0.2639
  110OSM    H7S11331   2.341   0.911   9.982 -0.3112  2.5311 -1.7478
  110OSM    H7T11332   2.513   0.868  10.013 -2.2344 -1.8301  0.2083
  110OSM    C8S11333   2.470   0.979   9.830 -0.5105  0.2265  0.4233
  110OSM    H8S11334   2.437   1.083   9.810  0.5378  1.5044  4.3575
  110OSM    H8T11335   2.424   0.900   9.768  1.3071 -0.7317  0.2434
  110OSM    C9S11336   2.618   0.973   9.796  0.0557 -0.5010 -0.1458
  110OSM    H9S11337   2.660   0.872   9.813 -1.1568 -1.0867 -0.4987
  110OSM    H9T11338   2.672   1.043   9.863  1.9176 -2.8992  1.0184
  110OSM   C10S11339   2.652   0.999   9.648  0.5630 -0.1103 -0.1122
  110OSM   H10S11340   2.759   1.025   9.633  1.2089 -1.6435  1.5055
  110OSM   H10T11341   2.599   1.095   9.629 -0.1332  0.2694  3.1776
  110OSM   C11S11342   2.591   0.887   9.558 -0.0984 -0.2836  0.0849
  110OSM   H11S11343   2.481   0.875   9.552  0.1921 -4.0428 -0.3364
  110OSM   H11T11344   2.625   0.786   9.590 -1.5041 -1.1981 -1.1561
  110OSM   C12S11345   2.645   0.895   9.410 -0.2722 -0.4640  0.5151
  110OSM   H12S11346   2.755   0.880   9.410 -0.2697 -0.5439 -0.6343
  110OSM   H12T11347   2.632   0.998   9.369 -1.8901 -0.6336  0.5549
  110OSM   C13S11348   2.585   0.805   9.302  0.1295  0.3811 -0.0672
  110OSM   H13S11349   2.637   0.798   9.204 -1.2617  0.7553 -0.8662
  110OSM   H13T11350   2.485   0.844   9.272  0.2460  1.2940  0.6730
  110OSM   C14S11351   2.560   0.662   9.349 -0.0595  0.7173  0.0459
  110OSM   H14S11352   2.487   0.657   9.433  0.5877  1.3212  0.6557
  110OSM   H14T11353   2.651   0.626   9.401 -1.7265 -0.1942  2.5157
  110OSM   C15S11354   2.522   0.566   9.248 -0.0523  0.5036  0.5014
  110OSM   H15S11355   2.429   0.594   9.194 -1.6776 -4.0809  0.5306
  110OSM   H15T11356   2.492   0.470   9.295 -0.3346  0.3392 -0.0108
  110OSM   C16S11357   2.636   0.526   9.152 -1.2568  0.3044  0.0231
  110OSM   H16S11358   2.738   0.512   9.194 -1.6343  0.0326  0.8792
  110OSM   H16T11359   2.633   0.611   9.081 -0.8197  0.8798  0.6792
  110OSM   C17S11360   2.595   0.401   9.064  1.1079 -0.0695  0.3678
  110OSM   H17S11361   2.501   0.419   9.007  2.1445  0.6189 -1.1953
  110OSM   H17T11362   2.580   0.316   9.134 -0.2390  0.3430  0.5981
  110OSM   C18S11363   2.705   0.365   8.962 -0.2677 -0.0809 -0.0016
  110OSM   H18S11364   2.716   0.449   8.890 -0.6497  1.1578  1.3504
  110OSM   H18T11365   2.716   0.259   8.930  0.9150 -0.1843  0.6895
  110OSM   H18U11366   2.799   0.369   9.021  0.0360 -0.1847 -0.4753
  110OSM    C1F11367   1.966   0.982  10.347 -0.3577  0.8384  0.2513
  110OSM     OF11368   1.905   1.052  10.426  0.7458 -0.1019  0.0474
  110OSM    C2F11369   1.905   0.884  10.259  0.2241  0.8362  0.0401
  110OSM    H2F11370   1.881   0.796  10.322  0.9879  0.6364  0.0687
  110OSM    H2G11371   1.983   0.843  10.191 -0.5269 -0.1767 -0.2219
  110OSM    C3F11372   1.787   0.933  10.172  0.5716 -0.1179  0.2407
  110OSM    H3F11373   1.820   1.021  10.112  2.0941 -0.7696  0.0717
  110OSM    H3G11374   1.706   0.963  10.241  1.6480  0.0903  1.4505
  110OSM    C4F11375   1.728   0.831  10.075  0.3851  0.3601  0.9263
  110OSM    H4F11376   1.804   0.810   9.996 -0.4763 -0.4166  0.2698
  110OSM    H4G11377   1.652   0.883  10.012  2.2812  1.8048 -0.2905
  110OSM    C5F11378   1.663   0.700  10.132  0.4258 -0.4431 -0.3017
  110OSM    H5F11379   1.597   0.744  10.211  0.7143 -0.5691  0.0145
  110OSM    H5G11380   1.736   0.639  10.189  0.7381  0.4097  0.2240
  110OSM    C6F11381   1.576   0.618  10.039  0.1082  0.1315 -0.4443
  110OSM    H6F11382   1.642   0.552   9.980  0.2280 -1.1712  1.0986
  110OSM    H6G11383   1.509   0.683   9.979 -1.0221 -0.8768 -0.3038
  110OSM    C7F11384   1.477   0.530  10.114  0.5563  0.1784  0.5880
  110OSM    H7F11385   1.422   0.603  10.177  1.4599 -0.7073  2.4889
  110OSM    H7G11386   1.539   0.474  10.187  1.3125 -0.3748 -0.4540
  110OSM    C8F11387   1.388   0.442  10.025  0.0243 -0.0234 -0.1332
  110OSM    H8F11388   1.339   0.364  10.088  1.5860 -3.8403 -3.2758
  110OSM    H8G11389   1.453   0.376   9.965 -2.3011  1.3764 -4.6445
  110OSM    C9F11390   1.286   0.527   9.950 -1.1870 -0.4106 -0.1260
  110OSM    H9F11391   1.215   0.588  10.008 -1.0601  1.3864 -1.7782
  110OSM   C10F11392   1.289   0.542   9.812  0.1300  0.1565  0.1698
  110OSM   H10F11393   1.223   0.623   9.777 -1.4593  0.8188  4.0986
  110OSM   C11F11394   1.377   0.475   9.708 -0.7044 -0.1107 -0.1619
  110OSM   H11F11395   1.400   0.375   9.750  2.0048  0.4760 -0.0286
  110OSM   H11G11396   1.468   0.534   9.684 -0.2454 -1.0191 -0.7134
  110OSM   C12F11397   1.301   0.454   9.581  0.2602  1.0019  0.3022
  110OSM   H12F11398   1.282   0.559   9.550  2.1399  2.0931  2.5535
  110OSM   H12G11399   1.211   0.389   9.591  2.0177 -1.5794  0.4234
  110OSM   C13F11400   1.382   0.370   9.473 -0.3739 -0.6410  0.7538
  110OSM   H13F11401   1.405   0.267   9.507  2.1314 -0.6680 -0.8284
  110OSM   H13G11402   1.476   0.424   9.447  0.7155 -1.3569  2.9133
  110OSM   C14F11403   1.298   0.360   9.343  0.1486  0.0947  0.1451
  110OSM   H14F11404   1.259   0.463   9.334  2.0663  0.9753  1.2623
  110OSM   H14G11405   1.223   0.281   9.363  1.3434 -1.5788 -1.5773
  110OSM   C15F11406   1.384   0.330   9.218  0.9325  0.3673 -0.6413
  110OSM   H15F11407   1.444   0.236   9.212  0.6933 -0.0077  1.8467
  110OSM   H15G11408   1.459   0.411   9.216  2.3818 -0.9266 -0.8945
  110OSM   C16F11409   1.304   0.340   9.090  0.1745  0.4778  0.1111
  110OSM   H16F11410   1.369   0.354   9.001  0.7844 -1.3940  0.2229
  110OSM   H16G11411   1.248   0.436   9.090  0.6615  0.7856  1.5087
  110OSM   C17F11412   1.211   0.224   9.057 -0.1043  0.0806  0.0805
  110OSM   H17F11413   1.134   0.206   9.136 -1.3955 -0.7795 -1.3183
  110OSM   H17G11414   1.263   0.127   9.050 -0.9580 -0.2829 -2.0133
  110OSM   C18F11415   1.134   0.248   8.923 -0.5400  0.1376 -0.0332
  110OSM   H18F11416   1.049   0.176   8.923 -1.3553  1.0760 -0.5436
  110OSM   H18G11417   1.186   0.229   8.827  1.0519 -0.9543  0.9929
  110OSM   H18H11418   1.087   0.348   8.930 -0.7608  0.0280  0.0583
  111OSM      N11419   6.217   4.805  11.032  0.0732  0.0160 -0.4600
  111OSM    C1511420   6.297   4.836  11.155 -0.6850 -0.3411  0.7109
  111OSM   H15A11421   6.363   4.754  11.180 -2.5278 -1.5946  1.7106
  111OSM   H15B11422   6.231   4.838  11.240 -0.7636 -2.5800  0.7757
  111OSM   H15C11423   6.373   4.913  11.148  1.5597 -2.2083  2.6047
  111OSM    C1411424   6.158   4.665  11.063  0.0802  0.0179  0.1100
  111OSM   H14A11425   6.233   4.587  11.068  0.2119  0.1632  0.4397
  111OSM   H14B11426   6.096   4.645  10.976 -1.9911 -0.4300  1.6255
  111OSM   H14C11427   6.109   4.665  11.159  1.2840  1.1849  0.7701
  111OSM    C1311428   6.111   4.911  11.026 -0.0395  0.2509 -0.6959
  111OSM   H13A11429   6.058   4.922  11.119  0.5688 -2.3789  0.0363
  111OSM   H13B11430   6.029   4.875  10.966 -0.5661 -1.7722  1.0997
  111OSM   H13C11431   6.151   5.004  10.988  0.7699 -0.3197 -1.2745
  111OSM    C1211432   6.301   4.794  10.915 -0.7820  0.6904  0.4893
  111OSM   H12A11433   6.378   4.721  10.931  1.0352  2.8038  1.8966
  111OSM   H12B11434   6.368   4.879  10.908 -0.2790  0.3649  1.2208
  111OSM    C1111435   6.239   4.767  10.771  0.1059 -0.1648 -0.8118
  111OSM   H11A11436   6.319   4.772  10.694  1.3744 -0.4359  0.4452
  111OSM   H11B11437   6.170   4.852  10.751  0.8756  0.8949  0.7797
  111OSM      P11438   6.234   4.513  10.760 -0.1071  0.1428  0.2301
  111OSM    O1311439   6.328   4.501  10.877  0.7433 -0.4626 -0.0402
  111OSM    O1411440   6.139   4.399  10.733 -0.1858 -0.3816  0.0689
  111OSM    O1111441   6.319   4.518  10.627 -0.8843  0.0212  0.2072
  111OSM    O1211442   6.156   4.649  10.767  0.1021  0.0939  0.9809
  111OSM    C1S11443   6.265   4.568  10.504 -0.0459  1.0257 -0.1834
  111OSM    H1S11444   6.214   4.665  10.518  0.2468  1.2836 -0.8478
  111OSM    H1T11445   6.190   4.493  10.473  0.1106  1.2511 -1.1232
  111OSM     NF11446   6.315   4.639  10.279  0.4057 -0.7930  0.2534
  111OSM    HNF11447   6.268   4.571  10.224  0.1962 -1.8158  1.6573
  111OSM    C2S11448   6.373   4.584  10.395  0.4899  0.4100 -0.7483
  111OSM    H2S11449   6.454   4.647  10.437  0.7989  0.3992 -1.3153
  111OSM    C3S11450   6.439   4.448  10.367  0.0274 -0.0517 -0.4654
  111OSM    H3S11451   6.359   4.373  10.353 -2.8214  2.4919  1.0188
  111OSM     O311452   6.496   4.395  10.488 -0.0664 -0.0847  0.6902
  111OSM    HO311453   6.435   4.424  10.556 -1.2963 -0.2504 -0.3181
  111OSM    C4S11454   6.540   4.464  10.253 -0.5983 -0.1872 -0.2252
  111OSM    H4S11455   6.491   4.444  10.157  1.1589 -1.0123 -1.0067
  111OSM    C5S11456   6.673   4.488  10.255 -0.0993 -0.2161  0.2768
  111OSM    H5S11457   6.720   4.512  10.352  0.4480 -0.7327  0.1425
  111OSM    C6S11458   6.765   4.511  10.138 -0.4411 -0.4315 -0.8235
  111OSM    H6S11459   6.858   4.452  10.153 -0.9888 -1.0762  0.0545
  111OSM    H6T11460   6.787   4.618  10.115  1.8656 -0.7554 -0.3304
  111OSM    C7S11461   6.713   4.468   9.999  0.1633 -0.4106  0.3004
  111OSM    H7S11462   6.623   4.523   9.963  0.6965 -0.2878 -0.8774
  111OSM    H7T11463   6.693   4.359  10.007  4.7729 -1.3673  1.4009
  111OSM    C8S11464   6.816   4.482   9.885  0.8609 -0.3299  0.3591
  111OSM    H8S11465   6.888   4.398   9.898 -0.2313 -1.0600  1.9705
  111OSM    H8T11466   6.877   4.575   9.886  0.0376  0.2566 -0.8451
  111OSM    C9S11467   6.766   4.477   9.739 -0.6665 -0.4618  0.1819
  111OSM    H9S11468   6.726   4.578   9.715 -0.6554 -0.6684 -0.7708
  111OSM    H9T11469   6.693   4.394   9.730 -0.3054 -1.0029  1.8712
  111OSM   C10S11470   6.873   4.439   9.632  0.4152 -0.4164  0.6538
  111OSM   H10S11471   6.916   4.342   9.663 -1.8542 -1.1328  1.7451
  111OSM   H10T11472   6.951   4.518   9.634 -0.2515  0.2415  1.8091
  111OSM   C11S11473   6.794   4.428   9.496  0.3900 -0.6840 -0.1103
  111OSM   H11S11474   6.745   4.526   9.474  1.4149 -0.0337  0.4567
  111OSM   H11T11475   6.706   4.363   9.518 -1.0862  1.6786  1.4137
  111OSM   C12S11476   6.879   4.379   9.376  0.0346  0.6166 -0.6185
  111OSM   H12S11477   6.919   4.277   9.396 -0.8419  0.1911 -0.9662
  111OSM   H12T11478   6.964   4.449   9.366  0.0159  0.5480 -1.3183
  111OSM   C13S11479   6.792   4.365   9.250 -0.4233  0.5478  1.0367
  111OSM   H13S11480   6.762   4.468   9.222  0.8235  0.7742  0.4625
  111OSM   H13T11481   6.701   4.305   9.276  0.8510 -1.2373  1.6210
  111OSM   C14S11482   6.858   4.313   9.124  0.0216  0.8851 -0.2289
  111OSM   H14S11483   6.909   4.217   9.145  0.6996  1.5171  1.1492
  111OSM   H14T11484   6.936   4.391   9.111  1.0324 -0.0479  0.0842
  111OSM   C15S11485   6.763   4.296   9.000  1.0176  0.4483  0.6172
  111OSM   H15S11486   6.686   4.376   9.010 -1.6812 -1.8567 -0.2650
  111OSM   H15T11487   6.709   4.200   9.015  0.9673  0.4887  0.6963
  111OSM   C16S11488   6.823   4.294   8.859  0.0792  0.3877 -0.8741
  111OSM   H16S11489   6.884   4.201   8.850  1.0524  0.8956  0.2261
  111OSM   H16T11490   6.885   4.385   8.851  0.8620  0.0108  0.5170
  111OSM   C17S11491   6.714   4.287   8.749  0.2974  0.3109  1.1451
  111OSM   H17S11492   6.626   4.226   8.779  1.9229 -3.1998 -0.6223
  111OSM   H17T11493   6.748   4.232   8.659  0.8294  1.3620  0.6936
  111OSM   C18S11494   6.672   4.429   8.708 -0.4845 -0.5219 -0.2554
  111OSM   H18S11495   6.597   4.425   8.626  0.3407 -2.2405 -0.9606
  111OSM   H18T11496   6.760   4.482   8.666  1.1019 -2.2635  0.7227
  111OSM   H18U11497   6.624   4.483   8.793 -2.1869 -2.7392  0.2769
  111OSM    C1F11498   6.264   4.767  10.273  0.2614  0.3408 -0.0503
  111OSM     OF11499   6.307   4.858  10.335 -0.4371 -0.2909  0.4331
  111OSM    C2F11500   6.149   4.777  10.171  0.3381  0.4493  0.9959
  111OSM    H2F11501   6.059   4.727  10.213  0.1329 -0.0957 -0.0572
  111OSM    H2G11502   6.181   4.731  10.075 -3.3063  0.8926 -0.5834
  111OSM    C3F11503   6.131   4.921  10.125  0.2131  0.0829 -0.0458
  111OSM    H3F11504   6.230   4.968  10.107 -1.1425  3.0313 -0.5409
  111OSM    H3G11505   6.086   4.970  10.215 -0.0627 -1.1636  0.5084
  111OSM    C4F11506   6.042   4.943   9.997 -0.1820  0.0369 -0.9969
  111OSM    H4F11507   6.092   4.887   9.915  1.9274 -1.1503  0.9955
  111OSM    H4G11508   6.053   5.050   9.971  1.2412 -0.0064 -0.6073
  111OSM    C5F11509   5.888   4.932  10.005 -0.3357  0.1603 -0.3792
  111OSM    H5F11510   5.851   5.003  10.082 -0.5029 -1.0444  0.6664
  111OSM    H5G11511   5.866   4.829  10.039  2.4060 -0.1951  0.6045
  111OSM    C6F11512   5.814   4.961   9.870  0.0052  0.2663 -0.0033
  111OSM    H6F11513   5.833   5.068   9.845 -1.5537  0.0343 -2.5420
  111OSM    H6G11514   5.707   4.939   9.892  0.6839 -0.5688  2.7633
  111OSM    C7F11515   5.862   4.865   9.760  0.2145 -0.7085 -1.0618
  111OSM    H7F11516   5.869   4.765   9.808 -0.5609  0.1579  0.9794
  111OSM    H7G11517   5.967   4.882   9.730 -0.1504  0.8474 -1.5443
  111OSM    C8F11518   5.766   4.861   9.640  0.4804 -0.6709 -0.4402
  111OSM    H8F11519   5.772   4.957   9.584  0.7279 -0.0631  0.5884
  111OSM    H8G11520   5.661   4.877   9.674  1.0426 -0.6285  1.3920
  111OSM    C9F11521   5.781   4.735   9.559  0.0107  0.1800  1.2181
  111OSM    H9F11522   5.736   4.647   9.609 -2.7817  0.5954 -0.3660
  111OSM   C10F11523   5.817   4.724   9.429 -0.8103 -0.1763  0.5517
  111OSM   H10F11524   5.827   4.625   9.383  0.4736  0.4069 -0.4808
  111OSM   C11F11525   5.882   4.830   9.347 -0.3270  0.2303 -1.0327
  111OSM   H11F11526   5.891   4.930   9.395  0.2821 -0.2587 -0.0968
  111OSM   H11G11527   5.818   4.856   9.261 -0.5585  0.2802 -0.8479
  111OSM   C12F11528   6.030   4.802   9.303 -0.1188  0.1878  0.2320
  111OSM   H12F11529   6.083   4.758   9.390 -1.8106  0.7824  1.6285
  111OSM   H12G11530   6.071   4.902   9.278  1.2418 -0.2970  0.4739
  111OSM   C13F11531   6.024   4.713   9.183 -0.4441 -0.4598  0.0276
  111OSM   H13F11532   5.944   4.728   9.107 -0.0948 -2.7053 -0.8769
  111OSM   H13G11533   6.002   4.609   9.215  0.0314  0.0253  2.0257
  111OSM   C14F11534   6.156   4.718   9.102  0.1871 -0.2163 -1.1499
  111OSM   H14F11535   6.238   4.677   9.164 -2.0959 -0.3314  2.0125
  111OSM   H14G11536   6.183   4.825   9.096 -2.2418  0.5767  0.6277
  111OSM   C15F11537   6.148   4.638   8.968 -0.4292 -0.0071  0.2618
  111OSM   H15F11538   6.070   4.693   8.912 -1.1732 -0.1137  1.1665
  111OSM   H15G11539   6.107   4.535   8.979  3.0327 -1.7707 -1.7255
  111OSM   C16F11540   6.284   4.610   8.898 -0.3127 -0.2007  0.1937
  111OSM   H16F11541   6.347   4.550   8.967  0.0661  0.1543  0.1647
  111OSM   H16G11542   6.345   4.700   8.874 -1.1374 -0.0841 -1.5955
  111OSM   C17F11543   6.264   4.515   8.776 -0.7783  0.3130 -0.0346
  111OSM   H17F11544   6.224   4.414   8.800 -0.3073  0.3078  0.7515
  111OSM   H17G11545   6.364   4.490   8.734 -1.1170  0.9354 -1.2733
  111OSM   C18F11546   6.179   4.568   8.656  0.0187  0.1928  0.0653
  111OSM   H18F11547   6.069   4.577   8.671  0.0891  0.2523  0.5565
  111OSM   H18G11548   6.202   4.501   8.571  2.4147  0.1216  0.7044
  111OSM   H18H11549   6.221   4.667   8.630  3.1558 -1.2653 -0.8068
  112OSM      N11550   1.252   1.218  11.020  0.0187  1.1374 -0.4647
  112OSM    C1511551   1.266   1.274  10.881 -0.0934 -0.3208 -0.1606
  112OSM   H15A11552   1.336   1.356  10.888 -0.5312  0.0373  0.0683
  112OSM   H15B11553   1.172   1.308  10.841 -1.2895 -1.3063  1.6969
  112OSM   H15C11554   1.303   1.200  10.811 -1.2071  1.4843 -2.8302
  112OSM    C1411555   1.386   1.180  11.078  0.7527 -0.5177  0.5017
  112OSM   H14A11556   1.436   1.267  11.116 -0.4791  0.3520  0.2088
  112OSM   H14B11557   1.437   1.120  11.004  1.8222  2.1227 -1.0419
  112OSM   H14C11558   1.370   1.112  11.161  1.0669 -1.0912  0.1017
  112OSM    C1311559   1.187   1.330  11.099 -0.2299 -0.4036  0.0347
  112OSM   H13A11560   1.178   1.297  11.202 -1.5411 -0.3631 -0.0526
  112OSM   H13B11561   1.085   1.338  11.065 -0.0552  0.5686 -0.2834
  112OSM   H13C11562   1.229   1.428  11.088  0.8159 -0.9412 -0.9353
  112OSM    C1211563   1.159   1.098  11.021  0.5062  0.0824  0.1867
  112OSM   H12A11564   1.145   1.069  11.125 -2.3210  1.3163  0.2618
  112OSM   H12B11565   1.204   1.016  10.968 -0.8637 -0.8603  0.4330
  112OSM    C1111566   1.026   1.113  10.962  0.7550 -0.5971 -0.8812
  112OSM   H11A11567   0.987   1.014  10.932 -0.0527 -1.3578  2.2795
  112OSM   H11B11568   1.024   1.172  10.868  0.7300 -1.2651 -1.3029
  112OSM      P11569   0.851   1.091  11.163 -0.2606 -0.3931  0.2084
  112OSM    O1311570   0.941   0.988  11.219 -0.4175  0.6084 -0.6619
  112OSM    O1411571   0.783   1.176  11.254 -0.4433  0.5748 -0.5455
  112OSM    O1111572   0.754   1.022  11.057 -0.6888  0.5425 -0.2317
  112OSM    O1211573   0.934   1.184  11.059  0.0687 -0.0820  0.1457
  112OSM    C1S11574   0.675   1.099  10.973  0.0364 -0.0561  0.6610
  112OSM    H1S11575   0.694   1.208  10.976 -0.0106 -0.0535  0.9080
  112OSM    H1T11576   0.566   1.079  10.980  0.2276 -1.0367  0.9534
  112OSM     NF11577   0.633   1.167  10.739  0.0135  0.3910 -0.0390
  112OSM    HNF11578   0.536   1.163  10.720 -0.1866  2.9917 -0.0112
  112OSM    C2S11579   0.694   1.061  10.824 -0.2102 -0.5205  0.9415
  112OSM    H2S11580   0.803   1.070  10.804 -0.0203 -1.6578  1.3798
  112OSM    C3S11581   0.641   0.917  10.794  0.2923  0.2949  0.5836
  112OSM    H3S11582   0.532   0.913  10.814 -0.9002  0.7164 -4.4379
  112OSM     O311583   0.684   0.816  10.881  0.5981  0.8281  0.2675
  112OSM    HO311584   0.722   0.859  10.959  1.3264 -0.5778  0.7270
  112OSM    C4S11585   0.667   0.874  10.651  0.1982  0.0940 -0.3380
  112OSM    H4S11586   0.591   0.916  10.585 -0.1648  0.1437  0.1064
  112OSM    C5S11587   0.766   0.806  10.592  0.8190 -0.0228  0.2312
  112OSM    H5S11588   0.855   0.793  10.656  1.4060 -0.1115 -0.5818
  112OSM    C6S11589   0.777   0.779  10.448  0.0040 -0.0451 -0.3159
  112OSM    H6S11590   0.797   0.670  10.447 -0.8552 -0.4043  3.8195
  112OSM    H6T11591   0.866   0.829  10.406  1.0212 -1.0119  0.6410
  112OSM    C7S11592   0.660   0.827  10.354  0.0828  0.3147 -0.2321
  112OSM    H7S11593   0.666   0.937  10.349 -2.3733  0.4611 -1.1236
  112OSM    H7T11594   0.568   0.795  10.408  1.2773 -0.5807  1.3808
  112OSM    C8S11595   0.674   0.765  10.210  0.3935 -0.0752 -0.3165
  112OSM    H8S11596   0.680   0.654  10.216  0.7397 -0.1047 -1.0670
  112OSM    H8T11597   0.773   0.797  10.170  0.2648 -0.3752 -0.8896
  112OSM    C9S11598   0.576   0.815  10.105  0.0476 -0.2866  0.3234
  112OSM    H9S11599   0.605   0.922  10.115  1.5988 -0.7907  1.7778
  112OSM    H9T11600   0.470   0.790  10.128 -0.9047  2.1045 -1.0661
  112OSM   C10S11601   0.595   0.773   9.958 -0.1748 -0.1705 -0.5501
  112OSM   H10S11602   0.582   0.663   9.949  1.3411 -0.5007  0.9003
  112OSM   H10T11603   0.702   0.791   9.935 -0.4392 -0.2811 -1.9327
  112OSM   C11S11604   0.514   0.860   9.861  0.4272 -0.2366  0.3921
  112OSM   H11S11605   0.510   0.968   9.885 -2.9615 -0.0199 -0.6881
  112OSM   H11T11606   0.413   0.818   9.846  1.1000 -0.9831 -2.7106
  112OSM   C12S11607   0.587   0.869   9.719  0.2587 -0.9079  0.3228
  112OSM   H12S11608   0.693   0.880   9.749 -0.1056 -2.7815  2.6078
  112OSM   H12T11609   0.554   0.968   9.679 -2.1484 -1.3694  0.9739
  112OSM   C13S11610   0.569   0.754   9.620 -0.4002 -0.0708  0.0091
  112OSM   H13S11611   0.469   0.723   9.657  0.0706  1.0868  2.4010
  112OSM   H13T11612   0.651   0.685   9.650  0.3505  1.2574  1.1195
  112OSM   C14S11613   0.584   0.794   9.473  0.0678 -0.0443 -0.1704
  112OSM   H14S11614   0.594   0.701   9.412  0.2070 -0.5065  0.5390
  112OSM   H14T11615   0.667   0.865   9.454 -0.4371  1.0113  1.3691
  112OSM   C15S11616   0.448   0.863   9.427 -0.5029 -0.7799  0.2258
  112OSM   H15S11617   0.443   0.954   9.491 -0.4264 -1.7925  1.7293
  112OSM   H15T11618   0.356   0.802   9.441 -2.5565  2.0462  0.0227
  112OSM   C16S11619   0.454   0.904   9.274  0.0319 -0.0465  0.5473
  112OSM   H16S11620   0.551   0.957   9.263 -0.0540  0.0691  0.3514
  112OSM   H16T11621   0.366   0.968   9.252  0.2601  0.3838  0.8701
  112OSM   C17S11622   0.454   0.783   9.178 -0.1552 -0.0950 -0.2167
  112OSM   H17S11623   0.362   0.720   9.185  0.3522 -0.7523  0.8184
  112OSM   H17T11624   0.537   0.713   9.198 -0.0880 -0.6070 -2.1247
  112OSM   C18S11625   0.485   0.829   9.029 -0.0267 -0.2213 -0.2765
  112OSM   H18S11626   0.472   0.734   8.973 -2.3137 -0.2630  0.2322
  112OSM   H18T11627   0.589   0.869   9.030 -0.5068  1.0874 -0.9085
  112OSM   H18U11628   0.409   0.905   9.001  0.2937 -0.1666 -1.0027
  112OSM    C1F11629   0.696   1.274  10.696 -0.3387 -0.2436 -0.2650
  112OSM     OF11630   0.816   1.291  10.711  0.3241 -0.2108  0.1058
  112OSM    C2F11631   0.618   1.383  10.625  0.2715 -0.2151  0.3681
  112OSM    H2F11632   0.643   1.471  10.687  2.5616  0.6401 -1.6224
  112OSM    H2G11633   0.509   1.361  10.636  0.4085 -1.6583 -0.8727
  112OSM    C3F11634   0.669   1.411  10.482  0.1647  0.1994 -0.3724
  112OSM    H3F11635   0.770   1.457  10.479  0.5916 -0.7573 -1.3232
  112OSM    H3G11636   0.599   1.481  10.432 -0.1542  0.9678  1.0974
  112OSM    C4F11637   0.667   1.292  10.384  0.1193  0.2939 -0.6060
  112OSM    H4F11638   0.565   1.251  10.366  0.6315 -0.8617 -0.9403
  112OSM    H4G11639   0.738   1.215  10.421  0.2744  0.4406 -0.5941
  112OSM    C5F11640   0.703   1.332  10.241 -0.6695 -0.7290 -0.0107
  112OSM    H5F11641   0.787   1.404  10.238 -0.5017 -0.9632 -1.3812
  112OSM    H5G11642   0.622   1.396  10.200 -2.6346 -2.3871  1.1001
  112OSM    C6F11643   0.737   1.215  10.148  0.1666 -0.0483  0.5179
  112OSM    H6F11644   0.649   1.148  10.159 -0.8039  1.2727  1.0290
  112OSM    H6G11645   0.818   1.151  10.189 -1.1265 -1.5131  0.8663
  112OSM    C7F11646   0.775   1.251  10.005 -0.2243  0.4708  0.2358
  112OSM    H7F11647   0.872   1.304  10.009  0.2675 -0.2715 -1.2612
  112OSM    H7G11648   0.699   1.320   9.963  0.8793  2.9920  2.1306
  112OSM    C8F11649   0.782   1.131   9.913  0.1315 -0.3395  0.2752
  112OSM    H8F11650   0.679   1.104   9.882  0.5356 -0.3965 -1.0930
  112OSM    H8G11651   0.830   1.051   9.974  0.3974  0.2963  0.9053
  112OSM    C9F11652   0.880   1.140   9.796 -0.8235  0.6268 -0.2582
  112OSM    H9F11653   0.979   1.091   9.797 -1.5533 -0.9949 -1.7455
  112OSM   C10F11654   0.853   1.197   9.677  0.7167  0.2840 -0.3828
  112OSM   H10F11655   0.934   1.182   9.605  1.4939  0.9710  0.3195
  112OSM   C11F11656   0.718   1.258   9.635  0.0086  0.0912  0.7065
  112OSM   H11F11657   0.734   1.368   9.642  1.5611 -0.0723  0.0411
  112OSM   H11G11658   0.639   1.234   9.710 -1.0354  1.3087  0.0494
  112OSM   C12F11659   0.664   1.225   9.492  0.1401  0.1833  1.0815
  112OSM   H12F11660   0.586   1.299   9.466 -0.8538 -1.9263 -2.5867
  112OSM   H12G11661   0.613   1.127   9.500 -1.1667  0.6048 -1.1830
  112OSM   C13F11662   0.765   1.229   9.379 -0.4877  0.6913  0.2011
  112OSM   H13F11663   0.840   1.151   9.404  0.2232  1.2911  0.0031
  112OSM   H13G11664   0.813   1.329   9.381  0.5555  0.2142 -0.1585
  112OSM   C14F11665   0.711   1.204   9.242 -0.0494  0.5067 -0.1372
  112OSM   H14F11666   0.724   1.303   9.192  0.0062  0.3352 -0.4680
  112OSM   H14G11667   0.604   1.173   9.243  0.0071  0.2116 -1.2414
  112OSM   C15F11668   0.787   1.106   9.159  0.1174  0.4776 -0.0676
  112OSM   H15F11669   0.770   1.000   9.188  1.6424  0.1510 -0.2950
  112OSM   H15G11670   0.897   1.113   9.176 -0.1811  2.5599  1.3861
  112OSM   C16F11671   0.739   1.120   9.014 -0.3234 -1.1725  0.5537
  112OSM   H16F11672   0.753   1.227   8.987 -1.6953 -1.2312 -0.5172
  112OSM   H16G11673   0.632   1.090   9.007 -1.3431  1.7398  1.9660
  112OSM   C17F11674   0.823   1.037   8.914 -0.0599 -0.1417 -0.4361
  112OSM   H17F11675   0.802   1.055   8.806  0.3333 -0.0653 -0.5036
  112OSM   H17G11676   0.805   0.931   8.942 -1.7322 -0.1276 -1.3540
  112OSM   C18F11677   0.971   1.090   8.920  0.7852  0.0541 -0.1842
  112OSM   H18F11678   1.024   1.048   9.008  1.9422  0.2488 -0.7619
  112OSM   H18G11679   0.974   1.201   8.919 -0.8399  0.2026 -3.7814
  112OSM   H18H11680   1.026   1.051   8.832  0.0822 -0.1895 -0.5217
  113OSM      N11681   5.068   1.312  10.773  0.3285 -0.1713  0.2152
  113OSM    C1511682   4.947   1.369  10.839  0.2013  0.1676  0.0099
  113OSM   H15A11683   4.919   1.468  10.808 -0.6882  0.8982  2.8684
  113OSM   H15B11684   4.975   1.369  10.943 -0.9712 -3.2823  0.4763
  113OSM   H15C11685   4.853   1.317  10.824  0.6817 -1.3084  1.6994
  113OSM    C1411686   5.120   1.196  10.853 -0.7802 -0.0261 -0.1530
  113OSM   H14A11687   5.049   1.115  10.856 -0.4125 -0.3391  0.4879
  113OSM   H14B11688   5.140   1.228  10.954  0.0815  1.8887 -0.8720
  113OSM   H14C11689   5.213   1.156  10.816  0.3457 -0.2315  2.6347
  113OSM    C1311690   5.018   1.270  10.640  0.0043  0.2096 -0.8244
  113OSM   H13A11691   4.986   1.358  10.587  0.4022  2.4491  2.3479
  113OSM   H13B11692   4.933   1.205  10.652  2.8235 -3.6312  0.0723
  113OSM   H13C11693   5.086   1.209  10.583  0.4302 -1.4624  1.3558
  113OSM    C1211694   5.168   1.422  10.755  0.1223 -0.1441  0.0205
  113OSM   H12A11695   5.184   1.459  10.855 -0.6808 -0.3664  0.2439
  113OSM   H12B11696   5.132   1.493  10.682 -1.4416  0.1437  1.0208
  113OSM    C1111697   5.307   1.384  10.699 -0.3434 -0.7504  0.2479
  113OSM   H11A11698   5.359   1.480  10.680  1.9767 -1.5062  2.2104
  113OSM   H11B11699   5.274   1.326  10.610 -3.3129 -0.5754  1.1348
  113OSM      P11700   5.454   1.369  10.923  0.3494  0.0118  0.1955
  113OSM    O1311701   5.376   1.440  11.030 -0.3884  0.1176  0.5340
  113OSM    O1411702   5.550   1.267  10.977 -0.4908 -0.1618 -0.5749
  113OSM    O1111703   5.538   1.479  10.849 -0.2995 -0.6068  0.1832
  113OSM    O1211704   5.374   1.304  10.800 -0.3691  0.2048  0.1746
  113OSM    C1S11705   5.655   1.458  10.765  0.6553 -0.2275 -0.3663
  113OSM    H1S11706   5.649   1.371  10.696 -0.5407  1.0466 -1.9376
  113OSM    H1T11707   5.750   1.451  10.823 -0.1593  2.0301  1.3727
  113OSM     NF11708   5.774   1.552  10.575 -0.2122  0.5241  0.3506
  113OSM    HNF11709   5.870   1.577  10.589  0.0870 -1.3021  1.9803
  113OSM    C2S11710   5.681   1.586  10.680  0.1770 -0.2371 -0.2093
  113OSM    H2S11711   5.591   1.638  10.641  1.5915  1.8125 -0.9015
  113OSM    C3S11712   5.729   1.700  10.773 -0.2193  0.3992 -0.4553
  113OSM    H3S11713   5.831   1.671  10.805 -0.0887  1.5093  0.2007
  113OSM     O311714   5.650   1.712  10.888  0.7059  0.4057  0.1502
  113OSM    HO311715   5.591   1.638  10.874  0.9712  0.3811 -0.9855
  113OSM    C4S11716   5.753   1.823  10.694  0.1203 -0.5317  0.1593
  113OSM    H4S11717   5.835   1.819  10.622 -2.2959 -3.7190 -2.7580
  113OSM    C5S11718   5.694   1.941  10.699  0.0506 -0.1341 -0.3269
  113OSM    H5S11719   5.605   1.959  10.760 -0.4209  0.0228 -1.0569
  113OSM    C6S11720   5.722   2.060  10.612 -0.4089 -0.4269  0.4966
  113OSM    H6S11721   5.715   2.150  10.677  0.8700  1.8674 -2.2783
  113OSM    H6T11722   5.643   2.070  10.534  0.9563 -1.6756 -1.1280
  113OSM    C7S11723   5.863   2.066  10.544  0.2572 -0.3448  0.0999
  113OSM    H7S11724   5.868   1.978  10.476 -0.7624 -0.6990  0.4649
  113OSM    H7T11725   5.941   2.039  10.617  0.9229 -1.9500 -1.1468
  113OSM    C8S11726   5.896   2.201  10.486 -0.3897  0.6748  0.2706
  113OSM    H8S11727   6.006   2.214  10.478 -0.4501  0.2612 -2.2571
  113OSM    H8T11728   5.866   2.281  10.557  2.2816  2.6894 -0.6911
  113OSM    C9S11729   5.836   2.236  10.349 -0.3045  0.0920  0.2360
  113OSM    H9S11730   5.814   2.344  10.334 -0.8395  0.1295  1.1847
  113OSM    H9T11731   5.737   2.189  10.331 -1.3403  2.1262  0.3258
  113OSM   C10S11732   5.933   2.201  10.234  0.7037  0.5368 -0.5182
  113OSM   H10S11733   5.955   2.092  10.243 -2.3195 -0.2618 -1.6794
  113OSM   H10T11734   6.021   2.266  10.253  0.0368  1.2212  0.3398
  113OSM   C11S11735   5.868   2.214  10.090 -0.2504 -0.1201 -0.2192
  113OSM   H11S11736   5.855   2.325  10.089  1.2242  0.0770 -0.8866
  113OSM   H11T11737   5.765   2.174  10.084  0.1937 -1.2041 -0.7748
  113OSM   C12S11738   5.956   2.168   9.972 -0.3319  0.0264  0.1591
  113OSM   H12S11739   5.959   2.057   9.969  1.1561 -0.0113  1.5839
  113OSM   H12T11740   6.059   2.205   9.991  0.0802 -1.0105  0.0048
  113OSM   C13S11741   5.916   2.216   9.835 -0.0668 -0.3107 -0.3900
  113OSM   H13S11742   5.948   2.322   9.824 -0.9330 -0.1534 -1.6121
  113OSM   H13T11743   5.808   2.211   9.810 -0.6193 -1.0655  1.8923
  113OSM   C14S11744   5.984   2.145   9.728  0.0005  0.5357  0.1928
  113OSM   H14S11745   5.978   2.035   9.744 -0.4886  0.4436 -0.5436
  113OSM   H14T11746   6.093   2.167   9.724  0.1494 -0.2859 -1.2040
  113OSM   C15S11747   5.945   2.187   9.582 -0.5218  0.1229 -0.0490
  113OSM   H15S11748   6.024   2.145   9.517 -1.4224 -0.0734 -1.0491
  113OSM   H15T11749   5.944   2.297   9.592  0.3885  0.4102 -2.4383
  113OSM   C16S11750   5.807   2.137   9.543  0.1032  0.4560 -0.0897
  113OSM   H16S11751   5.727   2.205   9.581 -1.5191 -1.2535 -0.3038
  113OSM   H16T11752   5.780   2.040   9.590  0.8540  0.8768  1.2690
  113OSM   C17S11753   5.776   2.124   9.389  0.0566  0.3805  0.1783
  113OSM   H17S11754   5.772   2.224   9.340  0.8071  0.4089  0.1687
  113OSM   H17T11755   5.674   2.081   9.380  0.7672 -1.3195 -0.1501
  113OSM   C18S11756   5.867   2.024   9.324  0.1457 -0.2442 -0.1741
  113OSM   H18S11757   5.899   1.938   9.388  1.6981 -1.1665 -2.0706
  113OSM   H18T11758   5.967   2.066   9.301 -0.2268  1.7380  1.5252
  113OSM   H18U11759   5.819   1.982   9.234 -0.3207  1.0532 -0.5522
  113OSM    C1F11760   5.731   1.478  10.476  0.0401  0.6812  0.4587
  113OSM     OF11761   5.615   1.485  10.445  0.6870  0.0088  0.7762
  113OSM    C2F11762   5.833   1.389  10.402  0.7213  0.0948 -0.3731
  113OSM    H2F11763   5.774   1.312  10.348  1.9784 -0.1498 -1.4666
  113OSM    H2G11764   5.908   1.338  10.466  1.3255  0.3874 -0.8369
  113OSM    C3F11765   5.915   1.467  10.298 -0.5086 -0.2362  0.6227
  113OSM    H3F11766   5.963   1.559  10.338 -0.6616  0.6632 -1.1717
  113OSM    H3G11767   5.851   1.502  10.215 -1.9600 -0.4685  1.6169
  113OSM    C4F11768   6.029   1.374  10.236  0.5297  0.2183 -0.3168
  113OSM    H4F11769   5.977   1.321  10.153  1.3310 -2.2354  0.6509
  113OSM    H4G11770   6.070   1.295  10.303 -2.5615  0.2691  1.8210
  113OSM    C5F11771   6.147   1.451  10.177 -0.0170  0.0315 -0.0544
  113OSM    H5F11772   6.198   1.510  10.256 -0.5138 -3.6468  3.3097
  113OSM    H5G11773   6.119   1.513  10.089  1.7433  1.8372  0.5701
  113OSM    C6F11774   6.246   1.351  10.113  0.6469 -0.4695 -0.8557
  113OSM    H6F11775   6.194   1.265  10.065 -0.2776 -0.6909  0.4736
  113OSM    H6G11776   6.311   1.315  10.196 -0.9677 -0.1955  0.5944
  113OSM    C7F11777   6.338   1.420  10.010 -0.6595 -0.8088  0.0836
  113OSM    H7F11778   6.403   1.494  10.062 -1.1566  0.3377 -0.8763
  113OSM    H7G11779   6.276   1.479   9.940  0.7179  0.6452  0.0199
  113OSM    C8F11780   6.419   1.322   9.916 -0.3829 -0.4436  0.1405
  113OSM    H8F11781   6.465   1.241   9.975  1.7706  0.8421  0.3433
  113OSM    H8G11782   6.515   1.370   9.886 -0.2985 -1.0467 -0.5934
  113OSM    C9F11783   6.336   1.274   9.799 -0.5527 -0.2338  0.5546
  113OSM    H9F11784   6.296   1.173   9.814 -1.4833  0.0317 -0.0440
  113OSM   C10F11785   6.325   1.333   9.680  0.0480 -0.6244 -0.0570
  113OSM   H10F11786   6.248   1.286   9.618  0.3398 -1.2849  0.0669
  113OSM   C11F11787   6.383   1.464   9.638  0.0818 -0.7865 -0.2918
  113OSM   H11F11788   6.446   1.515   9.714  0.0712  0.4765 -1.0843
  113OSM   H11G11789   6.302   1.539   9.632  1.6035  0.9861  0.3913
  113OSM   C12F11790   6.462   1.457   9.508 -1.0519  0.1228  0.0764
  113OSM   H12F11791   6.400   1.395   9.439 -0.3744 -0.6842  0.1672
  113OSM   H12G11792   6.558   1.401   9.516 -0.5453  0.4947 -2.6628
  113OSM   C13F11793   6.503   1.587   9.443 -0.1996  0.9680  0.1166
  113OSM   H13F11794   6.551   1.643   9.526 -1.7051 -0.2330  1.8731
  113OSM   H13G11795   6.415   1.647   9.409 -1.4602 -1.6013 -1.4605
  113OSM   C14F11796   6.601   1.568   9.325 -0.9937 -0.1640 -0.0171
  113OSM   H14F11797   6.682   1.501   9.360 -0.5627  0.9039  1.0815
  113OSM   H14G11798   6.646   1.656   9.274  0.5661 -2.1786 -2.3926
  113OSM   C15F11799   6.529   1.501   9.204  0.0058  0.1033  0.3237
  113OSM   H15F11800   6.470   1.584   9.159  1.8045  3.3980  3.4801
  113OSM   H15G11801   6.462   1.420   9.241  0.8935 -1.0332 -0.4863
  113OSM   C16F11802   6.611   1.420   9.098  0.0531  0.2567 -1.2960
  113OSM   H16F11803   6.664   1.337   9.149 -1.6462 -1.0767 -1.6048
  113OSM   H16G11804   6.683   1.485   9.044  0.9010 -1.7684 -2.7327
  113OSM   C17F11805   6.517   1.355   9.000  0.1298 -0.4303 -0.6335
  113OSM   H17F11806   6.481   1.445   8.947  1.2267  0.4679  0.1159
  113OSM   H17G11807   6.430   1.312   9.056  1.1710 -1.0032  0.5976
  113OSM   C18F11808   6.584   1.259   8.910  0.7731  0.1578  0.5301
  113OSM   H18F11809   6.625   1.170   8.964  1.5932 -1.8943 -3.1612
  113OSM   H18G11810   6.664   1.297   8.843 -0.3208  0.0976 -0.8603
  113OSM   H18H11811   6.500   1.218   8.851  0.9291 -3.0682  2.3089
  114OSM      N11812   0.422   0.463  11.474 -0.7258  0.0216  0.5463
  114OSM    C1511813   0.376   0.414  11.612  0.0813  0.6619  0.6031
  114OSM   H15A11814   0.374   0.306  11.614  3.4783  0.4566 -0.7382
  114OSM   H15B11815   0.275   0.450  11.631 -1.2326 -2.0106 -0.7629
  114OSM   H15C11816   0.448   0.452  11.683  2.1125 -1.6006 -0.1269
  114OSM    C1411817   0.339   0.405  11.372  0.2916 -0.1798  0.0768
  114OSM   H14A11818   0.336   0.297  11.372 -0.6062 -0.1677 -0.2795
  114OSM   H14B11819   0.366   0.423  11.269 -1.1664  0.3040 -0.2528
  114OSM   H14C11820   0.233   0.429  11.368  0.6418  1.3419 -1.1859
  114OSM    C1311821   0.408   0.612  11.483  0.5927  0.4904 -0.0324
  114OSM   H13A11822   0.453   0.655  11.572 -1.3273  1.0095  0.7595
  114OSM   H13B11823   0.305   0.644  11.491  0.2768 -0.5275  0.1612
  114OSM   H13C11824   0.452   0.662  11.398 -0.8326  2.3383  0.2487
  114OSM    C1211825   0.567   0.439  11.454 -0.0795 -0.3692  0.1132
  114OSM   H12A11826   0.617   0.495  11.531 -2.9337 -0.3748  2.1317
  114OSM   H12B11827   0.596   0.487  11.361 -0.8973 -1.2040 -0.6012
  114OSM    C1111828   0.626   0.296  11.444  0.0070  0.4500 -0.3830
  114OSM   H11A11829   0.596   0.263  11.342  0.2257  2.2603 -1.0585
  114OSM   H11B11830   0.578   0.213  11.501 -1.3148 -1.1697 -3.5955
  114OSM      P11831   0.860   0.167  11.442 -0.5846 -0.4162  0.3573
  114OSM    O1311832   0.962   0.176  11.541  0.5840  0.0120 -0.4639
  114OSM    O1411833   0.772   0.054  11.448  0.5598  0.0349 -0.1111
  114OSM    O1111834   0.912   0.192  11.291  0.1886 -1.0265  0.2189
  114OSM    O1211835   0.771   0.296  11.455 -0.3575 -0.5822 -0.2533
  114OSM    C1S11836   0.817   0.188  11.181  1.0008  0.3123 -0.0752
  114OSM    H1S11837   0.727   0.252  11.193  1.3022  0.4717  1.6006
  114OSM    H1T11838   0.783   0.085  11.159 -0.7380  1.1871 -1.7546
  114OSM     NF11839   0.786   0.235  10.937  0.6435 -0.0524 -0.5510
  114OSM    HNF11840   0.770   0.151  10.884  2.0706 -1.2979  0.8852
  114OSM    C2S11841   0.884   0.230  11.044 -0.3923 -0.3072 -0.6804
  114OSM    H2S11842   0.920   0.335  11.053 -2.3506  0.4044 -0.5044
  114OSM    C3S11843   1.001   0.139  11.012 -0.5271  0.4412 -0.2629
  114OSM    H3S11844   0.953   0.044  10.980 -0.4067  0.5013 -0.6213
  114OSM     O311845   1.090   0.113  11.116 -0.6157 -0.0919  0.0454
  114OSM    HO311846   1.042   0.143  11.194  0.7976  0.4529  0.7304
  114OSM    C4S11847   1.069   0.191  10.887  0.3991  1.0635  0.6358
  114OSM    H4S11848   1.060   0.301  10.876 -1.3088  0.7304 -2.2017
  114OSM    C5S11849   1.116   0.115  10.787  0.0881 -0.1838 -0.0628
  114OSM    H5S11850   1.105   0.005  10.786 -0.9335 -0.0828 -0.5108
  114OSM    C6S11851   1.168   0.165  10.652  0.2753  0.0291  0.1084
  114OSM    H6S11852   1.098   0.115  10.581 -2.0706  3.3395 -0.1824
  114OSM    H6T11853   1.275   0.142  10.639  0.7283  1.8193  0.3896
  114OSM    C7S11854   1.159   0.318  10.627 -0.1100  0.5354  1.3016
  114OSM    H7S11855   1.224   0.348  10.542 -0.6352 -1.8672 -0.0335
  114OSM    H7T11856   1.218   0.367  10.708  0.1300  1.8943  0.3218
  114OSM    C8S11857   1.025   0.388  10.608  0.0467 -0.3524  0.2998
  114OSM    H8S11858   1.037   0.492  10.643 -1.1667 -0.1238  0.0831
  114OSM    H8T11859   0.948   0.342  10.674  0.7650 -1.7258  0.2201
  114OSM    C9S11860   0.956   0.359  10.473 -0.0970 -0.0465  1.2559
  114OSM    H9S11861   0.848   0.379  10.489  0.0836  0.3088  2.1018
  114OSM    H9T11862   0.952   0.249  10.457 -0.9128  0.2015 -0.4415
  114OSM   C10S11863   1.007   0.427  10.346 -0.4093 -0.4256  0.1849
  114OSM   H10S11864   1.112   0.402  10.320  0.1465  0.1914  1.7243
  114OSM   H10T11865   1.021   0.537  10.352 -0.1647 -0.2937 -1.8616
  114OSM   C11S11866   0.917   0.396  10.225 -0.1171 -0.1773 -0.7171
  114OSM   H11S11867   0.810   0.423  10.241 -0.0368 -0.1521 -0.2288
  114OSM   H11T11868   0.931   0.287  10.210  0.6122 -0.4484  1.6657
  114OSM   C12S11869   0.957   0.464  10.098 -0.2168 -0.2609 -0.1267
  114OSM   H12S11870   1.054   0.428  10.058 -0.9353  0.8782 -3.1918
  114OSM   H12T11871   0.965   0.574  10.111 -1.5097  0.0344 -1.5077
  114OSM   C13S11872   0.854   0.432   9.987  0.2270 -0.0101 -0.4830
  114OSM   H13S11873   0.755   0.476  10.009 -0.6982 -0.8228 -2.7483
  114OSM   H13T11874   0.846   0.321   9.983  1.3295 -0.0771 -1.6941
  114OSM   C14S11875   0.897   0.480   9.843 -0.2423  0.3612 -0.4977
  114OSM   H14S11876   1.004   0.449   9.840  0.4704  2.6814 -0.7054
  114OSM   H14T11877   0.893   0.590   9.828 -0.2723  0.3656 -0.4590
  114OSM   C15S11878   0.819   0.398   9.736 -0.6979  0.0936  0.3504
  114OSM   H15S11879   0.710   0.408   9.756 -0.2295  2.0022  2.3378
  114OSM   H15T11880   0.850   0.292   9.744  0.5109  0.3018 -1.1895
  114OSM   C16S11881   0.836   0.452   9.593 -0.8870  0.1784  0.3279
  114OSM   H16S11882   0.944   0.434   9.573 -0.9675  0.5131 -0.4333
  114OSM   H16T11883   0.823   0.562   9.592 -3.3180 -0.0369  1.4480
  114OSM   C17S11884   0.757   0.368   9.487 -0.2489  0.4576 -0.4434
  114OSM   H17S11885   0.649   0.393   9.488 -0.6187 -1.0105 -1.0588
  114OSM   H17T11886   0.765   0.265   9.528 -2.4506  0.2257 -0.4768
  114OSM   C18S11887   0.819   0.366   9.346 -0.2363  0.1080  0.5571
  114OSM   H18S11888   0.817   0.469   9.306  0.2741  0.8999  2.4900
  114OSM   H18T11889   0.761   0.309   9.270 -0.1145  2.7310 -1.6568
  114OSM   H18U11890   0.917   0.313   9.350 -1.2499 -1.8191  2.4274
  114OSM    C1F11891   0.692   0.329  10.927 -0.3444 -1.1065  0.6580
  114OSM     OF11892   0.704   0.437  10.986  0.3443 -0.1329 -0.0392
  114OSM    C2F11893   0.566   0.312  10.837 -1.1566 -0.2410 -0.2327
  114OSM    H2F11894   0.491   0.363  10.901 -0.3160 -1.1414  1.5391
  114OSM    H2G11895   0.526   0.208  10.836 -1.7429 -0.0442 -1.9213
  114OSM    C3F11896   0.590   0.368  10.697  0.8091  1.3375  0.6053
  114OSM    H3F11897   0.689   0.323  10.676 -0.4961 -1.8306  0.6365
  114OSM    H3G11898   0.601   0.478  10.701  2.0032  1.2144  1.3490
  114OSM    C4F11899   0.491   0.333  10.584  0.5042  0.0593  0.5165
  114OSM    H4F11900   0.394   0.370  10.623  0.4265 -0.9881  1.3556
  114OSM    H4G11901   0.482   0.224  10.568  0.5515  0.2876 -1.2722
  114OSM    C5F11902   0.512   0.413  10.456  0.1095  0.1584 -0.3521
  114OSM    H5F11903   0.620   0.416  10.428 -0.0010 -0.5111 -0.8974
  114OSM    H5G11904   0.499   0.523  10.461  2.1419  0.6323 -2.9961
  114OSM    C6F11905   0.423   0.368  10.338 -0.5716 -0.8489 -0.2096
  114OSM    H6F11906   0.319   0.386  10.374 -0.2443 -0.9564  0.8265
  114OSM    H6G11907   0.436   0.259  10.323  0.7016 -0.9922  1.6546
  114OSM    C7F11908   0.457   0.440  10.207  0.2496  0.5632 -0.4011
  114OSM    H7F11909   0.562   0.430  10.173  0.9257  2.1871  1.0877
  114OSM    H7G11910   0.435   0.548  10.221 -2.0102 -0.0927  2.0589
  114OSM    C8F11911   0.365   0.398  10.088  0.0045 -0.6302 -0.5127
  114OSM    H8F11912   0.264   0.400  10.134 -0.0647 -0.6259 -0.6626
  114OSM    H8G11913   0.384   0.293  10.055 -0.1502 -0.9301  0.3144
  114OSM    C9F11914   0.371   0.486   9.967  0.4914 -0.8810  0.1679
  114OSM    H9F11915   0.388   0.591   9.993  0.4651 -0.9271  0.3766
  114OSM   C10F11916   0.348   0.457   9.836 -0.5902  0.2131  0.0168
  114OSM   H10F11917   0.325   0.546   9.775 -0.2296  0.7277  0.6177
  114OSM   C11F11918   0.320   0.332   9.773  0.3503  0.7184 -0.1495
  114OSM   H11F11919   0.210   0.335   9.757 -0.2114  1.5580  3.2070
  114OSM   H11G11920   0.351   0.241   9.830 -2.4836 -0.0431  0.3518
  114OSM   C12F11921   0.383   0.341   9.633  0.0973 -0.7784 -0.3804
  114OSM   H12F11922   0.388   0.236   9.595 -1.6723 -1.0404  0.0285
  114OSM   H12G11923   0.488   0.376   9.637 -0.4464  1.7161 -4.0154
  114OSM   C13F11924   0.307   0.433   9.539  0.4656  0.2840  0.1972
  114OSM   H13F11925   0.332   0.540   9.557 -2.5402  1.1088  0.0192
  114OSM   H13G11926   0.197   0.422   9.540  0.2421  1.7106 -1.9246
  114OSM   C14F11927   0.352   0.408   9.393  0.1811  0.3929 -0.0465
  114OSM   H14F11928   0.459   0.376   9.390  0.2438  0.4681  1.1879
  114OSM   H14G11929   0.333   0.494   9.325 -0.1838  1.3907  1.2707
  114OSM   C15F11930   0.281   0.285   9.318  0.0952 -0.5347 -0.6475
  114OSM   H15F11931   0.173   0.309   9.313  0.1892  0.3446  0.8312
  114OSM   H15G11932   0.281   0.190   9.375  1.0604 -0.1149  0.0827
  114OSM   C16F11933   0.344   0.255   9.184 -0.0310  0.5045 -0.0200
  114OSM   H16F11934   0.316   0.155   9.144 -0.0311  0.2999  0.4712
  114OSM   H16G11935   0.455   0.247   9.188 -0.1243 -0.6471  0.8173
  114OSM   C17F11936   0.317   0.366   9.085  0.1023  0.1627 -0.0289
  114OSM   H17F11937   0.370   0.456   9.123  0.2750 -0.2300  0.6909
  114OSM   H17G11938   0.209   0.383   9.069  0.1939  0.3814 -0.4109
  114OSM   C18F11939   0.375   0.338   8.949 -0.0223 -0.7705 -0.5393
  114OSM   H18F11940   0.477   0.296   8.943  0.8074  1.2953 -1.9786
  114OSM   H18G11941   0.367   0.428   8.885  3.5311  0.7415  0.8806
  114OSM   H18H11942   0.312   0.262   8.898 -0.2393  0.1179 -1.6306
  115OSM      N11943   4.858   0.570   6.263  0.1905  1.0975  0.8087
  115OSM    C1511944   4.916   0.445   6.191 -0.1574 -0.7914 -0.2958
  115OSM   H15A11945   5.020   0.439   6.221 -0.3630  1.4736  1.0846
  115OSM   H15B11946   4.903   0.456   6.084  0.0034 -1.3293 -0.3708
  115OSM   H15C11947   4.861   0.360   6.228 -1.4780  0.0977 -0.1502
  115OSM    C1411948   4.723   0.594   6.201 -0.0490 -0.3553 -0.2884
  115OSM   H14A11949   4.744   0.610   6.097  1.7530 -0.6203  0.0029
  115OSM   H14B11950   4.676   0.678   6.250  0.4252 -0.1418 -0.1962
  115OSM   H14C11951   4.655   0.512   6.219  0.7627 -1.1595 -0.7982
  115OSM    C1311952   4.842   0.534   6.409  0.4296  0.4057 -0.6116
  115OSM   H13A11953   4.744   0.490   6.416 -0.1653  1.9169  1.3699
  115OSM   H13B11954   4.838   0.625   6.467 -3.1336  0.4938 -0.7706
  115OSM   H13C11955   4.923   0.471   6.442 -0.2044 -1.0488 -1.7295
  115OSM    C1211956   4.961   0.679   6.253 -0.7849 -0.2392  0.1068
  115OSM   H12A11957   5.052   0.640   6.297 -0.4380 -1.0317 -1.2903
  115OSM   H12B11958   4.938   0.767   6.312  1.3648  0.4066  0.0952
  115OSM    C1111959   5.000   0.742   6.116  0.3240 -0.9184 -0.3675
  115OSM   H11A11960   5.057   0.668   6.056 -1.7624 -2.7895 -0.1530
  115OSM   H11B11961   5.077   0.819   6.135  0.2638 -0.3930 -2.0708
  115OSM      P11962   4.836   0.936   6.051  0.2374  0.1594 -0.1395
  115OSM    O1311963   4.898   1.023   5.950 -0.6176  0.3994  0.5146
  115OSM    O1411964   4.687   0.929   6.054 -0.1822  0.0732  0.3232
  115OSM    O1111965   4.885   0.970   6.194  0.2441 -0.0948  0.2533
  115OSM    O1211966   4.891   0.792   6.039  0.6483  0.4505  0.0823
  115OSM    C1S11967   4.812   0.969   6.317 -0.0634  0.5151  0.5087
  115OSM    H1S11968   4.794   0.862   6.341  1.4658  0.3522  1.0300
  115OSM    H1T11969   4.717   1.026   6.306 -0.6012 -0.8070 -3.3110
  115OSM     NF11970   4.817   0.998   6.560 -0.2573 -0.7212 -0.1793
  115OSM    HNF11971   4.776   1.075   6.608 -1.4139 -1.7694  0.5588
  115OSM    C2S11972   4.901   1.014   6.437  0.8745  0.0856 -0.1334
  115OSM    H2S11973   4.993   0.951   6.447  0.7955 -0.2696 -1.5426
  115OSM    C3S11974   4.950   1.155   6.417 -0.0399 -0.3893 -0.4156
  115OSM    H3S11975   4.859   1.216   6.398 -1.3287 -1.5193  1.6773
  115OSM     O311976   5.040   1.171   6.306 -0.6541  0.2493 -0.2812
  115OSM    HO311977   5.007   1.107   6.242 -1.1362 -0.8260  1.0082
  115OSM    C4S11978   5.013   1.208   6.544 -0.4012  0.6611 -0.5868
  115OSM    H4S11979   4.958   1.294   6.583 -0.3046  0.9067 -0.9889
  115OSM    C5S11980   5.131   1.169   6.595  0.0118  0.3974  0.5771
  115OSM    H5S11981   5.179   1.085   6.543 -0.8474  0.3890 -0.2264
  115OSM    C6S11982   5.194   1.228   6.712 -0.1800 -0.2389 -0.1476
  115OSM    H6S11983   5.291   1.271   6.680  0.0902 -1.9459 -1.8220
  115OSM    H6T11984   5.227   1.144   6.775 -1.3102 -1.2546 -0.8736
  115OSM    C7S11985   5.117   1.341   6.784 -0.1205 -0.4765 -0.2551
  115OSM    H7S11986   5.020   1.302   6.823 -0.0337 -1.0479 -0.5957
  115OSM    H7T11987   5.097   1.434   6.726  1.6208  1.9152  2.7072
  115OSM    C8S11988   5.188   1.409   6.902  0.3362 -0.2209  0.2464
  115OSM    H8S11989   5.112   1.481   6.941  0.2540 -0.4190  0.4558
  115OSM    H8T11990   5.273   1.467   6.860 -1.2348  1.2710 -1.0514
  115OSM    C9S11991   5.233   1.319   7.017 -0.0455  0.0842  0.2420
  115OSM    H9S11992   5.297   1.235   6.981 -3.4899 -3.0907  0.8872
  115OSM    H9T11993   5.138   1.277   7.057  0.2454 -0.1544  0.7014
  115OSM   C10S11994   5.305   1.398   7.123  0.4874  0.1410  0.1125
  115OSM   H10S11995   5.247   1.489   7.148  1.2809  1.0712 -1.3336
  115OSM   H10T11996   5.394   1.449   7.082  0.7248 -0.5512 -0.2444
  115OSM   C11S11997   5.336   1.318   7.252  0.3013 -0.0669  0.1314
  115OSM   H11S11998   5.418   1.370   7.307 -1.3145  0.3531  2.2730
  115OSM   H11T11999   5.386   1.220   7.236  1.7962  0.7686 -0.5831
  115OSM   C12S12000   5.212   1.294   7.345 -0.2783 -0.5720  0.2827
  115OSM   H12S12001   5.150   1.211   7.305  1.5232 -1.7542 -0.2105
  115OSM   H12T12002   5.151   1.386   7.352 -3.7559 -2.6346 -0.2608
  115OSM   C13S12003   5.249   1.273   7.498 -0.6708  0.4980  0.6509
  115OSM   H13S12004   5.327   1.194   7.492 -2.4276 -1.2009 -0.8996
  115OSM   H13T12005   5.155   1.243   7.549 -0.1073 -1.3202  0.6832
  115OSM   C14S12006   5.297   1.403   7.575 -0.3429  0.3537  0.7059
  115OSM   H14S12007   5.218   1.481   7.564  1.8368  2.4079 -1.8073
  115OSM   H14T12008   5.388   1.425   7.515  0.0850  1.4553  1.7309
  115OSM   C15S12009   5.324   1.378   7.721  0.6100 -0.8682 -0.0090
  115OSM   H15S12010   5.366   1.475   7.758  0.4760 -0.1358 -1.7016
  115OSM   H15T12011   5.397   1.295   7.736 -1.4386 -2.5825  0.9089
  115OSM   C16S12012   5.195   1.344   7.799 -0.0861  0.5082 -0.8106
  115OSM   H16S12013   5.146   1.257   7.750  0.0824  1.2599 -2.3511
  115OSM   H16T12014   5.129   1.432   7.782 -0.8595  0.4714  1.5304
  115OSM   C17S12015   5.211   1.312   7.952 -0.0954 -0.3363  0.9068
  115OSM   H17S12016   5.277   1.395   7.985 -0.5465  0.4805 -0.1658
  115OSM   H17T12017   5.264   1.215   7.960  0.7965 -0.0098 -0.6276
  115OSM   C18S12018   5.078   1.314   8.023  0.1593 -0.6020  0.3248
  115OSM   H18S12019   5.021   1.408   8.004  0.4933 -0.1081  1.6793
  115OSM   H18T12020   5.102   1.291   8.129 -1.2187 -1.9056  0.3787
  115OSM   H18U12021   5.008   1.230   8.007 -0.8999  0.3163  0.0381
  115OSM    C1F12022   4.785   0.879   6.605  0.0988 -0.1978  0.5266
  115OSM     OF12023   4.857   0.790   6.572 -0.9029  1.0099 -0.8185
  115OSM    C2F12024   4.653   0.867   6.666  0.3363 -0.1677 -0.1684
  115OSM    H2F12025   4.604   0.769   6.649 -0.9213  0.1272  1.4535
  115OSM    H2G12026   4.593   0.947   6.618  0.7233  1.8366  2.4971
  115OSM    C3F12027   4.651   0.909   6.823  0.2425  0.4421  0.3670
  115OSM    H3F12028   4.667   1.019   6.829 -0.5194  0.7296 -1.8062
  115OSM    H3G12029   4.749   0.879   6.866  0.6459  4.7600  3.0324
  115OSM    C4F12030   4.527   0.873   6.897  0.2415 -0.1505  0.0283
  115OSM    H4F12031   4.516   0.762   6.900  1.3914 -0.2579  2.0898
  115OSM    H4G12032   4.440   0.911   6.840  0.9494  2.9095  0.8247
  115OSM    C5F12033   4.519   0.920   7.047  0.0818 -0.1999  0.1894
  115OSM    H5F12034   4.519   1.031   7.047  1.0734 -0.1880  0.2763
  115OSM    H5G12035   4.611   0.887   7.100 -0.0991 -1.7279 -0.3957
  115OSM    C6F12036   4.393   0.870   7.108  0.2305  0.0522  0.6339
  115OSM    H6F12037   4.395   0.761   7.086  0.4814  0.6584 -2.9309
  115OSM    H6G12038   4.302   0.912   7.060  1.3565  1.2009 -0.5757
  115OSM    C7F12039   4.377   0.892   7.259  0.4118 -0.2900  0.1843
  115OSM    H7F12040   4.354   1.000   7.273 -1.1204 -0.3947 -1.0897
  115OSM    H7G12041   4.469   0.869   7.315  0.3563  0.3928  0.5643
  115OSM    C8F12042   4.255   0.821   7.324 -1.0842  0.4257 -0.0618
  115OSM    H8F12043   4.168   0.881   7.289 -0.8316  2.2493  2.1635
  115OSM    H8G12044   4.259   0.855   7.430 -1.3205 -0.3965  0.2162
  115OSM    C9F12045   4.249   0.676   7.298  0.8814  0.8040 -0.4818
  115OSM    H9F12046   4.209   0.654   7.199  1.8565  1.5783 -1.0633
  115OSM   C10F12047   4.260   0.578   7.393 -0.1823  0.6479  0.0248
  115OSM   H10F12048   4.248   0.473   7.364  4.6908  0.3206 -1.6964
  115OSM   C11F12049   4.286   0.602   7.537  0.2689 -0.4951 -0.2251
  115OSM   H11F12050   4.232   0.529   7.600 -1.3900  2.1531  1.6042
  115OSM   H11G12051   4.261   0.706   7.565  0.0796 -1.4618  3.6652
  115OSM   C12F12052   4.432   0.586   7.571  0.5532  0.1425  0.3953
  115OSM   H12F12053   4.501   0.655   7.519  2.6192 -1.0236  1.4578
  115OSM   H12G12054   4.471   0.488   7.536 -1.8108 -0.1881 -1.5849
  115OSM   C13F12055   4.469   0.604   7.722  0.7089  0.7710 -0.3860
  115OSM   H13F12056   4.434   0.515   7.778  2.8957  0.0898  0.0157
  115OSM   H13G12057   4.428   0.703   7.752 -2.2714 -1.0223  2.0531
  115OSM   C14F12058   4.626   0.605   7.747  0.1271 -0.2313  0.0884
  115OSM   H14F12059   4.637   0.632   7.855 -0.2575 -0.0789  0.0908
  115OSM   H14G12060   4.674   0.674   7.675  1.9527 -3.0171 -1.5741
  115OSM   C15F12061   4.688   0.462   7.721  0.1113 -0.1647 -0.0657
  115OSM   H15F12062   4.689   0.433   7.614 -0.3504 -1.9197  0.3776
  115OSM   H15G12063   4.637   0.379   7.775 -0.0458  0.1711  0.3088
  115OSM   C16F12064   4.837   0.474   7.761 -0.2473  0.0513  0.2366
  115OSM   H16F12065   4.827   0.513   7.864  1.8890  1.6495 -0.0712
  115OSM   H16G12066   4.878   0.556   7.697 -0.1506  0.5607  0.9342
  115OSM   C17F12067   4.926   0.345   7.765 -0.2852 -0.1137 -0.0290
  115OSM   H17F12068   5.028   0.368   7.804 -0.1438  0.1414 -0.5436
  115OSM   H17G12069   4.943   0.315   7.660  1.3378 -0.3088  0.2586
  115OSM   C18F12070   4.865   0.227   7.831  0.5894  0.8784  0.1281
  115OSM   H18F12071   4.934   0.140   7.832 -0.0762  0.3503  0.5788
  115OSM   H18G12072   4.767   0.204   7.785 -1.0754 -1.1042  4.1677
  115OSM   H18H12073   4.840   0.249   7.937 -1.1646 -2.1682  0.4679
  116OSM      N12074   1.265   4.699   6.375  0.1266  0.0920  0.1790
  116OSM    C1512075   1.153   4.597   6.366 -0.4658  0.0760  0.1623
  116OSM   H15A12076   1.181   4.520   6.296 -0.7723 -0.2268  0.3714
  116OSM   H15B12077   1.061   4.644   6.335 -1.0754  0.4207  2.2776
  116OSM   H15C12078   1.138   4.546   6.460  1.4760 -0.1367  0.4079
  116OSM    C1412079   1.397   4.625   6.387 -0.0434 -0.0442 -0.3512
  116OSM   H14A12080   1.487   4.681   6.406 -0.4357  0.3528  0.4015
  116OSM   H14B12081   1.416   4.558   6.305  0.8120  1.7127 -1.6393
  116OSM   H14C12082   1.387   4.564   6.476 -1.0432  0.3411 -0.1875
  116OSM    C1312083   1.260   4.783   6.246 -0.3973  0.0623 -0.2204
  116OSM   H13A12084   1.171   4.844   6.240 -0.5144  0.0573  1.0755
  116OSM   H13B12085   1.272   4.716   6.162  0.1768  1.2865 -1.1444
  116OSM   H13C12086   1.343   4.851   6.246  1.3551 -1.9625  0.2920
  116OSM    C1212087   1.243   4.801   6.490 -0.5524  0.3547 -0.5512
  116OSM   H12A12088   1.224   4.743   6.579  3.5970 -0.4749 -0.0077
  116OSM   H12B12089   1.145   4.845   6.473 -1.8366 -2.0813  0.0266
  116OSM    C1112090   1.322   4.929   6.506  0.0285 -0.0150 -0.6156
  116OSM   H11A12091   1.431   4.905   6.501  0.5257  1.8742  0.2870
  116OSM   H11B12092   1.307   4.966   6.610  0.7042 -3.5842  0.9295
  116OSM      P12093   1.147   5.093   6.389 -0.3835 -0.4976  0.3788
  116OSM    O1312094   1.158   5.183   6.269  0.2928  0.3860 -0.8769
  116OSM    O1412095   1.043   4.989   6.383 -0.1992 -0.5076  0.3025
  116OSM    O1112096   1.121   5.183   6.517 -0.4169 -0.1064 -0.6538
  116OSM    O1212097   1.288   5.025   6.408 -0.1717 -0.6656  0.3021
  116OSM    C1S12098   1.221   5.281   6.550 -0.5395 -0.1344 -0.3452
  116OSM    H1S12099   1.220   5.364   6.476 -0.3115 -0.5111 -0.7793
  116OSM    H1T12100   1.322   5.239   6.531 -0.2421 -0.1602  1.1555
  116OSM     NF12101   1.304   5.448   6.716 -0.6904 -0.2302 -0.3225
  116OSM    HNF12102   1.393   5.437   6.759 -1.5558  0.3524  1.7916
  116OSM    C2S12103   1.215   5.330   6.699 -0.4645  0.1855 -0.3140
  116OSM    H2S12104   1.111   5.363   6.719 -0.0885  1.6765 -0.7340
  116OSM    C3S12105   1.230   5.223   6.810 -0.4667  0.0278  0.2941
  116OSM    H3S12106   1.335   5.187   6.805 -0.0697  1.2842 -1.4691
  116OSM     O312107   1.153   5.107   6.782 -0.1043  0.0979  0.2611
  116OSM    HO312108   1.113   5.127   6.697  0.3918 -0.1588 -0.0387
  116OSM    C4S12109   1.196   5.281   6.947  0.1364 -0.1035  0.0628
  116OSM    H4S12110   1.277   5.280   7.020 -0.6338  0.2349  0.9382
  116OSM    C5S12111   1.076   5.313   7.003  0.9623 -0.1894 -0.2254
  116OSM    H5S12112   0.979   5.313   6.951 -0.2764  0.3275  1.9638
  116OSM    C6S12113   1.060   5.369   7.146 -0.8413 -0.4493 -0.3680
  116OSM    H6S12114   0.962   5.337   7.188 -0.7593 -0.6476 -0.3273
  116OSM    H6T12115   1.047   5.479   7.150  1.5292 -0.1612  2.2273
  116OSM    C7S12116   1.173   5.336   7.248  0.4854  0.5908  0.6133
  116OSM    H7S12117   1.259   5.403   7.228  0.0119  0.3210 -3.0322
  116OSM    H7T12118   1.193   5.227   7.246  0.8487  0.6165 -2.4265
  116OSM    C8S12119   1.129   5.390   7.386 -0.0631  0.5152 -0.5559
  116OSM    H8S12120   1.037   5.336   7.420 -0.9986  0.8878 -2.3850
  116OSM    H8T12121   1.101   5.497   7.386 -1.8837  0.1921  2.5102
  116OSM    C9S12122   1.238   5.366   7.486 -0.0242 -0.3051  0.2690
  116OSM    H9S12123   1.330   5.423   7.462  0.3444 -0.6401  0.8804
  116OSM    H9T12124   1.266   5.260   7.498 -0.6664 -0.5066  0.0318
  116OSM   C10S12125   1.196   5.416   7.625  0.0330 -0.1287 -0.1779
  116OSM   H10S12126   1.111   5.354   7.661  1.1795 -1.5433  0.1468
  116OSM   H10T12127   1.153   5.518   7.637 -2.9918 -1.2696 -0.4149
  116OSM   C11S12128   1.315   5.401   7.723  0.1385  0.6355 -0.2708
  116OSM   H11S12129   1.378   5.492   7.724  3.2344 -1.3076 -2.2723
  116OSM   H11T12130   1.388   5.327   7.684 -1.1533 -0.8836  0.1121
  116OSM   C12S12131   1.268   5.374   7.870  0.1983  0.3242  0.4854
  116OSM   H12S12132   1.209   5.280   7.878 -1.5597  1.4532  1.6129
  116OSM   H12T12133   1.207   5.454   7.917  1.0071  1.4077 -0.2582
  116OSM   C13S12134   1.387   5.357   7.966 -0.5299  0.1274 -0.7016
  116OSM   H13S12135   1.432   5.457   7.986  0.4953 -1.0334  4.0294
  116OSM   H13T12136   1.460   5.283   7.926 -0.7600 -0.9238  0.7562
  116OSM   C14S12137   1.344   5.312   8.100 -0.5452  0.2611 -0.8141
  116OSM   H14S12138   1.432   5.297   8.166  1.2361 -0.5990 -3.2343
  116OSM   H14T12139   1.304   5.210   8.089  2.3119 -0.8671 -1.5880
  116OSM   C15S12140   1.233   5.393   8.176  0.0160  0.1112 -0.0887
  116OSM   H15S12141   1.134   5.384   8.127 -0.7139  1.1677  1.1235
  116OSM   H15T12142   1.241   5.504   8.176  0.0335  0.1294  1.1683
  116OSM   C16S12143   1.204   5.357   8.321 -0.8776  0.6639  0.2347
  116OSM   H16S12144   1.119   5.423   8.349 -2.0820 -0.1294 -1.4017
  116OSM   H16T12145   1.288   5.372   8.392 -0.3763 -1.5995  0.1967
  116OSM   C17S12146   1.170   5.214   8.332  0.1430  0.0286 -0.3605
  116OSM   H17S12147   1.256   5.150   8.307 -1.3376 -0.9174 -3.6048
  116OSM   H17T12148   1.116   5.176   8.242 -1.6275 -0.7584  0.9762
  116OSM   C18S12149   1.094   5.174   8.463  0.3766 -0.1687 -0.4817
  116OSM   H18S12150   1.153   5.203   8.552  1.4821 -0.4357 -1.1116
  116OSM   H18T12151   1.080   5.063   8.468 -0.2394 -0.1335 -1.1651
  116OSM   H18U12152   0.993   5.219   8.459 -0.0057 -1.0187 -0.8487
  116OSM    C1F12153   1.270   5.564   6.661  0.2621  0.2901 -0.1639
  116OSM     OF12154   1.159   5.583   6.622 -0.4186  0.3391  0.2843
  116OSM    C2F12155   1.377   5.667   6.646 -0.4919 -0.7585 -0.2652
  116OSM    H2F12156   1.381   5.720   6.549  1.6692  1.1007  0.7438
  116OSM    H2G12157   1.482   5.631   6.657  0.2695  1.9089  2.7755
  116OSM    C3F12158   1.358   5.790   6.742 -0.3200  0.6466  0.0425
  116OSM    H3F12159   1.248   5.807   6.742 -0.0627  2.5742 -0.4611
  116OSM    H3G12160   1.401   5.891   6.726 -0.3899  0.8487  1.0664
  116OSM    C4F12161   1.390   5.757   6.891  0.9784  0.2710  0.5309
  116OSM    H4F12162   1.498   5.769   6.909  0.8284  1.5260  0.6429
  116OSM    H4G12163   1.355   5.659   6.931 -0.6032  0.9252  0.8250
  116OSM    C5F12164   1.332   5.862   6.986  0.3837 -0.2208  0.3753
  116OSM    H5F12165   1.225   5.889   6.976  0.6827  0.3623 -1.5783
  116OSM    H5G12166   1.390   5.952   6.956  0.7283  0.0483  1.7791
  116OSM    C6F12167   1.373   5.829   7.132 -0.0574 -0.7388 -0.0894
  116OSM    H6F12168   1.482   5.814   7.149 -0.4745 -1.1590  2.6434
  116OSM    H6G12169   1.341   5.723   7.135 -0.3673 -0.6489  3.4303
  116OSM    C7F12170   1.296   5.906   7.245 -0.0372 -0.7720  0.5337
  116OSM    H7F12171   1.186   5.906   7.229 -0.1185  1.9020  0.7521
  116OSM    H7G12172   1.325   6.012   7.230 -0.4524 -0.8806 -1.3483
  116OSM    C8F12173   1.338   5.884   7.393 -0.3622  0.5104  0.2032
  116OSM    H8F12174   1.441   5.925   7.402 -0.5516  1.0217  0.0365
  116OSM    H8G12175   1.327   5.774   7.405  0.7592  0.5009  1.4431
  116OSM    C9F12176   1.248   5.952   7.492 -0.2798 -0.6278 -0.4301
  116OSM    H9F12177   1.192   6.037   7.450 -0.5753 -1.2879 -1.3993
  116OSM   C10F12178   1.246   5.920   7.623  0.4827  0.3236  0.2427
  116OSM   H10F12179   1.189   5.983   7.692 -2.7119 -0.2582 -1.6320
  116OSM   C11F12180   1.329   5.804   7.675 -0.0015  0.3473  0.3013
  116OSM   H11F12181   1.412   5.770   7.610  0.0478 -1.2456  1.1478
  116OSM   H11G12182   1.256   5.720   7.688 -2.1010  1.9094 -0.7924
  116OSM   C12F12183   1.400   5.837   7.807 -0.9824 -0.0688 -0.4073
  116OSM   H12F12184   1.459   5.930   7.792  0.5015 -0.5873  1.7129
  116OSM   H12G12185   1.478   5.759   7.820 -0.8041  0.1463 -0.1622
  116OSM   C13F12186   1.310   5.818   7.930  0.7150 -0.1841  0.6105
  116OSM   H13F12187   1.234   5.738   7.914  1.0215 -0.1311 -1.3913
  116OSM   H13G12188   1.251   5.912   7.941  0.4257 -0.4480  1.3192
  116OSM   C14F12189   1.371   5.790   8.068  0.1698 -0.1763  0.0190
  116OSM   H14F12190   1.383   5.680   8.077  3.4745 -0.0424 -1.4176
  116OSM   H14G12191   1.295   5.822   8.143 -2.1674 -2.2862 -1.2975
  116OSM   C15F12192   1.503   5.860   8.081  0.4228  0.2599  0.4318
  116OSM   H15F12193   1.490   5.962   8.038 -1.2174 -0.7642 -1.6893
  116OSM   H15G12194   1.581   5.810   8.020  0.2401  0.7668 -0.2289
  116OSM   C16F12195   1.561   5.865   8.228 -0.3776  0.5788  0.3121
  116OSM   H16F12196   1.491   5.925   8.290 -2.2430 -1.6716  0.4979
  116OSM   H16G12197   1.655   5.923   8.213 -0.3944  0.2843 -0.9813
  116OSM   C17F12198   1.592   5.720   8.290  0.5886 -0.3705 -0.2140
  116OSM   H17F12199   1.636   5.657   8.209 -2.5757 -3.0907 -0.0409
  116OSM   H17G12200   1.497   5.668   8.313 -0.6374  1.9128  0.2371
  116OSM   C18F12201   1.681   5.710   8.421 -0.5384 -0.7586  0.0045
  116OSM   H18F12202   1.630   5.769   8.501  2.6827 -0.6272  2.1384
  116OSM   H18G12203   1.782   5.754   8.410 -0.8510 -0.0826 -0.2482
  116OSM   H18H12204   1.683   5.604   8.452 -2.3674 -1.0140 -0.5814
  117OSM      N12205   3.904   5.898   6.083 -0.3268 -0.2314  0.4053
  117OSM    C1512206   3.844   5.865   5.949  0.3822  0.4622 -0.7997
  117OSM   H15A12207   3.872   5.772   5.901  1.3848  0.9679 -1.2225
  117OSM   H15B12208   3.866   5.942   5.876 -0.4230 -0.3111 -1.8924
  117OSM   H15C12209   3.737   5.863   5.962  0.3879 -2.8199 -0.3520
  117OSM    C1412210   3.827   6.011   6.147  0.2171  0.3931  0.0655
  117OSM   H14A12211   3.727   5.974   6.163  0.9173 -1.7947 -0.4221
  117OSM   H14B12212   3.827   6.093   6.076  1.1145  0.0476 -0.3518
  117OSM   H14C12213   3.868   6.046   6.241 -1.8327  1.5247  0.5949
  117OSM    C1312214   3.892   5.785   6.177 -0.0626 -0.2210 -0.5540
  117OSM   H13A12215   3.972   5.798   6.248 -0.2758 -1.9569  0.0587
  117OSM   H13B12216   3.919   5.687   6.140 -0.6489 -1.6423  2.4399
  117OSM   H13C12217   3.795   5.794   6.225 -0.7166 -0.4230 -1.7932
  117OSM    C1212218   4.047   5.943   6.069  0.4929  0.4010  0.1347
  117OSM   H12A12219   4.056   6.019   5.992 -0.0115 -2.1199 -2.6230
  117OSM   H12B12220   4.103   5.863   6.021  0.5363  0.0285  0.7958
  117OSM    C1112221   4.116   5.988   6.192 -0.0280 -0.1720 -0.6486
  117OSM   H11A12222   4.049   6.049   6.255  1.0630  1.5628 -1.0935
  117OSM   H11B12223   4.198   6.057   6.162 -0.6883  1.0467  0.2792
  117OSM      P12224   4.283   5.796   6.219 -0.0919 -0.2218  0.4577
  117OSM    O1312225   4.240   5.709   6.108  0.0137  0.2357 -0.5229
  117OSM    O1412226   4.384   5.899   6.180 -0.1578  0.3547  0.5519
  117OSM    O1112227   4.333   5.700   6.333  0.2572 -0.6532 -0.2051
  117OSM    O1212228   4.153   5.871   6.269  0.2352 -0.4364  0.1778
  117OSM    C1S12229   4.336   5.746   6.473  0.6212  0.1638  0.3965
  117OSM    H1S12230   4.236   5.788   6.499  2.0379  2.0674  3.2207
  117OSM    H1T12231   4.416   5.822   6.484  0.9610 -0.2298  0.7088
  117OSM     NF12232   4.391   5.692   6.710  0.8660 -0.5042 -0.6179
  117OSM    HNF12233   4.481   5.730   6.734 -0.9387  1.9372  3.3286
  117OSM    C2S12234   4.366   5.638   6.580 -0.5880 -0.3916 -0.4129
  117OSM    H2S12235   4.273   5.580   6.598 -0.0618 -0.4068  3.1109
  117OSM    C3S12236   4.496   5.549   6.529 -0.0265  0.2452  0.6666
  117OSM    H3S12237   4.585   5.613   6.513  0.7221 -1.0016 -0.3476
  117OSM     O312238   4.468   5.492   6.394  0.1370  0.2679 -0.2831
  117OSM    HO312239   4.388   5.537   6.365  0.7391  0.6435 -1.4486
  117OSM    C4S12240   4.533   5.445   6.626  0.3487  0.2573 -0.3056
  117OSM    H4S12241   4.604   5.487   6.699 -0.8878  1.3250  0.3267
  117OSM    C5S12242   4.533   5.308   6.617 -0.2233  0.1033 -0.2228
  117OSM    H5S12243   4.498   5.251   6.530  1.3630 -2.6255  0.7914
  117OSM    C6S12244   4.594   5.213   6.716 -1.1758 -0.1860 -0.2626
  117OSM    H6S12245   4.692   5.179   6.674 -0.1723  2.7449 -0.5454
  117OSM    H6T12246   4.540   5.120   6.742 -0.0672 -0.2066  2.3520
  117OSM    C7S12247   4.635   5.287   6.840  0.0225 -0.1889 -0.2304
  117OSM    H7S12248   4.549   5.339   6.889  0.7803  0.6517  0.2535
  117OSM    H7T12249   4.712   5.364   6.818 -0.2178  0.0497 -0.2432
  117OSM    C8S12250   4.687   5.197   6.964  0.6680  0.5993  1.3501
  117OSM    H8S12251   4.790   5.161   6.941 -1.0029 -3.2299 -0.9830
  117OSM    H8T12252   4.625   5.105   6.965  2.3423 -0.6182 -0.2005
  117OSM    C9S12253   4.663   5.258   7.106 -1.1781 -0.2173  0.6883
  117OSM    H9S12254   4.561   5.301   7.120 -1.1469 -0.8022  3.0525
  117OSM    H9T12255   4.739   5.333   7.135 -0.1696 -1.2653  0.7967
  117OSM   C10S12256   4.656   5.146   7.222  0.3802 -0.7458 -0.3975
  117OSM   H10S12257   4.739   5.074   7.207  0.1494 -1.1637  0.2690
  117OSM   H10T12258   4.566   5.081   7.222 -0.5306  0.3471  2.3490
  117OSM   C11S12259   4.670   5.201   7.368  0.5277 -0.6035  0.2170
  117OSM   H11S12260   4.591   5.275   7.390  0.6302 -0.7693  1.1764
  117OSM   H11T12261   4.757   5.269   7.379 -0.5310  0.5668  1.7222
  117OSM   C12S12262   4.682   5.081   7.467 -0.2155 -0.3909 -0.1151
  117OSM   H12S12263   4.790   5.054   7.466  0.0207  0.3476 -2.5354
  117OSM   H12T12264   4.623   4.995   7.430 -0.9381  0.3623 -0.7875
  117OSM   C13S12265   4.637   5.109   7.614  0.1455 -0.1229  0.3184
  117OSM   H13S12266   4.629   5.013   7.669  1.1290 -1.1328 -1.2264
  117OSM   H13T12267   4.536   5.153   7.625  0.3260  0.2805  0.3741
  117OSM   C14S12268   4.726   5.205   7.688 -0.2149 -0.7338 -0.2003
  117OSM   H14S12269   4.675   5.219   7.785  1.0620 -0.8857  0.5135
  117OSM   H14T12270   4.733   5.300   7.631 -1.3320 -0.2272  0.4707
  117OSM   C15S12271   4.867   5.144   7.703 -0.6675 -0.3482  0.4671
  117OSM   H15S12272   4.907   5.126   7.601 -2.0495  1.8167 -0.5375
  117OSM   H15T12273   4.857   5.044   7.750 -0.7537 -0.6997 -0.2736
  117OSM   C16S12274   4.963   5.229   7.781  0.1475 -0.4631 -0.3495
  117OSM   H16S12275   4.970   5.328   7.731  4.1073  0.5923  1.8402
  117OSM   H16T12276   5.068   5.193   7.775  0.2835 -0.4233  1.3666
  117OSM   C17S12277   4.933   5.233   7.935 -0.0020  0.0467 -0.0176
  117OSM   H17S12278   4.822   5.228   7.947 -0.1927  1.5468 -0.8841
  117OSM   H17T12279   4.968   5.323   7.989  1.2171  0.1804 -0.9823
  117OSM   C18S12280   4.988   5.107   7.995  0.3424 -0.6461 -0.3312
  117OSM   H18S12281   5.097   5.110   8.020  0.3094  3.3367 -0.0210
  117OSM   H18T12282   4.967   5.014   7.939 -0.5760 -0.5073 -0.2354
  117OSM   H18U12283   4.938   5.086   8.092  0.9310  0.0552  0.1427
  117OSM    C1F12284   4.295   5.738   6.783  0.3926  0.0344 -0.0178
  117OSM     OF12285   4.180   5.717   6.750  0.0008 -0.3023 -0.5608
  117OSM    C2F12286   4.335   5.814   6.908  0.4353  0.5625 -0.0467
  117OSM    H2F12287   4.364   5.917   6.878 -0.7161  1.3893  1.5274
  117OSM    H2G12288   4.421   5.761   6.954  1.2861 -1.2726 -3.4577
  117OSM    C3F12289   4.224   5.829   7.009  0.7796 -0.2794  0.5955
  117OSM    H3F12290   4.139   5.885   6.964  0.6624  0.0417  1.2141
  117OSM    H3G12291   4.256   5.889   7.096 -0.0967 -1.3935  1.7398
  117OSM    C4F12292   4.180   5.697   7.074 -0.4383 -0.4510 -0.3111
  117OSM    H4F12293   4.264   5.625   7.085 -2.8803 -3.4833 -0.0904
  117OSM    H4G12294   4.108   5.647   7.006 -1.4012 -0.9629  1.0325
  117OSM    C5F12295   4.110   5.715   7.211 -0.0026  0.1276 -0.2033
  117OSM    H5F12296   4.074   5.613   7.237 -0.7954  0.0812 -1.4107
  117OSM    H5G12297   4.019   5.778   7.213 -0.1614 -0.0556 -1.1419
  117OSM    C6F12298   4.206   5.770   7.322 -0.1719  0.3871 -0.2982
  117OSM    H6F12299   4.253   5.865   7.290 -1.0366  0.7046 -0.6514
  117OSM    H6G12300   4.293   5.701   7.318 -0.0081  0.5056  1.0077
  117OSM    C7F12301   4.139   5.752   7.458  0.1576 -0.0683  0.4213
  117OSM    H7F12302   4.080   5.658   7.452 -0.5417  0.4034 -0.2588
  117OSM    H7G12303   4.077   5.842   7.477  1.4050  1.0365 -0.5671
  117OSM    C8F12304   4.236   5.730   7.565 -0.5273  0.1374  0.1450
  117OSM    H8F12305   4.295   5.639   7.543 -2.9913 -1.5295  0.0999
  117OSM    H8G12306   4.174   5.716   7.656 -1.0838  0.4887 -0.1709
  117OSM    C9F12307   4.336   5.847   7.580 -0.2113  0.3019  0.7747
  117OSM    H9F12308   4.383   5.885   7.488  0.6799  1.7703  1.7875
  117OSM   C10F12309   4.362   5.920   7.685  0.7910 -0.4036 -0.5967
  117OSM   H10F12310   4.431   6.006   7.678 -0.4155  0.7117  0.6252
  117OSM   C11F12311   4.308   5.901   7.827 -0.0699  0.3420 -0.5559
  117OSM   H11F12312   4.269   5.798   7.841  1.7038 -0.0991  1.6805
  117OSM   H11G12313   4.230   5.972   7.863 -1.2387 -1.2688  0.2112
  117OSM   C12F12314   4.420   5.910   7.933  0.5261 -0.1830  0.0173
  117OSM   H12F12315   4.489   5.996   7.918 -0.3408  0.6110  0.4037
  117OSM   H12G12316   4.481   5.818   7.927  1.0801  0.1766  0.0629
  117OSM   C13F12317   4.369   5.919   8.082  0.3002  0.1942 -0.0023
  117OSM   H13F12318   4.441   5.887   8.160  2.6600  0.7160 -1.8172
  117OSM   H13G12319   4.272   5.866   8.091 -0.1993  0.8300 -1.2665
  117OSM   C14F12320   4.323   6.064   8.121 -0.2677 -0.1882  0.1455
  117OSM   H14F12321   4.221   6.073   8.078 -0.5976 -0.7251  0.7906
  117OSM   H14G12322   4.396   6.134   8.076 -1.0228 -0.8388 -2.2171
  117OSM   C15F12323   4.315   6.089   8.279 -1.0780  0.1273 -0.5960
  117OSM   H15F12324   4.419   6.091   8.318 -1.0112  0.8035 -0.7830
  117OSM   H15G12325   4.258   6.003   8.320 -2.6430  1.8801  1.1012
  117OSM   C16F12326   4.236   6.221   8.317  0.5847  0.3816  0.2383
  117OSM   H16F12327   4.237   6.237   8.427 -0.8447 -1.0961  0.4938
  117OSM   H16G12328   4.137   6.202   8.272  1.8672  0.5722 -2.8890
  117OSM   C17F12329   4.295   6.353   8.260  0.0938 -0.2515  0.1661
  117OSM   H17F12330   4.276   6.347   8.151 -2.6334  0.2251  0.5406
  117OSM   H17G12331   4.237   6.438   8.302 -2.5525 -0.0735 -3.3733
  117OSM   C18F12332   4.447   6.375   8.290 -0.3442 -0.2539 -0.1423
  117OSM   H18F12333   4.468   6.360   8.398  3.1585 -3.3855 -1.0592
  117OSM   H18G12334   4.480   6.471   8.246 -1.3037  1.6428  2.9070
  117OSM   H18H12335   4.502   6.292   8.241  0.4136  0.6526 -0.8654
  118OSM      N12336   4.935   5.358   5.968 -0.7923 -0.0209 -0.1259
  118OSM    C1512337   4.795   5.315   6.009 -0.2620 -1.0269 -0.8922
  118OSM   H15A12338   4.753   5.229   5.959 -0.1234 -1.5092 -0.1838
  118OSM   H15B12339   4.728   5.400   5.998  2.0083  0.8011 -1.5558
  118OSM   H15C12340   4.798   5.299   6.115  1.0141  2.5982 -0.2278
  118OSM    C1412341   5.012   5.236   5.935  0.0218  1.0223  0.1920
  118OSM   H14A12342   4.978   5.195   5.841 -0.7660  1.3365  0.3325
  118OSM   H14B12343   5.014   5.154   6.006 -1.0652 -1.6544 -2.6018
  118OSM   H14C12344   5.114   5.268   5.919  0.9331 -0.0337  3.1241
  118OSM    C1312345   4.929   5.440   5.838  0.7609  0.3781 -1.0231
  118OSM   H13A12346   4.860   5.406   5.762 -1.6393  3.0867 -0.2279
  118OSM   H13B12347   5.028   5.451   5.796  1.3727 -0.4227  0.1625
  118OSM   H13C12348   4.891   5.539   5.861 -0.9491 -0.6215  0.7382
  118OSM    C1212349   5.010   5.428   6.082 -0.4541  0.0779 -0.0924
  118OSM   H12A12350   5.032   5.350   6.154  1.2528  0.1149 -0.5386
  118OSM   H12B12351   4.941   5.500   6.123  0.7577  1.0247  0.3586
  118OSM    C1112352   5.142   5.503   6.038  0.1308  0.6181  0.4981
  118OSM   H11A12353   5.192   5.544   6.129  1.1001 -0.1445  0.3216
  118OSM   H11B12354   5.117   5.592   5.976 -3.1544 -0.7653 -0.3688
  118OSM      P12355   5.350   5.351   6.049 -0.1323  0.0556 -0.1004
  118OSM    O1312356   5.416   5.243   5.973 -0.5330  0.3703 -0.2836
  118OSM    O1412357   5.435   5.457   6.102  0.1768 -0.7086 -0.3737
  118OSM    O1112358   5.269   5.284   6.168  0.2577  0.1807 -0.7687
  118OSM    O1212359   5.237   5.420   5.971  0.0591 -0.3536  0.2851
  118OSM    C1S12360   5.324   5.211   6.279  0.2123  0.2313  0.1111
  118OSM    H1S12361   5.402   5.272   6.329  0.1773  0.4890 -0.1441
  118OSM    H1T12362   5.359   5.112   6.242 -1.9848 -0.2966 -0.7227
  118OSM     NF12363   5.276   5.149   6.510  0.2935  0.5756  0.4276
  118OSM    HNF12364   5.323   5.063   6.531  0.3397  0.9226  1.8733
  118OSM    C2S12365   5.214   5.169   6.379 -0.3506  0.5129 -0.2883
  118OSM    H2S12366   5.142   5.251   6.399  0.0774  0.5188  1.3530
  118OSM    C3S12367   5.130   5.046   6.320 -0.2476  0.2014  0.2307
  118OSM    H3S12368   5.200   4.967   6.286 -0.3544 -1.0334  2.6631
  118OSM     O312369   5.054   5.085   6.201 -0.0865 -0.4383  0.1064
  118OSM    HO312370   5.109   5.159   6.176 -2.2052  1.0758 -0.3562
  118OSM    C4S12371   5.031   4.991   6.410 -0.5601  0.1425 -0.2512
  118OSM    H4S12372   4.952   5.062   6.439 -0.1621  0.6441 -0.3789
  118OSM    C5S12373   5.028   4.864   6.446  0.7137  0.4526 -0.0934
  118OSM    H5S12374   5.111   4.802   6.407  0.2745  1.2287 -2.3919
  118OSM    C6S12375   4.925   4.800   6.543  0.2637  0.3550 -0.0450
  118OSM    H6S12376   4.871   4.723   6.483  0.6003 -0.7937  1.0782
  118OSM    H6T12377   4.849   4.871   6.579  0.4886  0.1540  0.8505
  118OSM    C7S12378   4.998   4.731   6.664 -0.0985 -0.0565  0.7198
  118OSM    H7S12379   5.066   4.649   6.635 -1.6515 -1.2955  0.4125
  118OSM    H7T12380   4.908   4.681   6.706 -0.3159 -1.6265 -1.4206
  118OSM    C8S12381   5.080   4.819   6.757  0.2279 -0.0139  0.3554
  118OSM    H8S12382   5.022   4.912   6.775  0.9146 -0.0378  3.2116
  118OSM    H8T12383   5.181   4.836   6.713 -0.3540  1.7442 -0.4088
  118OSM    C9S12384   5.094   4.752   6.895  0.7191 -0.4425  1.1175
  118OSM    H9S12385   5.129   4.647   6.879 -0.8302 -0.7313 -0.6823
  118OSM    H9T12386   4.997   4.741   6.948 -1.6503  1.2543 -2.5314
  118OSM   C10S12387   5.186   4.821   6.981 -0.8239 -0.7368 -0.3723
  118OSM   H10S12388   5.146   4.923   6.998 -1.4841 -1.2122  1.1373
  118OSM   H10T12389   5.286   4.834   6.935 -0.0681  1.1162  1.6208
  118OSM   C11S12390   5.223   4.741   7.102 -0.2746 -0.3894  0.1413
  118OSM   H11S12391   5.247   4.638   7.068 -0.9206 -0.8856  1.1295
  118OSM   H11T12392   5.139   4.744   7.175  0.2706 -0.6161  0.7791
  118OSM   C12S12393   5.353   4.785   7.164 -0.3719  0.0188 -0.5842
  118OSM   H12S12394   5.338   4.888   7.203  2.6412  0.8388 -1.2947
  118OSM   H12T12395   5.444   4.805   7.103  0.0297 -0.4257 -0.1410
  118OSM   C13S12396   5.385   4.698   7.284 -0.5488 -0.0997  0.4564
  118OSM   H13S12397   5.424   4.608   7.232 -2.2613  0.6519 -2.3540
  118OSM   H13T12398   5.291   4.673   7.338 -0.0114 -0.1278  1.4108
  118OSM   C14S12399   5.481   4.769   7.379  0.9343 -0.3823  0.7518
  118OSM   H14S12400   5.430   4.861   7.412 -0.2277 -0.6481 -0.2074
  118OSM   H14T12401   5.571   4.805   7.325 -0.0505  2.5185  0.9074
  118OSM   C15S12402   5.527   4.678   7.492  0.0439  0.3823  0.0249
  118OSM   H15S12403   5.585   4.593   7.450  1.0350  1.3803 -0.6758
  118OSM   H15T12404   5.455   4.624   7.557  0.5080  2.0510  2.0322
  118OSM   C16S12405   5.625   4.740   7.589 -0.0591 -0.3196  0.0148
  118OSM   H16S12406   5.581   4.816   7.656  2.1169  0.6590  0.4155
  118OSM   H16T12407   5.714   4.786   7.540  0.1358 -1.8542 -1.1861
  118OSM   C17S12408   5.678   4.626   7.680 -0.4898  0.3379  0.2502
  118OSM   H17S12409   5.695   4.536   7.618  1.2034  1.4128 -0.9366
  118OSM   H17T12410   5.589   4.607   7.745 -0.5035 -0.1954  0.0762
  118OSM   C18S12411   5.805   4.661   7.750 -0.2461  0.0092 -0.2018
  118OSM   H18S12412   5.887   4.675   7.676 -0.7570 -0.6692 -0.9072
  118OSM   H18T12413   5.832   4.580   7.820 -0.3829 -0.5785 -0.8184
  118OSM   H18U12414   5.812   4.756   7.808 -2.9074 -0.8484  1.7360
  118OSM    C1F12415   5.310   5.243   6.594 -0.2996 -0.3464 -0.2096
  118OSM     OF12416   5.275   5.357   6.575  0.1105 -0.2169 -0.1605
  118OSM    C2F12417   5.385   5.205   6.716 -0.4955  0.1519  0.3693
  118OSM    H2F12418   5.471   5.139   6.692  0.7799  0.8494  2.7238
  118OSM    H2G12419   5.330   5.127   6.774  0.9018 -1.0042  0.1812
  118OSM    C3F12420   5.444   5.317   6.815 -0.0091  0.3665  0.3556
  118OSM    H3F12421   5.362   5.369   6.868  0.3437  0.5717  0.7068
  118OSM    H3G12422   5.481   5.397   6.746  0.9035 -0.7216 -0.4547
  118OSM    C4F12423   5.558   5.269   6.904  0.3105 -0.0532 -0.0622
  118OSM    H4F12424   5.627   5.351   6.933 -1.1225  1.2958 -0.3162
  118OSM    H4G12425   5.621   5.189   6.859  1.2856 -0.3547  1.7654
  118OSM    C5F12426   5.512   5.220   7.042  0.4690  0.0994 -0.1764
  118OSM    H5F12427   5.440   5.138   7.022  0.1202  0.7951 -1.9835
  118OSM    H5G12428   5.458   5.312   7.072 -0.1990 -0.3271 -0.0456
  118OSM    C6F12429   5.614   5.205   7.158  0.0112 -1.0205 -0.0968
  118OSM    H6F12430   5.569   5.155   7.247  1.5704  0.4789  1.6410
  118OSM    H6G12431   5.645   5.307   7.186 -0.3714 -0.8583 -0.2554
  118OSM    C7F12432   5.734   5.104   7.127  0.1365 -0.0888 -0.2524
  118OSM    H7F12433   5.765   5.159   7.035  0.0148  0.0551 -0.2080
  118OSM    H7G12434   5.698   5.003   7.098  3.8225 -1.4515 -0.6399
  118OSM    C8F12435   5.858   5.107   7.219  0.0356 -0.2114 -0.4440
  118OSM    H8F12436   5.854   5.214   7.247 -0.0227 -0.3935  0.2689
  118OSM    H8G12437   5.950   5.083   7.162  0.2428 -1.6623  0.4546
  118OSM    C9F12438   5.844   5.015   7.332  0.8113 -0.4781  0.1740
  118OSM    H9F12439   5.790   4.923   7.306 -0.7836 -0.3002  2.5581
  118OSM   C10F12440   5.874   5.041   7.458 -0.6535 -0.6537 -0.0347
  118OSM   H10F12441   5.873   4.947   7.515 -0.0816 -1.7711 -1.7874
  118OSM   C11F12442   5.943   5.150   7.532 -0.4549 -0.7639 -0.5504
  118OSM   H11F12443   5.899   5.150   7.633  0.4077 -4.0363 -0.0849
  118OSM   H11G12444   5.919   5.252   7.493 -0.7909  0.1150  1.8074
  118OSM   C12F12445   6.097   5.144   7.545 -0.6392 -0.1380  0.8917
  118OSM   H12F12446   6.127   5.245   7.582  0.3939  1.1454 -2.9462
  118OSM   H12G12447   6.141   5.134   7.443  0.4636 -0.1942  1.3596
  118OSM   C13F12448   6.154   5.038   7.637 -0.0631  0.2588 -0.2812
  118OSM   H13F12449   6.265   5.037   7.635 -0.0292  1.1702  0.3820
  118OSM   H13G12450   6.118   4.943   7.593 -1.1923 -0.2203  1.5545
  118OSM   C14F12451   6.111   5.048   7.788 -0.2767 -0.4605  0.1104
  118OSM   H14F12452   6.004   5.080   7.794 -0.3918 -0.3217 -2.1347
  118OSM   H14G12453   6.174   5.129   7.828  0.1017  0.1174 -1.5933
  118OSM   C15F12454   6.129   4.921   7.860 -0.1177  0.6005 -0.0510
  118OSM   H15F12455   6.235   4.895   7.840 -0.9633 -0.6980 -3.7511
  118OSM   H15G12456   6.066   4.836   7.825 -0.0374  0.6271 -0.2599
  118OSM   C16F12457   6.112   4.942   8.009 -0.4709  0.3096  0.4141
  118OSM   H16F12458   6.100   4.843   8.059 -2.7539  0.4338  0.2022
  118OSM   H16G12459   6.016   4.998   8.012  1.0366  3.0585  1.1572
  118OSM   C17F12460   6.212   5.021   8.087  0.0712  0.0311 -0.3994
  118OSM   H17F12461   6.225   5.122   8.041 -2.3504  1.0132  0.9206
  118OSM   H17G12462   6.309   4.969   8.107 -0.8401 -2.0629 -1.1397
  118OSM   C18F12463   6.159   5.047   8.230 -0.1894  0.2709 -0.0566
  118OSM   H18F12464   6.240   5.090   8.291  0.6896  0.1666 -1.1186
  118OSM   H18G12465   6.118   4.956   8.279 -3.8557  0.9243 -1.5351
  118OSM   H18H12466   6.071   5.115   8.230 -1.7308 -1.6018  1.7880
  119OSM      N12467   0.702   3.118   5.775  0.1967  0.2137  1.0586
  119OSM    C1512468   0.694   3.169   5.635  0.0383 -0.2492  0.1700
  119OSM   H15A12469   0.726   3.093   5.565  0.0633 -0.8006  0.7810
  119OSM   H15B12470   0.756   3.256   5.618 -0.6591  0.1877 -0.2454
  119OSM   H15C12471   0.590   3.185   5.609  0.0806  1.4103  0.8938
  119OSM    C1412472   0.607   3.007   5.788  0.3842 -0.6038  0.0373
  119OSM   H14A12473   0.583   2.973   5.888  0.5482  1.3534  0.7873
  119OSM   H14B12474   0.641   2.921   5.733 -0.7171 -0.8906 -0.2100
  119OSM   H14C12475   0.511   3.036   5.748 -0.1360  2.2144  2.9131
  119OSM    C1312476   0.843   3.061   5.781 -0.2126 -0.0114 -0.2277
  119OSM   H13A12477   0.907   3.129   5.726 -0.5629 -0.2099 -0.9018
  119OSM   H13B12478   0.853   2.963   5.738 -4.5601 -0.7268 -0.0473
  119OSM   H13C12479   0.876   3.049   5.883  1.6965  1.4855 -0.6168
  119OSM    C1212480   0.682   3.240   5.876 -0.9659  0.0544 -0.9445
  119OSM   H12A12481   0.580   3.276   5.872 -0.8956  0.4239  0.1730
  119OSM   H12B12482   0.749   3.317   5.839  1.1058 -1.4285 -0.4780
  119OSM    C1112483   0.710   3.210   6.023 -0.2606  0.6646 -0.8249
  119OSM   H11A12484   0.644   3.126   6.055  0.0896  0.5994 -0.2390
  119OSM   H11B12485   0.691   3.292   6.096 -0.4136 -0.5821  0.6042
  119OSM      P12486   0.957   3.276   6.056  0.3457  0.1092  0.0609
  119OSM    O1312487   1.077   3.198   6.016 -0.6301 -0.5504  0.2013
  119OSM    O1412488   0.923   3.396   5.979 -0.0545  0.7843  0.2598
  119OSM    O1112489   0.958   3.309   6.206 -0.7882  0.0676 -0.0729
  119OSM    O1212490   0.843   3.172   6.041  0.0740  0.3587 -0.0854
  119OSM    C1S12491   0.931   3.211   6.315 -0.0287 -0.3232  0.0096
  119OSM    H1S12492   0.985   3.115   6.302 -0.4726 -0.8646  1.9219
  119OSM    H1T12493   0.822   3.192   6.316 -0.1078  0.1153 -0.0070
  119OSM     NF12494   0.896   3.161   6.551 -0.9557 -0.3010 -0.1901
  119OSM    HNF12495   0.801   3.187   6.566 -0.7359  0.6604 -0.3942
  119OSM    C2S12496   0.955   3.258   6.459 -0.7073  0.0891 -0.7840
  119OSM    H2S12497   1.058   3.280   6.494 -1.0234 -2.1675  1.9743
  119OSM    C3S12498   0.874   3.395   6.464 -0.0364  0.7213 -0.5388
  119OSM    H3S12499   0.769   3.370   6.435  0.1521 -0.6910 -0.0827
  119OSM     O312500   0.921   3.497   6.375 -0.3618 -0.4582 -0.2344
  119OSM    HO312501   0.974   3.452   6.309  2.4916  0.7172  1.0361
  119OSM    C4S12502   0.873   3.444   6.607  0.2890 -0.2032 -0.0697
  119OSM    H4S12503   0.942   3.388   6.671  0.1829 -0.4360 -0.1577
  119OSM    C5S12504   0.794   3.542   6.658  0.0350  0.5684  0.0635
  119OSM    H5S12505   0.721   3.600   6.600 -0.0101 -0.1227 -0.5982
  119OSM    C6S12506   0.792   3.603   6.793  0.2084 -0.2644  0.0322
  119OSM    H6S12507   0.692   3.583   6.837  0.6384 -2.1200  0.2137
  119OSM    H6T12508   0.796   3.714   6.782 -0.5333 -0.4427 -2.6191
  119OSM    C7S12509   0.895   3.562   6.897  0.8336  0.0276 -0.2085
  119OSM    H7S12510   0.992   3.601   6.858  1.0344  0.0806  0.3335
  119OSM    H7T12511   0.899   3.451   6.898 -2.5128 -0.2034  1.2547
  119OSM    C8S12512   0.854   3.621   7.031 -0.0552 -0.2276 -0.1255
  119OSM    H8S12513   0.780   3.553   7.077  2.7345 -1.4039  3.0365
  119OSM    H8T12514   0.814   3.725   7.022 -0.0442  0.1700  3.1587
  119OSM    C9S12515   0.968   3.627   7.139 -0.1151  0.0981 -0.2272
  119OSM    H9S12516   1.047   3.694   7.097 -0.9874  0.8411 -0.7131
  119OSM    H9T12517   1.014   3.529   7.160  0.6305  0.6492  0.8143
  119OSM   C10S12518   0.922   3.690   7.272 -0.4018  0.0127  0.3706
  119OSM   H10S12519   0.844   3.633   7.325  0.2593  0.1210  1.5075
  119OSM   H10T12520   0.876   3.790   7.257  1.2098  0.6849 -0.3069
  119OSM   C11S12521   1.043   3.712   7.362 -0.1964 -0.0532 -0.7508
  119OSM   H11S12522   1.116   3.780   7.313  1.4053 -0.6837  0.6581
  119OSM   H11T12523   1.089   3.613   7.381 -0.1220  0.3358  1.3327
  119OSM   C12S12524   1.016   3.777   7.500  0.7636 -0.2769 -1.3102
  119OSM   H12S12525   0.994   3.885   7.490 -1.6461 -0.6148 -0.3320
  119OSM   H12T12526   1.106   3.772   7.565 -0.5070 -1.1726  0.4655
  119OSM   C13S12527   0.908   3.698   7.589 -0.5098  0.4955 -0.1532
  119OSM   H13S12528   0.942   3.592   7.579  0.7982  0.8560  0.2297
  119OSM   H13T12529   0.808   3.707   7.541 -1.0772 -0.5774  0.7883
  119OSM   C14S12530   0.893   3.735   7.731  0.0542  0.1560  0.2126
  119OSM   H14S12531   0.824   3.661   7.778  0.9213 -0.0138  1.2475
  119OSM   H14T12532   0.839   3.831   7.747  0.2769  0.4084 -0.5360
  119OSM   C15S12533   1.025   3.731   7.816  1.0026  0.0460  0.6049
  119OSM   H15S12534   1.090   3.814   7.782 -0.6176  0.4104 -1.8410
  119OSM   H15T12535   1.084   3.645   7.777  0.7335  0.4926 -0.8447
  119OSM   C16S12536   0.996   3.716   7.965  0.1808  0.6578  0.1953
  119OSM   H16S12537   0.938   3.624   7.987  0.0492  0.9626  1.1914
  119OSM   H16T12538   0.937   3.804   7.998  0.7703  0.9884  0.3961
  119OSM   C17S12539   1.118   3.712   8.061 -0.3449  0.1496 -0.1846
  119OSM   H17S12540   1.166   3.812   8.062  0.2219 -0.0928  2.1720
  119OSM   H17T12541   1.195   3.652   8.007 -1.3215 -0.7424 -0.6197
  119OSM   C18S12542   1.094   3.667   8.203  0.5209  0.1480 -0.0316
  119OSM   H18S12543   1.013   3.732   8.243 -0.9117 -1.0066 -0.9630
  119OSM   H18T12544   1.191   3.674   8.258  0.8011  1.5897 -0.6667
  119OSM   H18U12545   1.057   3.563   8.194 -0.5736  0.2114  2.7776
  119OSM    C1F12546   0.961   3.049   6.585 -0.3751  0.1572 -0.1983
  119OSM     OF12547   1.058   3.010   6.517  0.0153 -0.0266  0.0445
  119OSM    C2F12548   0.927   2.976   6.706 -0.1038  0.8487  0.5054
  119OSM    H2F12549   0.831   2.931   6.674  0.5820 -0.5384  0.3198
  119OSM    H2G12550   0.895   3.051   6.782 -2.1081  0.9320 -0.3741
  119OSM    C3F12551   1.050   2.907   6.775 -0.0739 -0.4432  0.0234
  119OSM    H3F12552   1.111   2.990   6.818  0.0397  0.0138 -0.9928
  119OSM    H3G12553   1.098   2.853   6.691 -1.7491 -0.1422 -1.1879
  119OSM    C4F12554   1.025   2.811   6.896  0.0590 -0.1102  0.4068
  119OSM    H4F12555   0.941   2.743   6.871  0.3768 -0.2566 -0.2910
  119OSM    H4G12556   0.992   2.864   6.988 -0.8044 -2.3056  1.4322
  119OSM    C5F12557   1.144   2.717   6.934 -0.2019  0.2528 -0.6556
  119OSM    H5F12558   1.214   2.787   6.986 -0.5947 -0.2678  0.6103
  119OSM    H5G12559   1.191   2.668   6.846  0.9335  0.6554 -0.2988
  119OSM    C6F12560   1.115   2.600   7.040  0.4640  0.3885 -0.2837
  119OSM    H6F12561   1.211   2.547   7.057  0.7377 -0.3270 -3.3561
  119OSM    H6G12562   1.035   2.528   7.011 -0.9479 -0.3542  4.5815
  119OSM    C7F12563   1.075   2.664   7.173 -0.1298 -0.9341 -0.2192
  119OSM    H7F12564   0.968   2.693   7.163 -0.5229  0.0583  4.5260
  119OSM    H7G12565   1.139   2.753   7.186  2.0015 -2.2879 -0.8767
  119OSM    C8F12566   1.093   2.582   7.304 -0.0241  0.8151  0.0968
  119OSM    H8F12567   1.057   2.639   7.393 -1.3740 -0.7985  0.6449
  119OSM    H8G12568   1.202   2.579   7.321 -0.3853 -0.1185  2.7081
  119OSM    C9F12569   1.028   2.450   7.317  0.1384 -0.0881  0.5919
  119OSM    H9F12570   0.969   2.419   7.230  1.8451  0.3944 -0.8081
  119OSM   C10F12571   1.021   2.366   7.422  0.2834 -0.0074  0.2810
  119OSM   H10F12572   0.957   2.277   7.413 -0.9868  0.9284 -0.2556
  119OSM   C11F12573   1.089   2.383   7.560 -0.0846 -0.0858 -0.0218
  119OSM   H11F12574   1.115   2.490   7.573 -2.3403  0.5719 -0.5425
  119OSM   H11G12575   1.182   2.322   7.566 -0.2421 -0.3473 -0.1834
  119OSM   C12F12576   1.006   2.334   7.680 -0.0891 -0.0732 -0.1812
  119OSM   H12F12577   1.019   2.223   7.685 -1.2165 -0.2336 -0.5462
  119OSM   H12G12578   0.903   2.372   7.661 -0.9007 -1.6702  0.7207
  119OSM   C13F12579   1.053   2.392   7.816  0.3467 -0.5218  0.8509
  119OSM   H13F12580   1.056   2.503   7.809  1.3468 -0.5436  0.7362
  119OSM   H13G12581   1.162   2.371   7.826  1.0621  3.3604  3.6752
  119OSM   C14F12582   0.976   2.333   7.937 -0.8073  0.6447  0.1048
  119OSM   H14F12583   0.984   2.223   7.925  0.1398  0.8820 -1.7325
  119OSM   H14G12584   0.866   2.351   7.931 -1.0188 -0.9176 -1.5309
  119OSM   C15F12585   1.038   2.375   8.076  0.2023 -0.1628  0.4565
  119OSM   H15F12586   1.012   2.481   8.095 -1.0508 -0.0594 -1.5171
  119OSM   H15G12587   1.147   2.381   8.055  0.0003 -0.1383 -0.7014
  119OSM   C16F12588   1.014   2.292   8.200 -0.0727 -0.0844 -0.0446
  119OSM   H16F12589   0.907   2.314   8.222 -0.5647 -1.0556 -1.3909
  119OSM   H16G12590   1.087   2.333   8.273  0.9954  1.6392 -1.9900
  119OSM   C17F12591   1.041   2.139   8.189  0.1607  0.4467  0.0290
  119OSM   H17F12592   0.981   2.090   8.108  1.6181  1.2744 -1.6240
  119OSM   H17G12593   1.017   2.092   8.286  1.3276  0.5558  0.3726
  119OSM   C18F12594   1.186   2.107   8.160  0.2584  0.4418 -0.0185
  119OSM   H18F12595   1.206   1.998   8.156 -0.7958  0.2657 -1.3898
  119OSM   H18G12596   1.251   2.148   8.241 -0.1650 -1.0325  1.1226
  119OSM   H18H12597   1.220   2.154   8.065  0.8642 -1.9061 -1.0325
  120OSM      N12598   0.105   0.607   6.211  0.4000  0.1271  0.5684
  120OSM    C1512599   0.072   0.744   6.162  0.5346 -0.5056 -1.0484
  120OSM   H15A12600   0.165   0.795   6.142 -0.5381  1.3112 -1.7359
  120OSM   H15B12601   0.031   0.805   6.242  0.2520 -2.4467  0.3728
  120OSM   H15C12602   0.010   0.750   6.074 -2.5220 -2.2645  0.7714
  120OSM    C1412603  -0.016   0.532   6.232  0.1327 -0.0015 -0.2311
  120OSM   H14A12604  -0.000   0.428   6.255  0.1626 -0.1190 -0.7783
  120OSM   H14B12605  -0.080   0.524   6.145  0.3803  2.0053 -0.6476
  120OSM   H14C12606  -0.061   0.572   6.322  1.1790  0.2981  0.1731
  120OSM    C1312607   0.192   0.532   6.106 -0.4945 -0.1213  0.4499
  120OSM   H13A12608   0.138   0.499   6.018  0.6325 -0.2481 -0.2215
  120OSM   H13B12609   0.230   0.442   6.152 -0.3619 -1.2957 -1.8040
  120OSM   H13C12610   0.269   0.603   6.080 -0.7193 -0.7285 -2.1441
  120OSM    C1212611   0.177   0.615   6.341 -0.4402 -0.9795 -0.7931
  120OSM   H12A12612   0.207   0.516   6.370  2.5323 -0.0506 -0.3176
  120OSM   H12B12613   0.118   0.669   6.414  0.2467 -0.8454 -0.3240
  120OSM    C1112614   0.326   0.675   6.348  0.2806  0.1447 -0.7019
  120OSM   H11A12615   0.385   0.613   6.277 -0.0025 -0.8498 -0.0946
  120OSM   H11B12616   0.378   0.662   6.445 -0.1759 -0.3279 -0.5118
  120OSM      P12617   0.316   0.941   6.375 -0.2025  0.1036 -0.1889
  120OSM    O1312618   0.405   1.044   6.308 -0.1386 -0.0048  0.3986
  120OSM    O1412619   0.173   0.962   6.368 -0.2543 -0.4209  0.6637
  120OSM    O1112620   0.372   0.911   6.525 -0.2534  0.6869 -0.1088
  120OSM    O1212621   0.340   0.801   6.292  0.0052 -0.4849  0.2195
  120OSM    C1S12622   0.342   0.992   6.632 -0.5789 -0.4153 -1.1048
  120OSM    H1S12623   0.253   1.052   6.605 -1.3134 -1.1733 -0.4515
  120OSM    H1T12624   0.428   1.058   6.657 -0.8556  0.3867 -2.2054
  120OSM     NF12625   0.257   1.037   6.861 -0.4437  0.5462  0.1074
  120OSM    HNF12626   0.325   1.067   6.927  1.4893 -0.6001 -1.2802
  120OSM    C2S12627   0.291   0.930   6.771  0.2144  0.0322 -0.0382
  120OSM    H2S12628   0.198   0.874   6.746 -1.1246  1.9754  0.3160
  120OSM    C3S12629   0.396   0.841   6.827  0.3826  0.2013  0.0839
  120OSM    H3S12630   0.488   0.901   6.844 -1.0781  2.1232  1.7659
  120OSM     O312631   0.442   0.740   6.736  0.3419  0.5344  0.1760
  120OSM    HO312632   0.410   0.775   6.653 -0.0884  0.4563  0.3103
  120OSM    C4S12633   0.340   0.773   6.949 -0.9764 -0.5024  0.5837
  120OSM    H4S12634   0.241   0.727   6.936 -0.9137  0.1104 -3.0765
  120OSM    C5S12635   0.399   0.776   7.062 -0.0335  0.6139 -0.7035
  120OSM    H5S12636   0.495   0.830   7.063  0.9213 -1.0243  0.0317
  120OSM    C6S12637   0.351   0.702   7.183  0.9993 -0.3774 -0.5093
  120OSM    H6S12638   0.420   0.622   7.216  1.9140  0.7310  0.3823
  120OSM    H6T12639   0.255   0.649   7.164  1.2065  0.1493 -3.5200
  120OSM    C7S12640   0.346   0.796   7.306  0.7888  0.5906 -0.7348
  120OSM    H7S12641   0.275   0.879   7.286  1.6365  1.2139 -1.2086
  120OSM    H7T12642   0.450   0.832   7.320  0.4529  0.7302  1.8979
  120OSM    C8S12643   0.305   0.704   7.425 -0.4056  0.0486 -0.1466
  120OSM    H8S12644   0.337   0.757   7.517 -0.6143  0.0052 -0.0485
  120OSM    H8T12645   0.355   0.606   7.410 -0.7833 -0.1117 -0.3815
  120OSM    C9S12646   0.157   0.678   7.448  0.7654 -0.7077 -0.0512
  120OSM    H9S12647   0.098   0.638   7.362  0.2885 -2.5698  1.0766
  120OSM    H9T12648   0.123   0.779   7.479 -1.0721 -1.3788  0.1992
  120OSM   C10S12649   0.133   0.599   7.578 -0.3186 -0.0061 -0.0206
  120OSM   H10S12650   0.224   0.608   7.640  0.1213  0.4744 -0.7272
  120OSM   H10T12651   0.120   0.492   7.550  1.9896 -0.7987  1.6326
  120OSM   C11S12652   0.024   0.655   7.661  1.0685  0.6210 -0.5395
  120OSM   H11S12653  -0.071   0.640   7.605  0.5313 -2.5429  1.0123
  120OSM   H11T12654   0.050   0.762   7.676  1.1036  0.7752 -1.5919
  120OSM   C12S12655  -0.004   0.585   7.799  0.4190  0.3146 -0.2491
  120OSM   H12S12656   0.096   0.577   7.847  0.4601  0.0629 -0.3716
  120OSM   H12T12657  -0.032   0.479   7.780 -1.4329  1.0463 -2.0318
  120OSM   C13S12658  -0.108   0.655   7.886  0.6953  0.5611 -0.4837
  120OSM   H13S12659  -0.209   0.643   7.842  0.4654 -1.1784  0.4309
  120OSM   H13T12660  -0.083   0.763   7.880  2.8251  0.1049 -0.7885
  120OSM   C14S12661  -0.108   0.605   8.032 -0.9510 -0.2488  0.6172
  120OSM   H14S12662  -0.007   0.628   8.074 -0.6226 -0.0152 -0.2682
  120OSM   H14T12663  -0.122   0.495   8.034 -0.7061 -0.2954 -0.0932
  120OSM   C15S12664  -0.216   0.671   8.123  0.4253  0.4285  0.0567
  120OSM   H15S12665  -0.307   0.683   8.061 -0.2194  1.9003  1.2378
  120OSM   H15T12666  -0.188   0.776   8.143 -1.7347  0.6901  2.0705
  120OSM   C16S12667  -0.239   0.597   8.257 -0.1192  0.4064 -0.5091
  120OSM   H16S12668  -0.141   0.572   8.303 -0.8646 -1.7829  0.0157
  120OSM   H16T12669  -0.295   0.504   8.233 -1.6449  1.2798 -0.4741
  120OSM   C17S12670  -0.313   0.685   8.361  0.3162  0.3210  0.6541
  120OSM   H17S12671  -0.251   0.778   8.363 -0.3950  1.0727 -3.3762
  120OSM   H17T12672  -0.310   0.630   8.458 -0.2680 -1.1879 -0.1511
  120OSM   C18S12673  -0.458   0.716   8.317 -0.2620 -0.0254  0.6013
  120OSM   H18S12674  -0.528   0.632   8.337 -0.9089 -0.1167 -1.7034
  120OSM   H18T12675  -0.477   0.734   8.209  0.8890 -2.9668 -0.1977
  120OSM   H18U12676  -0.500   0.801   8.375  2.1523  2.5136 -1.0998
  120OSM    C1F12677   0.139   1.105   6.843  0.4309  0.2500 -0.3155
  120OSM     OF12678   0.067   1.074   6.751 -0.2459  0.4150 -0.2549
  120OSM    C2F12679   0.112   1.222   6.937 -0.9113  0.5306 -0.2728
  120OSM    H2F12680   0.003   1.235   6.926 -1.0743 -2.2901 -4.2936
  120OSM    H2G12681   0.157   1.315   6.895 -2.1348  1.3883  0.2749
  120OSM    C3F12682   0.148   1.195   7.087 -0.2496  0.1214  0.3380
  120OSM    H3F12683   0.125   1.281   7.153 -0.0674 -1.2949  2.3374
  120OSM    H3G12684   0.259   1.186   7.096  0.0162 -0.4833 -2.5654
  120OSM    C4F12685   0.085   1.068   7.148  0.8022 -0.4358 -1.0588
  120OSM    H4F12686   0.115   1.068   7.255 -0.6309  2.4450 -0.5796
  120OSM    H4G12687   0.128   0.979   7.096  1.1572 -2.3652  2.2616
  120OSM    C5F12688  -0.071   1.081   7.149 -0.5188 -0.8112  0.1712
  120OSM    H5F12689  -0.101   1.121   7.049  0.5189 -0.6739 -0.0940
  120OSM    H5G12690  -0.092   1.167   7.215 -0.0388  1.0978 -2.0387
  120OSM    C6F12691  -0.154   0.951   7.168  0.9578 -0.1414  0.1306
  120OSM    H6F12692  -0.115   0.894   7.081 -0.6516  1.6358 -1.8715
  120OSM    H6G12693  -0.260   0.979   7.155  1.0918 -0.0313 -0.7649
  120OSM    C7F12694  -0.133   0.886   7.312 -0.3632 -0.6068  0.4444
  120OSM    H7F12695  -0.027   0.901   7.341 -0.4887  0.5238  0.3644
  120OSM    H7G12696  -0.159   0.779   7.296  0.3406 -0.5360 -1.3766
  120OSM    C8F12697  -0.223   0.959   7.418  0.0061  0.3308  0.2220
  120OSM    H8F12698  -0.330   0.940   7.395  0.6716 -1.5539 -1.7110
  120OSM    H8G12699  -0.200   1.068   7.414 -1.9852  0.7622 -2.0501
  120OSM    C9F12700  -0.203   0.895   7.550 -0.2367 -0.4334  0.1497
  120OSM    H9F12701  -0.206   0.785   7.555 -0.4689 -0.5001 -1.1627
  120OSM   C10F12702  -0.200   0.954   7.672 -0.4547  0.9863  0.1976
  120OSM   H10F12703  -0.188   0.888   7.759 -1.6531 -0.3599 -0.6099
  120OSM   C11F12704  -0.218   1.096   7.713  0.4425 -0.4103 -0.4506
  120OSM   H11F12705  -0.323   1.122   7.688  0.2478  0.1177  0.8540
  120OSM   H11G12706  -0.160   1.170   7.655  1.1408 -0.1663  0.5345
  120OSM   C12F12707  -0.196   1.140   7.867 -0.4290  1.2353 -0.8383
  120OSM   H12F12708  -0.223   1.248   7.870 -1.1758  1.0451 -0.5965
  120OSM   H12G12709  -0.090   1.124   7.896 -0.3660  3.8927  0.6772
  120OSM   C13F12710  -0.288   1.064   7.967  0.2742 -0.9921  0.2201
  120OSM   H13F12711  -0.273   0.954   7.967 -0.2898 -1.0979 -1.4587
  120OSM   H13G12712  -0.395   1.090   7.950  0.4288 -0.4361  0.0756
  120OSM   C14F12713  -0.263   1.124   8.110  0.0698  0.0271  0.7097
  120OSM   H14F12714  -0.279   1.234   8.108 -1.1281 -0.1075  1.7159
  120OSM   H14G12715  -0.159   1.101   8.141  0.7284  1.2789 -0.4677
  120OSM   C15F12716  -0.358   1.064   8.207  0.9944  0.4249 -0.4715
  120OSM   H15F12717  -0.315   0.967   8.239 -1.0756 -0.3378  0.2065
  120OSM   H15G12718  -0.455   1.040   8.159  1.7409  1.1263 -2.4214
  120OSM   C16F12719  -0.375   1.140   8.340 -0.2692  0.6157  0.2966
  120OSM   H16F12720  -0.465   1.101   8.393 -0.0629  1.0478  0.9748
  120OSM   H16G12721  -0.396   1.246   8.316 -1.9679  0.4094  0.7426
  120OSM   C17F12722  -0.253   1.114   8.436 -0.7834  0.1122  0.3494
  120OSM   H17F12723  -0.159   1.100   8.378 -1.0339 -0.4212  0.0693
  120OSM   H17G12724  -0.272   1.017   8.486 -0.4266  0.4294  1.1142
  120OSM   C18F12725  -0.222   1.224   8.538 -0.2105  0.1933  0.4995
  120OSM   H18F12726  -0.223   1.318   8.479  3.9216  1.1934  1.7520
  120OSM   H18G12727  -0.115   1.213   8.562  0.8303 -1.1616 -3.8146
  120OSM   H18H12728  -0.292   1.230   8.624  0.1460 -0.7448  0.8734
  121OSM      N12729   6.662   2.400   6.126 -0.3609 -0.3070 -0.0392
  121OSM    C1512730   6.646   2.517   6.216  0.1992 -0.5526 -0.3663
  121OSM   H15A12731   6.551   2.510   6.266  0.5124 -0.5867  0.2341
  121OSM   H15B12732   6.636   2.609   6.159 -0.0145  1.8036  3.1354
  121OSM   H15C12733   6.724   2.511   6.290 -1.6114 -1.3228  1.5575
  121OSM    C1412734   6.555   2.426   6.027 -0.3414  0.2152  0.1118
  121OSM   H14A12735   6.574   2.521   5.979  2.7799  0.1597  1.0208
  121OSM   H14B12736   6.457   2.413   6.070 -1.0920 -0.2102 -1.6257
  121OSM   H14C12737   6.562   2.354   5.947 -1.7758  0.9360 -0.6918
  121OSM    C1312738   6.797   2.406   6.057 -0.1838  0.3166 -0.2760
  121OSM   H13A12739   6.815   2.496   6.001  0.5889  0.0582 -0.4582
  121OSM   H13B12740   6.812   2.319   5.995 -2.2316  0.0279 -0.4372
  121OSM   H13C12741   6.870   2.413   6.136 -0.2953  1.7036 -0.2785
  121OSM    C1212742   6.635   2.270   6.200 -0.1161  0.3294  0.0164
  121OSM   H12A12743   6.631   2.194   6.124 -1.2931  1.0975 -0.7326
  121OSM   H12B12744   6.531   2.271   6.229 -1.0247  2.1536 -2.8767
  121OSM    C1112745   6.736   2.214   6.305  0.6503  0.0487  0.4361
  121OSM   H11A12746   6.833   2.205   6.251 -0.7623 -1.3573 -2.0889
  121OSM   H11B12747   6.702   2.113   6.336 -0.8718  0.1294 -0.8579
  121OSM      P12748   6.627   2.299   6.517 -0.2115 -0.0730  0.1090
  121OSM    O1312749   6.650   2.395   6.628 -0.5149 -0.1343  0.0780
  121OSM    O1412750   6.503   2.299   6.447  0.2583 -0.3569 -0.5346
  121OSM    O1112751   6.647   2.157   6.584  0.2666 -0.0115 -0.0298
  121OSM    O1212752   6.753   2.299   6.416 -0.3976 -0.1027  0.2252
  121OSM    C1S12753   6.754   2.130   6.664 -0.3024 -0.9024 -0.4132
  121OSM    H1S12754   6.771   2.211   6.737  1.6520 -0.5363 -1.2063
  121OSM    H1T12755   6.847   2.108   6.607  1.1094 -1.1648  1.8655
  121OSM     NF12756   6.841   1.996   6.848 -0.3815 -0.8715 -0.2825
  121OSM    HNF12757   6.926   1.943   6.839 -0.6473 -1.5242  0.8842
  121OSM    C2S12758   6.735   1.998   6.744  0.1052  0.5183  0.3990
  121OSM    H2S12759   6.634   1.995   6.789 -0.6282  0.3209 -1.1736
  121OSM    C3S12760   6.738   1.885   6.636  0.7857 -0.0175 -1.0859
  121OSM    H3S12761   6.839   1.884   6.590  0.1372  0.3282 -2.5649
  121OSM     O312762   6.649   1.903   6.529  0.0153 -0.0962  0.5766
  121OSM    HO312763   6.622   1.994   6.545 -1.8750 -0.8713  2.2801
  121OSM    C4S12764   6.732   1.745   6.699 -0.0309  0.8665  0.3712
  121OSM    H4S12765   6.816   1.716   6.764  0.4963 -3.3749 -1.8363
  121OSM    C5S12766   6.630   1.655   6.698  0.3402 -0.4647 -0.4101
  121OSM    H5S12767   6.537   1.679   6.644 -0.0402 -2.3384 -0.6610
  121OSM    C6S12768   6.629   1.518   6.759  0.7520  0.2463  0.0177
  121OSM    H6S12769   6.705   1.449   6.717 -1.0922 -1.9202  0.0519
  121OSM    H6T12770   6.529   1.472   6.741 -0.3397  1.3171  2.8766
  121OSM    C7S12771   6.648   1.517   6.914 -0.0433 -0.4635 -0.3046
  121OSM    H7S12772   6.746   1.570   6.922  0.1355 -1.0888  2.3540
  121OSM    H7T12773   6.642   1.418   6.963  0.7552 -0.2601  0.2293
  121OSM    C8S12774   6.556   1.613   6.998  0.4113  0.4629 -0.5557
  121OSM    H8S12775   6.451   1.576   6.986  0.1503  0.4609  1.3511
  121OSM    H8T12776   6.548   1.716   6.957 -0.6838  0.9285  0.7422
  121OSM    C9S12777   6.587   1.623   7.144 -0.2691 -0.2029  0.7039
  121OSM    H9S12778   6.635   1.530   7.181  0.1913 -0.8126 -1.2824
  121OSM    H9T12779   6.502   1.643   7.212  0.1759  1.6613  0.7687
  121OSM   C10S12780   6.685   1.731   7.161 -0.3402 -0.2881 -0.2530
  121OSM   H10S12781   6.658   1.827   7.113 -1.2633 -0.9657 -1.1337
  121OSM   H10T12782   6.773   1.700   7.100 -0.5824  0.6695 -1.0958
  121OSM   C11S12783   6.724   1.746   7.313 -0.3170  0.1723 -0.2943
  121OSM   H11S12784   6.636   1.788   7.366  0.1399  1.4214 -0.4894
  121OSM   H11T12785   6.806   1.821   7.307  1.2654 -1.5081 -0.4423
  121OSM   C12S12786   6.775   1.621   7.376  0.2399  0.2371 -0.2227
  121OSM   H12S12787   6.871   1.581   7.336  1.3200  1.8161  0.6762
  121OSM   H12T12788   6.699   1.543   7.394  1.0666 -0.2793  1.2291
  121OSM   C13S12789   6.820   1.664   7.518 -0.3488  0.0970 -0.4890
  121OSM   H13S12790   6.737   1.709   7.576  0.2419  1.2523 -0.5096
  121OSM   H13T12791   6.892   1.749   7.512  0.0544 -0.3062 -1.5829
  121OSM   C14S12792   6.881   1.554   7.600 -0.0989 -0.1530  0.5528
  121OSM   H14S12793   6.972   1.518   7.547 -0.7341  1.1345 -1.5006
  121OSM   H14T12794   6.814   1.469   7.625 -0.5280 -0.2397 -0.8162
  121OSM   C15S12795   6.923   1.601   7.738 -0.3447 -0.0971 -0.6667
  121OSM   H15S12796   6.832   1.631   7.794 -1.0672  0.2727 -1.9901
  121OSM   H15T12797   6.998   1.684   7.739  0.6427 -0.9086  2.0070
  121OSM   C16S12798   6.973   1.485   7.834  0.3963 -0.1935 -0.0083
  121OSM   H16S12799   7.067   1.437   7.799  1.0723 -0.1929  1.6886
  121OSM   H16T12800   6.898   1.404   7.833  1.4691 -1.2774  1.7098
  121OSM   C17S12801   6.999   1.530   7.974 -0.5939  0.1578  0.3143
  121OSM   H17S12802   6.911   1.592   8.002 -0.5060  1.1498 -1.3878
  121OSM   H17T12803   7.091   1.592   7.983 -1.0879  1.0143 -0.3160
  121OSM   C18S12804   7.019   1.414   8.067  0.3632 -0.3723  0.6062
  121OSM   H18S12805   6.948   1.329   8.055  0.2028 -0.2519  0.6968
  121OSM   H18T12806   7.018   1.443   8.174  0.0588  1.1518  0.2275
  121OSM   H18U12807   7.118   1.375   8.035 -0.2685 -1.3708 -0.2012
  121OSM    C1F12808   6.832   2.071   6.962 -0.4230  0.0515 -0.2750
  121OSM     OF12809   6.738   2.149   6.980  0.5978 -0.1658 -0.4422
  121OSM    C2F12810   6.953   2.083   7.062  0.3927 -0.3616  0.6647
  121OSM    H2F12811   6.989   2.187   7.072 -0.6847  0.2450 -1.2732
  121OSM    H2G12812   7.034   2.022   7.017 -2.2553 -2.1774 -2.0612
  121OSM    C3F12813   6.923   2.038   7.205  0.4108 -0.0446  0.2506
  121OSM    H3F12814   6.947   1.929   7.205 -0.4301 -0.2554 -1.2358
  121OSM    H3G12815   6.821   2.060   7.243 -0.9972 -0.1510 -3.1651
  121OSM    C4F12816   7.026   2.105   7.303 -0.1759 -0.0944  0.1847
  121OSM    H4F12817   6.999   2.213   7.309  0.4731  0.0104  1.7347
  121OSM    H4G12818   7.126   2.080   7.262 -0.3827 -1.4557  0.4805
  121OSM    C5F12819   7.024   2.063   7.453 -0.5045  0.4996  0.1025
  121OSM    H5F12820   7.084   2.140   7.506 -0.9620  1.7619 -1.1479
  121OSM    H5G12821   7.061   1.959   7.440 -3.2718 -0.4036 -1.2948
  121OSM    C6F12822   6.882   2.065   7.512  0.0081  0.0401 -0.9563
  121OSM    H6F12823   6.817   1.991   7.460  0.1592  0.6257 -2.0048
  121OSM    H6G12824   6.842   2.168   7.505  2.6980  1.2001 -0.2749
  121OSM    C7F12825   6.889   2.026   7.662 -0.0477  0.5036 -0.1485
  121OSM    H7F12826   6.947   2.110   7.704 -1.0019  0.9158  0.3808
  121OSM    H7G12827   6.957   1.939   7.667  1.5312  1.6059 -1.6400
  121OSM    C8F12828   6.759   1.997   7.724  0.1212  0.0331 -0.2471
  121OSM    H8F12829   6.717   1.908   7.673  1.8623 -0.4320 -0.9656
  121OSM    H8G12830   6.683   2.077   7.719 -0.4316 -0.5479 -1.4659
  121OSM    C9F12831   6.774   1.973   7.875  0.0055 -0.6696  0.6318
  121OSM    H9F12832   6.841   2.047   7.921 -0.1642  0.0590 -0.2551
  121OSM   C10F12833   6.714   1.884   7.956  0.0014 -0.0132  0.6127
  121OSM   H10F12834   6.743   1.887   8.062  1.3598 -0.4618  0.2739
  121OSM   C11F12835   6.615   1.776   7.920 -0.3588 -0.5751  0.7079
  121OSM   H11F12836   6.634   1.685   7.980  0.2554 -0.9309 -0.0196
  121OSM   H11G12837   6.622   1.733   7.818  1.2380 -1.4371  1.1607
  121OSM   C12F12838   6.463   1.819   7.941  0.0764 -0.3776 -1.6603
  121OSM   H12F12839   6.399   1.756   7.876 -2.3080  1.5447 -1.2893
  121OSM   H12G12840   6.442   1.924   7.910  1.6031  1.0115  1.5084
  121OSM   C13F12841   6.430   1.813   8.093  0.8107 -0.0982  0.1663
  121OSM   H13F12842   6.338   1.869   8.119  0.7802 -0.6803  1.3372
  121OSM   H13G12843   6.520   1.857   8.142  2.2853 -0.8287 -1.7207
  121OSM   C14F12844   6.407   1.678   8.158 -0.4944  0.1313 -0.3706
  121OSM   H14F12845   6.488   1.608   8.128 -0.9977 -0.3929 -0.5083
  121OSM   H14G12846   6.314   1.626   8.128 -0.0231  0.1591 -1.9575
  121OSM   C15F12847   6.403   1.700   8.310  0.2930 -0.1805 -0.5483
  121OSM   H15F12848   6.320   1.768   8.337  0.7403  0.6367 -1.2033
  121OSM   H15G12849   6.495   1.752   8.343  0.2338 -1.1716  1.3309
  121OSM   C16F12850   6.378   1.566   8.385 -0.8829 -0.0154  0.3201
  121OSM   H16F12851   6.475   1.513   8.391 -0.9972 -0.1390  1.2384
  121OSM   H16G12852   6.314   1.494   8.331 -0.1209 -0.8294  0.4790
  121OSM   C17F12853   6.313   1.574   8.527 -0.3512  0.6441  0.0005
  121OSM   H17F12854   6.206   1.597   8.505 -0.0744 -0.1304 -2.5486
  121OSM   H17G12855   6.360   1.654   8.588 -1.5092  0.8367  0.6576
  121OSM   C18F12856   6.320   1.442   8.596 -0.7220  0.1534 -0.6888
  121OSM   H18F12857   6.422   1.429   8.638 -0.1368  1.4134 -1.6388
  121OSM   H18G12858   6.302   1.360   8.523  2.1937 -1.7901  0.6049
  121OSM   H18H12859   6.246   1.447   8.679 -1.3558  2.3659 -1.3045
  122OSM      N12860   5.972   3.588   6.160 -0.6283  0.0239  0.4893
  122OSM    C1512861   6.039   3.691   6.079  0.8294 -0.2409 -0.1222
  122OSM   H15A12862   6.095   3.756   6.145 -0.0592  0.8948 -0.4503
  122OSM   H15B12863   5.970   3.745   6.016 -2.8112 -4.1929 -0.0321
  122OSM   H15C12864   6.111   3.644   6.013 -0.2615  0.2696 -1.7143
  122OSM    C1412865   5.872   3.519   6.079  0.0542 -0.9114 -0.3831
  122OSM   H14A12866   5.804   3.598   6.051  0.6234  0.2563  1.3732
  122OSM   H14B12867   5.825   3.449   6.147 -1.0413 -1.3825 -1.5895
  122OSM   H14C12868   5.919   3.471   5.995 -0.5381  2.3564 -2.7878
  122OSM    C1312869   6.076   3.481   6.198 -0.1281 -0.2479  0.2682
  122OSM   H13A12870   6.134   3.515   6.282  0.0199 -0.1349  0.1238
  122OSM   H13B12871   6.139   3.458   6.113  0.6134 -0.4707  0.8721
  122OSM   H13C12872   6.037   3.384   6.225 -0.5791  0.1532  1.0810
  122OSM    C1212873   5.914   3.649   6.286 -0.1387  0.4122  0.3133
  122OSM   H12A12874   5.846   3.729   6.261  0.3654  1.2422  1.4960
  122OSM   H12B12875   5.996   3.694   6.340  0.3316 -0.4296  0.3166
  122OSM    C1112876   5.827   3.562   6.390  0.1456  0.2134  0.1898
  122OSM   H11A12877   5.733   3.538   6.336  0.1742  0.5987 -0.0422
  122OSM   H11B12878   5.786   3.628   6.470  1.1179 -0.2456  1.0998
  122OSM      P12879   5.806   3.309   6.431 -0.2197 -0.0436  0.0891
  122OSM    O1312880   5.695   3.315   6.529 -0.2586  0.5007  0.0936
  122OSM    O1412881   5.779   3.279   6.287  0.1712  0.4153 -0.1577
  122OSM    O1112882   5.913   3.205   6.483 -0.4845 -0.1635 -0.2551
  122OSM    O1212883   5.891   3.446   6.443 -0.4050  0.1331  0.3723
  122OSM    C1S12884   5.974   3.205   6.612 -0.2155 -0.4153 -0.2499
  122OSM    H1S12885   5.941   3.291   6.675  0.4720 -1.0046  0.9703
  122OSM    H1T12886   6.084   3.200   6.600 -0.2377 -2.1068 -0.0288
  122OSM     NF12887   5.982   3.086   6.831 -0.2359  0.1626  0.3202
  122OSM    HNF12888   6.074   3.052   6.847  0.3067  1.5631  0.3603
  122OSM    C2S12889   5.924   3.077   6.697 -0.4169 -0.0641  0.2940
  122OSM    H2S12890   5.814   3.087   6.698 -1.1848 -5.5132  0.1970
  122OSM    C3S12891   5.966   2.944   6.631  0.8870  0.3689 -0.3499
  122OSM    H3S12892   6.076   2.935   6.644  0.6375 -0.9706  1.0690
  122OSM     O312893   5.954   2.931   6.496 -0.4233 -0.6035 -0.3783
  122OSM    HO312894   5.939   3.022   6.470  2.3017  0.1800  0.4412
  122OSM    C4S12895   5.899   2.826   6.709 -0.6027 -0.3979 -0.1873
  122OSM    H4S12896   5.953   2.800   6.801  0.1904  1.1103 -0.2011
  122OSM    C5S12897   5.801   2.747   6.670  0.2315  0.1911  0.3032
  122OSM    H5S12898   5.747   2.768   6.577 -1.1051 -2.7080  0.2975
  122OSM    C6S12899   5.756   2.632   6.758 -0.1665 -0.0575 -0.1465
  122OSM    H6S12900   5.822   2.545   6.737  0.1173  0.1663 -0.1882
  122OSM    H6T12901   5.653   2.600   6.733  1.1031 -2.4238 -2.8966
  122OSM    C7S12902   5.751   2.647   6.914 -0.4392  0.2886  0.2467
  122OSM    H7S12903   5.672   2.724   6.931  0.5833  1.8653 -1.7184
  122OSM    H7T12904   5.843   2.679   6.967  1.3063 -1.1681 -1.7363
  122OSM    C8S12905   5.706   2.516   6.985  0.0365  0.8483  0.7586
  122OSM    H8S12906   5.769   2.434   6.945  0.0006  1.4653 -0.6149
  122OSM    H8T12907   5.604   2.503   6.946  0.4914  0.5389 -0.3574
  122OSM    C9S12908   5.711   2.534   7.140  0.0126 -0.1172  0.6267
  122OSM    H9S12909   5.704   2.639   7.177  3.0221  0.2232  0.4307
  122OSM    H9T12910   5.811   2.495   7.170  0.3803 -0.5188 -1.0541
  122OSM   C10S12911   5.620   2.448   7.231  0.1010  0.7763  0.6969
  122OSM   H10S12912   5.617   2.344   7.190 -0.6592  1.1038 -0.1113
  122OSM   H10T12913   5.516   2.488   7.224 -0.3231 -0.3989 -0.0569
  122OSM   C11S12914   5.663   2.456   7.380  0.0688 -0.4698  1.2532
  122OSM   H11S12915   5.681   2.563   7.404 -0.5659 -0.9444  4.2257
  122OSM   H11T12916   5.754   2.392   7.388  0.2139 -0.7720 -1.7298
  122OSM   C12S12917   5.549   2.408   7.472 -0.1364  0.3602 -0.0188
  122OSM   H12S12918   5.506   2.313   7.433 -1.3700  1.2805 -0.9897
  122OSM   H12T12919   5.467   2.483   7.475 -1.1319 -0.6388 -0.9176
  122OSM   C13S12920   5.600   2.388   7.613  0.5513 -0.2967 -0.1607
  122OSM   H13S12921   5.629   2.489   7.648 -0.7511 -0.5669  1.9226
  122OSM   H13T12922   5.679   2.311   7.624 -0.0218 -0.6001  2.2737
  122OSM   C14S12923   5.482   2.345   7.714  0.4443  0.0435  0.3852
  122OSM   H14S12924   5.420   2.272   7.657  1.6099 -1.4618  0.9581
  122OSM   H14T12925   5.408   2.428   7.718 -1.8853 -1.9592  2.1417
  122OSM   C15S12926   5.548   2.297   7.845  0.6154 -0.4497  0.6291
  122OSM   H15S12927   5.626   2.374   7.861 -0.7152  1.0887 -0.0389
  122OSM   H15T12928   5.593   2.196   7.840 -0.2569 -0.8200  0.0036
  122OSM   C16S12929   5.444   2.286   7.961  0.1341  0.0407  0.0182
  122OSM   H16S12930   5.366   2.221   7.915  2.3030 -0.8292 -2.6812
  122OSM   H16T12931   5.399   2.385   7.984 -0.8052 -1.0060  3.2649
  122OSM   C17S12932   5.504   2.227   8.092  0.0324 -1.2729  0.2801
  122OSM   H17S12933   5.576   2.303   8.129 -0.8202 -1.2808  2.0621
  122OSM   H17T12934   5.561   2.135   8.068  1.0664 -0.2707 -1.2482
  122OSM   C18S12935   5.400   2.205   8.210 -0.5287  0.8019 -0.0866
  122OSM   H18S12936   5.313   2.274   8.206 -1.2533 -0.0353  0.7178
  122OSM   H18T12937   5.452   2.197   8.308  1.0934 -1.6724 -1.0594
  122OSM   H18U12938   5.353   2.105   8.201  1.7558 -0.4934  1.3210
  122OSM    C1F12939   5.929   3.159   6.926  0.4993 -0.0045 -0.2296
  122OSM     OF12940   5.814   3.206   6.901 -0.0687 -0.3863  0.3808
  122OSM    C2F12941   5.995   3.181   7.057 -0.3373  0.4405 -0.0643
  122OSM    H2F12942   6.028   3.287   7.057 -0.9039  0.7316 -3.3658
  122OSM    H2G12943   6.081   3.112   7.071  0.4377  0.8643 -2.2689
  122OSM    C3F12944   5.900   3.182   7.180  0.8839  0.5161 -0.1509
  122OSM    H3F12945   5.846   3.085   7.179  1.1440  0.3457  1.0397
  122OSM    H3G12946   5.816   3.251   7.156  1.2795  0.7959 -0.7656
  122OSM    C4F12947   5.964   3.198   7.321  0.1044 -0.3973 -0.4625
  122OSM    H4F12948   5.979   3.307   7.332  2.3605 -0.6839 -0.3485
  122OSM    H4G12949   6.061   3.145   7.322  0.0335 -0.5350  1.3840
  122OSM    C5F12950   5.888   3.153   7.444 -0.2968  0.1166  0.8518
  122OSM    H5F12951   5.853   3.049   7.428 -1.9339  0.8646 -0.7837
  122OSM    H5G12952   5.793   3.207   7.463 -0.3771 -0.5311  2.5133
  122OSM    C6F12953   5.977   3.167   7.567  0.0127 -0.4142 -0.0928
  122OSM    H6F12954   6.020   3.270   7.561  0.6720 -0.7631 -2.2746
  122OSM    H6G12955   6.053   3.086   7.561  0.7704  0.0774  2.0590
  122OSM    C7F12956   5.904   3.155   7.695 -0.0781  0.2544  0.1725
  122OSM    H7F12957   5.859   3.053   7.690 -0.5069  0.4835 -0.8943
  122OSM    H7G12958   5.825   3.232   7.705  0.7496  1.0944  0.4280
  122OSM    C8F12959   5.990   3.160   7.826  0.1058  0.1641  0.7381
  122OSM    H8F12960   6.057   3.248   7.822 -0.0907  0.3091  0.6076
  122OSM    H8G12961   6.047   3.065   7.816  1.9804  1.2352  0.8379
  122OSM    C9F12962   5.904   3.164   7.942 -0.1424 -0.1688 -0.0359
  122OSM    H9F12963   5.816   3.229   7.930 -1.4953 -2.1862 -1.7600
  122OSM   C10F12964   5.898   3.085   8.053  0.0825 -0.4577  0.0421
  122OSM   H10F12965   5.819   3.116   8.123 -0.5676  1.7456 -1.5629
  122OSM   C11F12966   5.992   2.975   8.095  0.1003 -0.0215  0.0087
  122OSM   H11F12967   6.065   2.954   8.014  0.7828  0.7059  0.4249
  122OSM   H11G12968   5.935   2.880   8.098 -1.3926  0.7805 -1.1127
  122OSM   C12F12969   6.056   2.996   8.235 -0.2994  0.1648  0.5755
  122OSM   H12F12970   5.982   2.951   8.305  0.4443  0.0338  1.3046
  122OSM   H12G12971   6.070   3.102   8.265 -0.2205 -0.3743  2.6337
  122OSM   C13F12972   6.191   2.918   8.241 -0.5095 -0.1805  0.2749
  122OSM   H13F12973   6.237   2.942   8.143 -2.2361  1.0001 -0.2988
  122OSM   H13G12974   6.160   2.812   8.254  2.0748 -1.0348  0.0526
  122OSM   C14F12975   6.276   2.959   8.361  0.0681  0.0020  0.0825
  122OSM   H14F12976   6.211   2.953   8.451  0.4354  0.2269  0.3649
  122OSM   H14G12977   6.305   3.066   8.350 -1.3498  0.4559  0.5487
  122OSM   C15F12978   6.406   2.881   8.371  0.2162  0.3733 -0.1902
  122OSM   H15F12979   6.451   2.867   8.271  1.5575 -2.2862  0.6893
  122OSM   H15G12980   6.378   2.784   8.418  1.7052 -0.9109 -1.8069
  122OSM   C16F12981   6.517   2.936   8.460 -0.2200 -0.0640 -0.2345
  122OSM   H16F12982   6.561   3.022   8.405 -0.8448 -0.6881 -1.7677
  122OSM   H16G12983   6.609   2.874   8.470  0.1039  0.3957 -0.3553
  122OSM   C17F12984   6.478   2.989   8.593  0.6462  0.9223  0.0192
  122OSM   H17F12985   6.448   2.901   8.653  1.1264  0.0969 -0.9335
  122OSM   H17G12986   6.390   3.058   8.590  0.0670  0.1803 -0.4058
  122OSM   C18F12987   6.582   3.056   8.675  0.0552  0.5569 -0.1454
  122OSM   H18F12988   6.675   2.995   8.682  1.8549  3.0062 -1.1270
  122OSM   H18G12989   6.559   3.087   8.779 -0.5736  0.3653 -0.2232
  122OSM   H18H12990   6.616   3.146   8.621  0.9331  0.2005 -0.2059
  123OSM      N12991   0.265   6.641   6.155  0.1403  0.6182  0.2523
  123OSM    C1512992   0.292   6.496   6.138  0.9506 -0.3790  0.1854
  123OSM   H15A12993   0.301   6.458   6.037 -2.0876  0.1069 -0.3631
  123OSM   H15B12994   0.213   6.432   6.174 -1.8373  1.4727 -2.1877
  123OSM   H15C12995   0.387   6.481   6.188  1.2342  0.5968 -0.0270
  123OSM    C1412996   0.388   6.718   6.127 -0.4033 -0.2611 -0.2756
  123OSM   H14A12997   0.424   6.708   6.026  1.3207 -1.6288  0.4309
  123OSM   H14B12998   0.474   6.696   6.189  0.1361  1.2861 -0.4404
  123OSM   H14C12999   0.366   6.823   6.138  1.9197  0.1809  0.7993
  123OSM    C1313000   0.153   6.688   6.066 -0.4859 -0.0315 -0.0387
  123OSM   H13A13001   0.059   6.637   6.083 -0.0445 -0.6508  0.6275
  123OSM   H13B13002   0.171   6.662   5.963 -0.1868 -1.8704  0.4481
  123OSM   H13C13003   0.134   6.794   6.072  0.6275  0.3092 -1.9639
  123OSM    C1213004   0.217   6.662   6.294 -0.4729  1.0067 -0.3393
  123OSM   H12A13005   0.233   6.765   6.323  0.7458  1.1708 -1.4845
  123OSM   H12B13006   0.295   6.621   6.356 -2.2283 -0.8186  0.7838
  123OSM    C1113007   0.083   6.602   6.348 -0.3924 -0.5542  0.5446
  123OSM   H11A13008   0.002   6.619   6.274  1.4132  0.5465 -1.2885
  123OSM   H11B13009   0.052   6.651   6.443 -0.2303  0.1504  0.2409
  123OSM      P13010   0.008   6.346   6.369 -0.0751  0.4229  0.2807
  123OSM    O1313011  -0.086   6.357   6.252 -0.2323 -0.1405 -0.0589
  123OSM    O1413012   0.075   6.219   6.388 -0.0761 -0.1700  0.1553
  123OSM    O1113013  -0.080   6.381   6.493 -0.3713 -0.2876 -0.0311
  123OSM    O1213014   0.112   6.461   6.362  0.2560  0.0720 -0.4049
  123OSM    C1S13015  -0.027   6.375   6.632 -0.1693 -0.1875  0.3029
  123OSM    H1S13016   0.056   6.445   6.652  0.1691 -0.6422  0.5064
  123OSM    H1T13017   0.000   6.269   6.652 -1.2370 -0.3659  0.9041
  123OSM     NF13018  -0.088   6.415   6.862  0.2737 -0.7046 -0.2294
  123OSM    HNF13019  -0.072   6.329   6.909  0.7741 -1.4335 -1.6672
  123OSM    C2S13020  -0.145   6.405   6.731 -0.1652 -0.4623  0.1786
  123OSM    H2S13021  -0.186   6.507   6.715 -2.0116 -1.2484 -0.2590
  123OSM    C3S13022  -0.259   6.307   6.712  0.3505 -0.3085  0.0751
  123OSM    H3S13023  -0.219   6.207   6.740 -0.1181 -0.2124  1.1147
  123OSM     O313024  -0.319   6.298   6.580  0.2153 -0.7157 -0.3696
  123OSM    HO313025  -0.266   6.346   6.515  1.9902 -0.3538  1.2472
  123OSM    C4S13026  -0.372   6.344   6.801 -0.4298 -0.0996 -0.0249
  123OSM    H4S13027  -0.384   6.273   6.884 -1.2631  2.0058  1.7684
  123OSM    C5S13028  -0.467   6.440   6.795  0.3453  0.4082  1.0413
  123OSM    H5S13029  -0.475   6.508   6.709 -1.9750  1.5568  2.0923
  123OSM    C6S13030  -0.582   6.450   6.894  0.4638  0.7397  1.1796
  123OSM    H6S13031  -0.677   6.443   6.837  1.2985 -0.8716 -0.1136
  123OSM    H6T13032  -0.587   6.550   6.942  0.4721  1.7015 -0.7359
  123OSM    C7S13033  -0.585   6.348   7.008 -0.5781  0.0430  0.3737
  123OSM    H7S13034  -0.495   6.358   7.072  0.1779 -3.3541  0.0385
  123OSM    H7T13035  -0.571   6.249   6.960 -0.3174  0.3988 -0.3061
  123OSM    C8S13036  -0.700   6.363   7.103  0.3624 -0.1799  0.4749
  123OSM    H8S13037  -0.799   6.344   7.056  1.4101 -0.4096 -1.7995
  123OSM    H8T13038  -0.694   6.467   7.142 -1.6022 -0.6763  2.2527
  123OSM    C9S13039  -0.691   6.259   7.209 -0.5005  0.1521  0.3713
  123OSM    H9S13040  -0.602   6.273   7.274 -0.1183  1.7882 -0.4521
  123OSM    H9T13041  -0.685   6.162   7.155  0.0430  1.4292 -1.9864
  123OSM   C10S13042  -0.809   6.258   7.307  0.2498 -0.2679 -0.3746
  123OSM   H10S13043  -0.905   6.279   7.255 -0.1230 -0.8497  0.0561
  123OSM   H10T13044  -0.798   6.338   7.383  1.0407  1.6392 -2.4087
  123OSM   C11S13045  -0.839   6.127   7.384 -0.1808 -0.4533  0.4884
  123OSM   H11S13046  -0.752   6.101   7.448  1.1486  1.5641 -0.3986
  123OSM   H11T13047  -0.831   6.042   7.313 -1.5117  0.6433 -1.0373
  123OSM   C12S13048  -0.952   6.128   7.490 -0.1902  0.0085  0.3275
  123OSM   H12S13049  -1.045   6.145   7.432  0.2125 -1.5781 -0.8262
  123OSM   H12T13050  -0.943   6.213   7.562 -0.9163  1.5280 -1.2871
  123OSM   C13S13051  -0.945   6.007   7.576 -0.4485  0.4759 -0.2227
  123OSM   H13S13052  -0.875   6.031   7.659  2.9441 -1.7344 -2.2210
  123OSM   H13T13053  -0.900   5.921   7.522  0.0405  0.0027  0.9115
  123OSM   C14S13054  -1.078   5.993   7.650  1.4588 -0.5374 -0.6286
  123OSM   H14S13055  -1.133   5.949   7.565  1.5849  0.2701 -1.1375
  123OSM   H14T13056  -1.118   6.094   7.669 -0.5350 -0.4133 -4.5271
  123OSM   C15S13057  -1.066   5.910   7.785  0.2388 -0.2213 -0.0279
  123OSM   H15S13058  -0.994   5.829   7.760 -1.8912 -1.8311 -1.2140
  123OSM   H15T13059  -1.166   5.866   7.798  0.2636 -0.1215  0.5329
  123OSM   C16S13060  -1.009   5.996   7.900  0.4376  0.2257 -1.3202
  123OSM   H16S13061  -1.064   6.092   7.910 -0.0507 -0.1522 -0.2685
  123OSM   H16T13062  -0.902   6.015   7.875  1.2488  0.5510  1.9270
  123OSM   C17S13063  -1.014   5.914   8.041  0.0820 -0.7200 -0.1356
  123OSM   H17S13064  -0.962   5.971   8.120 -0.7419 -0.6605  0.3832
  123OSM   H17T13065  -0.954   5.821   8.032  2.9147  1.1930 -3.0070
  123OSM   C18S13066  -1.156   5.895   8.104  0.0365 -0.9716  0.0779
  123OSM   H18S13067  -1.160   5.855   8.208 -0.6234  0.8360  0.7918
  123OSM   H18T13068  -1.218   5.830   8.039 -1.2011 -0.9633  1.1958
  123OSM   H18U13069  -1.189   6.001   8.115 -0.0263 -0.5197 -3.5119
  123OSM    C1F13070  -0.019   6.520   6.903  0.9403 -0.1257  0.0825
  123OSM     OF13071  -0.001   6.621   6.840 -0.1251  0.0841 -0.2386
  123OSM    C2F13072   0.045   6.508   7.036  0.3765  0.4465  0.1777
  123OSM    H2F13073   0.155   6.514   7.022  0.3893 -0.9706 -0.5116
  123OSM    H2G13074   0.021   6.411   7.085  1.3790 -0.4194 -0.9885
  123OSM    C3F13075  -0.009   6.620   7.120 -0.5320 -0.1685  0.1248
  123OSM    H3F13076  -0.118   6.607   7.141 -0.6323  0.1884 -0.1579
  123OSM    H3G13077   0.000   6.723   7.081 -3.4665 -0.3300 -1.3170
  123OSM    C4F13078   0.060   6.631   7.251 -0.5822 -0.4810 -0.6506
  123OSM    H4F13079   0.161   6.670   7.229 -1.6068  2.9444  0.1825
  123OSM    H4G13080   0.063   6.523   7.279  0.4480  0.0386  1.4253
  123OSM    C5F13081  -0.018   6.722   7.350  0.3706 -0.6035 -0.7836
  123OSM    H5F13082  -0.119   6.680   7.365  0.8422 -2.0265 -1.4677
  123OSM    H5G13083  -0.028   6.824   7.306  1.3207  0.4541  1.3275
  123OSM    C6F13084   0.056   6.734   7.485 -0.2155  0.0761 -0.4063
  123OSM    H6F13085   0.154   6.781   7.465 -0.3877 -0.1653 -1.9033
  123OSM    H6G13086   0.079   6.632   7.523 -3.3872 -0.1480  1.3223
  123OSM    C7F13087  -0.028   6.802   7.584 -0.6919  0.1261 -0.9016
  123OSM    H7F13088  -0.118   6.742   7.608  0.6124 -1.3476  0.5909
  123OSM    H7G13089  -0.058   6.896   7.533 -0.2168  0.2346 -0.9927
  123OSM    C8F13090   0.049   6.834   7.716 -0.1578 -0.0867 -0.1124
  123OSM    H8F13091   0.107   6.925   7.691 -0.8346 -0.4303 -3.3302
  123OSM    H8G13092   0.119   6.750   7.734  0.0229  0.2339  0.7539
  123OSM    C9F13093  -0.044   6.845   7.833  0.1878  0.8418  0.2506
  123OSM    H9F13094  -0.138   6.897   7.811 -0.5644 -0.4487  0.2863
  123OSM   C10F13095  -0.026   6.800   7.958  0.4756 -0.3577  0.1111
  123OSM   H10F13096  -0.105   6.803   8.034 -1.4205 -2.8100 -1.6270
  123OSM   C11F13097   0.102   6.739   8.012 -0.0751  0.1998 -1.0017
  123OSM   H11F13098   0.189   6.806   7.992 -0.7945  1.7249  0.6367
  123OSM   H11G13099   0.130   6.639   7.973  3.1859  1.3075 -1.8325
  123OSM   C12F13100   0.085   6.727   8.162  0.7408 -0.8465  0.0264
  123OSM   H12F13101   0.166   6.663   8.202  0.3046 -1.9847 -0.8376
  123OSM   H12G13102  -0.010   6.673   8.182 -0.0646 -0.0281 -1.4216
  123OSM   C13F13103   0.098   6.850   8.240  0.0095  0.3885  0.1656
  123OSM   H13F13104   0.029   6.929   8.204  0.7881  1.0933  0.1722
  123OSM   H13G13105   0.202   6.889   8.228  0.1599  0.3473  1.2241
  123OSM   C14F13106   0.084   6.836   8.394  0.7537 -0.3676 -0.1065
  123OSM   H14F13107   0.184   6.818   8.437  1.1681  2.6823  0.3513
  123OSM   H14G13108   0.016   6.753   8.423  2.0478 -1.2793  0.4102
  123OSM   C15F13109   0.027   6.970   8.446  0.2076  0.1948 -0.5366
  123OSM   H15F13110   0.019   7.045   8.364  3.4146 -0.9116 -2.0068
  123OSM   H15G13111   0.094   7.013   8.523 -0.4036 -1.2037  0.8232
  123OSM   C16F13112  -0.117   6.956   8.502  0.7246 -1.2068 -0.5514
  123OSM   H16F13113  -0.124   6.888   8.589 -0.3708 -0.9258 -0.4034
  123OSM   H16G13114  -0.190   6.925   8.425 -2.0101  0.6630  1.1217
  123OSM   C17F13115  -0.176   7.098   8.545  0.1132  0.4115  0.5290
  123OSM   H17F13116  -0.135   7.175   8.475  1.4045 -0.1643  0.6302
  123OSM   H17G13117  -0.133   7.115   8.646  2.6289 -0.5286 -0.2937
  123OSM   C18F13118  -0.329   7.108   8.536 -0.6231 -0.1991 -0.3344
  123OSM   H18F13119  -0.363   7.197   8.594 -1.1182 -1.0269  0.6784
  123OSM   H18G13120  -0.382   7.021   8.580  1.2512 -0.4135  1.6359
  123OSM   H18H13121  -0.367   7.113   8.432 -1.1636 -2.4723 -0.2954
  124OSM      N13122   4.489   2.932   6.173 -0.2285  0.0006 -0.0793
  124OSM    C1513123   4.408   3.004   6.075 -0.2986  0.0891  0.1160
  124OSM   H15A13124   4.436   2.967   5.977  1.5780  0.8893  0.2967
  124OSM   H15B13125   4.427   3.110   6.084 -1.7014  0.2944  0.8991
  124OSM   H15C13126   4.302   2.990   6.087 -0.3883 -0.8276 -1.4082
  124OSM    C1413127   4.630   2.956   6.137 -0.2673 -0.5355  0.1570
  124OSM   H14A13128   4.655   2.923   6.038  3.2709  0.7971  0.4789
  124OSM   H14B13129   4.704   2.916   6.205 -0.9500  0.0278  1.2669
  124OSM   H14C13130   4.649   3.062   6.127 -1.2171 -0.2406  1.2094
  124OSM    C1313131   4.461   2.987   6.311  0.2843 -0.1612  0.6602
  124OSM   H13A13132   4.439   3.093   6.307 -0.0414 -0.1417  2.2456
  124OSM   H13B13133   4.550   2.981   6.372  1.4352  1.0525 -0.8211
  124OSM   H13C13134   4.379   2.932   6.356 -0.6503  1.1999  0.6777
  124OSM    C1213135   4.465   2.783   6.175 -0.0692 -0.3335  0.0795
  124OSM   H12A13136   4.459   2.749   6.072 -1.8973  1.1583 -0.3694
  124OSM   H12B13137   4.365   2.762   6.208 -1.0872  2.5219 -0.8752
  124OSM    C1113138   4.557   2.698   6.265  0.5654  0.2944 -0.5874
  124OSM   H11A13139   4.511   2.598   6.276 -0.4692  0.8644  0.5016
  124OSM   H11B13140   4.550   2.744   6.367  2.0764  0.6308 -0.6112
  124OSM      P13141   4.749   2.593   6.109  0.3359  0.5285 -0.0937
  124OSM    O1313142   4.659   2.609   5.992  0.4478 -0.5501 -0.0905
  124OSM    O1413143   4.892   2.615   6.089 -0.1374  0.6252 -0.3709
  124OSM    O1113144   4.731   2.444   6.170 -0.3624  0.0671 -0.4872
  124OSM    O1213145   4.700   2.689   6.230  0.3007  0.0190  0.0456
  124OSM    C1S13146   4.813   2.408   6.284  0.0040  0.2361 -1.0368
  124OSM    H1S13147   4.878   2.489   6.324 -1.1327  0.1807  1.1006
  124OSM    H1T13148   4.873   2.321   6.251  1.8680  0.5713  1.2198
  124OSM     NF13149   4.826   2.294   6.501  0.1989 -0.0353  0.1684
  124OSM    HNF13150   4.856   2.199   6.499  1.8096  0.4475  0.2506
  124OSM    C2S13151   4.732   2.354   6.404  0.4506  0.3737  0.3006
  124OSM    H2S13152   4.667   2.432   6.448 -0.2887 -0.6897  1.1495
  124OSM    C3S13153   4.616   2.254   6.364 -0.0374 -1.1520 -0.2713
  124OSM    H3S13154   4.661   2.175   6.299 -0.1323 -0.7295 -0.8527
  124OSM     O313155   4.512   2.291   6.277  0.3414 -0.5781  0.8010
  124OSM    HO313156   4.558   2.366   6.238 -1.6176  1.3830  2.0382
  124OSM    C4S13157   4.556   2.199   6.491 -0.6362  0.1755 -0.0086
  124OSM    H4S13158   4.626   2.126   6.533 -1.2545  0.4112  1.4741
  124OSM    C5S13159   4.434   2.211   6.541 -0.0313  0.9333 -0.1863
  124OSM    H5S13160   4.367   2.287   6.498 -2.6392  0.2120  2.2995
  124OSM    C6S13161   4.389   2.153   6.673  0.1495 -0.3824 -0.5821
  124OSM    H6S13162   4.298   2.090   6.661 -1.2731  1.4581 -0.0354
  124OSM    H6T13163   4.365   2.239   6.739  1.5402  1.0192 -1.8288
  124OSM    C7S13164   4.490   2.049   6.746  0.4538 -0.8579  0.1277
  124OSM    H7S13165   4.576   2.106   6.787 -0.5376  0.3055  0.6724
  124OSM    H7T13166   4.531   1.982   6.668  0.4171 -0.1176 -0.5338
  124OSM    C8S13167   4.430   1.975   6.868  0.7654  0.3341 -0.0824
  124OSM    H8S13168   4.380   1.887   6.822  1.1316  0.1057 -0.0514
  124OSM    H8T13169   4.357   2.037   6.923  0.6998 -0.0314  0.2453
  124OSM    C9S13170   4.541   1.920   6.963  0.4349  1.5556 -0.3884
  124OSM    H9S13171   4.612   1.994   7.007  0.9591  1.1599 -0.5672
  124OSM    H9T13172   4.600   1.846   6.906 -0.4994  0.5211 -0.0465
  124OSM   C10S13173   4.487   1.839   7.081 -0.8516 -0.7180 -1.1030
  124OSM   H10S13174   4.416   1.761   7.044  1.4157 -1.9738 -3.0621
  124OSM   H10T13175   4.430   1.895   7.158  0.2405 -3.3135  1.8237
  124OSM   C11S13176   4.606   1.776   7.159  0.1583 -0.0587 -0.6367
  124OSM   H11S13177   4.668   1.859   7.200  0.2175  0.9644 -2.6669
  124OSM   H11T13178   4.667   1.724   7.082 -0.7966 -1.6615 -0.3516
  124OSM   C12S13179   4.559   1.693   7.277  0.0736 -0.0906 -0.3599
  124OSM   H12S13180   4.492   1.756   7.341  0.4396 -0.1279  0.0671
  124OSM   H12T13181   4.642   1.645   7.334 -0.1328 -1.2098 -0.9739
  124OSM   C13S13182   4.479   1.567   7.241  0.0660  0.2959 -0.2087
  124OSM   H13S13183   4.531   1.512   7.160  0.9846 -1.3645  1.4177
  124OSM   H13T13184   4.378   1.598   7.207 -0.8583  0.8553  2.7190
  124OSM   C14S13185   4.457   1.476   7.366  0.3852  0.0477 -0.5776
  124OSM   H14S13186   4.409   1.543   7.440  0.4729  0.6640 -1.0676
  124OSM   H14T13187   4.554   1.455   7.416  0.3877 -0.3995 -0.7624
  124OSM   C15S13188   4.365   1.350   7.336 -0.2478  0.1479 -0.2723
  124OSM   H15S13189   4.417   1.270   7.280 -0.6188 -1.2876  1.3422
  124OSM   H15T13190   4.271   1.380   7.285  0.3724  0.5707 -1.1866
  124OSM   C16S13191   4.330   1.278   7.467 -0.2521  0.6667 -0.6151
  124OSM   H16S13192   4.258   1.197   7.443 -1.5617  1.8397 -0.7789
  124OSM   H16T13193   4.291   1.336   7.554  1.4955  0.3783  0.4171
  124OSM   C17S13194   4.461   1.206   7.523  0.1851  0.5585  0.5243
  124OSM   H17S13195   4.518   1.286   7.576 -1.7396  2.4641 -0.1310
  124OSM   H17T13196   4.524   1.165   7.441 -3.0610 -0.2068 -1.7876
  124OSM   C18S13197   4.440   1.091   7.626  0.9087  0.4866  0.0197
  124OSM   H18S13198   4.374   1.013   7.581 -1.3185  1.2809  1.6835
  124OSM   H18T13199   4.396   1.130   7.720  2.1158 -0.1555  0.8705
  124OSM   H18U13200   4.538   1.042   7.641 -0.1981 -1.8233  0.2079
  124OSM    C1F13201   4.901   2.369   6.582  0.0349 -0.3235  0.1497
  124OSM     OF13202   4.893   2.487   6.583  0.0866  0.7191  0.3603
  124OSM    C2F13203   5.006   2.297   6.661  0.0716 -0.9239 -0.5353
  124OSM    H2F13204   5.104   2.309   6.612  0.9666 -1.3346  1.0825
  124OSM    H2G13205   4.981   2.189   6.668  1.7410 -1.4963 -2.5163
  124OSM    C3F13206   5.012   2.364   6.804 -0.5374  0.9460  0.7537
  124OSM    H3F13207   5.015   2.475   6.799 -0.3055  0.8977 -0.4385
  124OSM    H3G13208   5.100   2.322   6.859  0.9763  0.6525 -1.7246
  124OSM    C4F13209   4.900   2.310   6.901 -0.3453 -0.7324 -0.2896
  124OSM    H4F13210   4.945   2.314   7.002  0.5026  1.0845 -0.7026
  124OSM    H4G13211   4.864   2.208   6.873 -1.6236 -0.1596 -0.8024
  124OSM    C5F13212   4.770   2.398   6.908 -0.0893 -0.7567  0.0960
  124OSM    H5F13213   4.715   2.376   6.813  1.1288 -0.9864 -0.5714
  124OSM    H5G13214   4.785   2.508   6.903 -3.0822 -0.2123  0.8988
  124OSM    C6F13215   4.685   2.369   7.031 -0.2811  0.2361 -0.0022
  124OSM    H6F13216   4.716   2.434   7.116 -1.7770 -0.9551  1.5138
  124OSM    H6G13217   4.714   2.268   7.068 -1.7828 -0.5697 -0.9262
  124OSM    C7F13218   4.536   2.382   7.014  0.5905 -0.1616  0.1718
  124OSM    H7F13219   4.488   2.337   6.925  0.9720 -0.4298  0.0970
  124OSM    H7G13220   4.518   2.490   6.996 -0.7540 -0.3196  0.4606
  124OSM    C8F13221   4.455   2.343   7.138  0.1999 -0.4276 -0.9967
  124OSM    H8F13222   4.348   2.363   7.118 -0.1389  0.4925  1.3104
  124OSM    H8G13223   4.477   2.415   7.221 -1.6917  0.2065 -1.0026
  124OSM    C9F13224   4.475   2.202   7.179 -0.0131 -0.1814  0.3250
  124OSM    H9F13225   4.444   2.124   7.108 -0.8933  1.0217 -0.6643
  124OSM   C10F13226   4.537   2.168   7.293 -0.7216  0.1424 -0.5083
  124OSM   H10F13227   4.563   2.064   7.313 -0.5368  0.7218  2.8227
  124OSM   C11F13228   4.594   2.264   7.393  0.1639  0.1801 -0.3012
  124OSM   H11F13229   4.519   2.273   7.474  1.0723 -0.8856  0.6998
  124OSM   H11G13230   4.620   2.368   7.364  3.2094 -0.4733 -0.2847
  124OSM   C12F13231   4.724   2.210   7.465  1.1528  0.1937  0.6874
  124OSM   H12F13232   4.764   2.282   7.540 -0.0413 -2.4952  4.1968
  124OSM   H12G13233   4.810   2.195   7.397 -0.2227 -1.2320 -0.8191
  124OSM   C13F13234   4.710   2.080   7.541 -0.2466 -0.6585  0.2722
  124OSM   H13F13235   4.814   2.053   7.569  0.1184  0.6939  0.2609
  124OSM   H13G13236   4.677   2.000   7.472 -1.3212 -0.2424  0.2801
  124OSM   C14F13237   4.617   2.083   7.666  0.9744 -0.3328  1.0497
  124OSM   H14F13238   4.507   2.099   7.655  1.5496  3.4797 -0.7745
  124OSM   H14G13239   4.667   2.165   7.722  2.1116 -0.1339 -0.1996
  124OSM   C15F13240   4.634   1.951   7.741  0.1785 -0.0370 -0.2921
  124OSM   H15F13241   4.725   1.964   7.804  1.1064  0.5278 -1.6979
  124OSM   H15G13242   4.647   1.867   7.669 -0.2257  0.4813 -0.9826
  124OSM   C16F13243   4.518   1.920   7.835 -0.4403 -0.7871  0.3593
  124OSM   H16F13244   4.437   1.885   7.767  1.7759  0.5570 -3.2974
  124OSM   H16G13245   4.486   2.015   7.883 -0.3333 -0.1451 -0.8048
  124OSM   C17F13246   4.548   1.819   7.939  0.4130  0.6438 -0.5723
  124OSM   H17F13247   4.596   1.724   7.908  0.4571  0.6442 -0.5043
  124OSM   H17G13248   4.450   1.792   7.984 -0.2770  0.2837 -2.2043
  124OSM   C18F13249   4.628   1.867   8.063  0.3968 -0.7656  1.0200
  124OSM   H18F13250   4.731   1.890   8.028  0.0557 -1.5182 -0.5756
  124OSM   H18G13251   4.629   1.787   8.140  2.8640 -0.6407  1.1980
  124OSM   H18H13252   4.574   1.958   8.097  0.5669 -0.0325 -0.5766
  125OSM      N13253   2.891   1.334   6.170 -0.2223 -0.3728  0.0618
  125OSM    C1513254   2.780   1.278   6.251 -0.1134 -0.3071  0.0756
  125OSM   H15A13255   2.684   1.303   6.207 -0.8288  1.5277  2.4430
  125OSM   H15B13256   2.772   1.337   6.342  0.3693  0.7694 -0.5592
  125OSM   H15C13257   2.782   1.173   6.273 -3.0657 -0.7361 -1.2731
  125OSM    C1413258   3.008   1.371   6.252 -0.0557  0.2780 -0.0228
  125OSM   H14A13259   3.033   1.281   6.307 -1.3998 -1.8255 -2.6011
  125OSM   H14B13260   2.981   1.445   6.325  1.7032  1.0475 -0.1129
  125OSM   H14C13261   3.085   1.411   6.188 -1.2523  1.6466 -0.6710
  125OSM    C1313262   2.928   1.236   6.067  0.7154 -0.2748 -0.0020
  125OSM   H13A13263   3.012   1.280   6.016  0.9910  1.6471  1.9553
  125OSM   H13B13264   2.851   1.212   5.994  2.8287 -2.6598 -1.6284
  125OSM   H13C13265   2.962   1.144   6.111 -1.8165 -1.3861 -0.1526
  125OSM    C1213266   2.839   1.461   6.103 -0.0480 -0.3372  0.5715
  125OSM   H12A13267   2.923   1.510   6.056  0.3271  2.1791  3.5630
  125OSM   H12B13268   2.814   1.543   6.168 -0.9481 -0.5125  0.4610
  125OSM    C1113269   2.718   1.450   6.004 -0.0941 -0.1764  0.3080
  125OSM   H11A13270   2.744   1.372   5.930  0.3015 -0.7256  1.0071
  125OSM   H11B13271   2.720   1.549   5.954  0.8242 -0.9757 -1.3046
  125OSM      P13272   2.488   1.531   6.078 -0.1287  0.2421  0.4210
  125OSM    O1313273   2.487   1.619   5.959 -0.0526 -0.6487 -0.3625
  125OSM    O1413274   2.364   1.464   6.107 -0.1398  0.3674 -0.1481
  125OSM    O1113275   2.539   1.610   6.200  0.3185  0.5381  0.7469
  125OSM    O1213276   2.601   1.416   6.073 -0.4483  0.2708  0.3786
  125OSM    C1S13277   2.520   1.559   6.335 -0.4241 -0.5138  0.4463
  125OSM    H1S13278   2.590   1.473   6.345  1.4633  0.7446 -1.1959
  125OSM    H1T13279   2.414   1.531   6.354 -0.4301 -0.1486  0.9561
  125OSM     NF13280   2.569   1.618   6.572  0.2154  0.4525  0.0188
  125OSM    HNF13281   2.495   1.640   6.635 -1.3582 -2.1068 -0.7458
  125OSM    C2S13282   2.569   1.673   6.437  0.5826  0.6531  0.2774
  125OSM    H2S13283   2.671   1.696   6.401  0.2275 -0.2543 -1.4177
  125OSM    C3S13284   2.473   1.788   6.424 -0.2157 -0.0351 -0.0598
  125OSM    H3S13285   2.370   1.750   6.442 -1.6000  1.6868 -3.4938
  125OSM     O313286   2.452   1.841   6.294  0.0384  0.5842 -0.7810
  125OSM    HO313287   2.485   1.768   6.240 -0.0447 -0.1570  0.1389
  125OSM    C4S13288   2.505   1.896   6.518  0.3487  0.2010  0.4878
  125OSM    H4S13289   2.611   1.902   6.546  0.5853  1.6698 -0.5753
  125OSM    C5S13290   2.414   1.975   6.579 -0.1332 -0.7041  0.3576
  125OSM    H5S13291   2.308   1.966   6.553 -0.5886  0.4976  1.6439
  125OSM    C6S13292   2.446   2.079   6.680  0.1278 -0.0563 -0.5817
  125OSM    H6S13293   2.449   2.181   6.636  0.6268  0.1297 -0.1208
  125OSM    H6T13294   2.552   2.067   6.708  1.0806 -1.8654 -4.3057
  125OSM    C7S13295   2.363   2.070   6.812 -0.3206 -0.1679 -0.1966
  125OSM    H7S13296   2.382   1.972   6.860 -2.4022 -0.0199  1.0721
  125OSM    H7T13297   2.256   2.081   6.785 -0.2911  1.9963  0.4442
  125OSM    C8S13298   2.401   2.196   6.904  0.1944 -0.2152 -0.0580
  125OSM    H8S13299   2.381   2.285   6.841  1.5318 -0.9540 -1.6059
  125OSM    H8T13300   2.511   2.201   6.922 -0.1193 -1.1809  2.7303
  125OSM    C9S13301   2.317   2.222   7.024 -0.7293  0.0125 -0.5702
  125OSM    H9S13302   2.208   2.233   7.004 -0.9027  1.5947  1.0874
  125OSM    H9T13303   2.328   2.322   7.071  1.9488 -1.3857  2.1043
  125OSM   C10S13304   2.358   2.128   7.136  0.7682  0.1788 -0.1457
  125OSM   H10S13305   2.464   2.144   7.167  0.7043  1.1212 -0.3770
  125OSM   H10T13306   2.346   2.022   7.105 -3.2851  0.4306  0.0480
  125OSM   C11S13307   2.262   2.129   7.252 -0.6625  0.0020 -0.4001
  125OSM   H11S13308   2.159   2.149   7.217 -0.5228  1.0910 -0.2421
  125OSM   H11T13309   2.286   2.222   7.308 -3.2339  0.1371  0.5860
  125OSM   C12S13310   2.274   2.006   7.345 -0.2588 -0.4779 -0.3065
  125OSM   H12S13311   2.379   2.015   7.380 -0.5682 -1.1294  0.8428
  125OSM   H12T13312   2.268   1.907   7.295 -1.0778  0.0329 -1.2402
  125OSM   C13S13313   2.181   2.016   7.454 -0.0723 -0.5608 -0.1026
  125OSM   H13S13314   2.080   1.987   7.417  0.4285 -1.3540 -0.8799
  125OSM   H13T13315   2.181   2.122   7.485  0.3351 -1.1177  1.9709
  125OSM   C14S13316   2.219   1.931   7.574 -0.0994 -0.3615 -0.8259
  125OSM   H14S13317   2.329   1.943   7.581 -0.2233  0.1429  0.4665
  125OSM   H14T13318   2.189   1.826   7.556 -0.1125 -0.0681 -2.6691
  125OSM   C15S13319   2.153   1.980   7.706  0.8385 -0.1822  0.0238
  125OSM   H15S13320   2.042   1.972   7.708  0.9350 -2.0290  1.3108
  125OSM   H15T13321   2.185   2.084   7.727 -0.3034  0.7806 -2.6747
  125OSM   C16S13322   2.185   1.886   7.829  0.1495  0.0456 -0.4460
  125OSM   H16S13323   2.296   1.886   7.825  0.1190  0.0784 -1.4515
  125OSM   H16T13324   2.148   1.785   7.803  1.2031 -0.0990 -1.4260
  125OSM   C17S13325   2.121   1.935   7.959 -0.2501  0.1749 -0.2391
  125OSM   H17S13326   2.010   1.933   7.959 -0.4176  3.2988 -0.4594
  125OSM   H17T13327   2.136   2.045   7.965 -1.3720  0.3503 -0.3332
  125OSM   C18S13328   2.186   1.871   8.091  0.2389  0.1787 -0.2179
  125OSM   H18S13329   2.296   1.867   8.085  0.2588 -0.5085  0.3786
  125OSM   H18T13330   2.157   1.764   8.079 -1.9758  0.8578 -1.6758
  125OSM   H18U13331   2.148   1.924   8.182  1.4498  2.3110 -0.8874
  125OSM    C1F13332   2.648   1.517   6.613 -0.7540 -0.3059 -0.0018
  125OSM     OF13333   2.741   1.489   6.541 -0.5387  0.0205 -1.2216
  125OSM    C2F13334   2.618   1.450   6.748  0.5378 -0.6064  0.1620
  125OSM    H2F13335   2.558   1.360   6.721 -0.4009 -0.4531  1.6362
  125OSM    H2G13336   2.549   1.513   6.807  0.5808 -2.2661  2.1076
  125OSM    C3F13337   2.745   1.406   6.827 -0.6749 -0.7018  0.4518
  125OSM    H3F13338   2.795   1.494   6.873  0.2274  0.8518 -3.1489
  125OSM    H3G13339   2.826   1.363   6.765 -1.2647 -0.8329 -0.2470
  125OSM    C4F13340   2.720   1.300   6.932 -0.1408 -0.3612 -0.2639
  125OSM    H4F13341   2.803   1.226   6.930 -1.4128 -1.8572  0.1259
  125OSM    H4G13342   2.624   1.248   6.909  0.4014 -1.8665  0.7881
  125OSM    C5F13343   2.704   1.345   7.083 -0.0137  0.7888  0.0327
  125OSM    H5F13344   2.618   1.414   7.098 -1.3814 -0.6940 -0.7460
  125OSM    H5G13345   2.798   1.382   7.130  0.9025 -2.8937  1.4369
  125OSM    C6F13346   2.667   1.212   7.160 -0.2139 -0.6954 -0.8252
  125OSM    H6F13347   2.760   1.152   7.147  1.7292  1.9051  0.1356
  125OSM    H6G13348   2.577   1.156   7.128  0.6727 -1.6444 -1.7575
  125OSM    C7F13349   2.658   1.241   7.307 -0.2976  0.1091 -0.1032
  125OSM    H7F13350   2.574   1.311   7.326 -2.3958 -1.6254 -2.3137
  125OSM    H7G13351   2.750   1.291   7.343 -0.4340  1.5721 -1.6533
  125OSM    C8F13352   2.639   1.117   7.399 -0.2761 -0.1898 -0.2107
  125OSM    H8F13353   2.730   1.056   7.380  0.6987  0.9318  0.7455
  125OSM    H8G13354   2.543   1.064   7.378 -0.9055  0.4397  0.9604
  125OSM    C9F13355   2.623   1.162   7.543  0.1702  0.0270  0.1130
  125OSM    H9F13356   2.534   1.224   7.564  1.3948  0.8518  3.5252
  125OSM   C10F13357   2.703   1.137   7.652 -0.0324 -0.9111  0.5647
  125OSM   H10F13358   2.671   1.169   7.752 -1.8032  0.3966 -0.3797
  125OSM   C11F13359   2.834   1.057   7.641 -0.2991  0.0930  0.8350
  125OSM   H11F13360   2.910   1.094   7.713  0.7917  0.1460 -0.3114
  125OSM   H11G13361   2.886   1.077   7.545 -0.9620  0.6479  0.5791
  125OSM   C12F13362   2.808   0.910   7.648 -0.2759  0.0814 -0.0994
  125OSM   H12F13363   2.720   0.875   7.591  0.2825 -1.2776 -0.1717
  125OSM   H12G13364   2.789   0.879   7.754 -0.1560 -1.9095 -0.6170
  125OSM   C13F13365   2.926   0.822   7.593  0.6248  0.3368  0.4434
  125OSM   H13F13366   3.022   0.866   7.629  0.1234  1.5791  0.3327
  125OSM   H13G13367   2.910   0.839   7.485 -3.1251 -0.0140  0.8433
  125OSM   C14F13368   2.923   0.668   7.625  0.0581 -0.3923  0.5912
  125OSM   H14F13369   2.969   0.607   7.544  0.6161 -0.1873  0.7502
  125OSM   H14G13370   2.816   0.640   7.632  0.0780 -0.4268  0.7651
  125OSM   C15F13371   3.001   0.633   7.750  0.4086  0.5935  0.0151
  125OSM   H15F13372   3.087   0.703   7.759  0.8495 -0.0547  1.0238
  125OSM   H15G13373   3.021   0.525   7.732 -2.4298  0.3254 -2.3126
  125OSM   C16F13374   2.924   0.637   7.883  0.2390  0.1536  0.7965
  125OSM   H16F13375   2.842   0.561   7.882  1.8148 -1.6856 -1.6080
  125OSM   H16G13376   2.886   0.740   7.901 -0.4682  0.1547 -0.5447
  125OSM   C17F13377   3.010   0.610   8.005 -0.1592  0.2388  0.0353
  125OSM   H17F13378   3.102   0.672   8.013 -0.2335  0.2534  0.8105
  125OSM   H17G13379   3.049   0.507   7.992 -1.7578 -0.3518 -0.2663
  125OSM   C18F13380   2.940   0.611   8.138 -0.5228 -0.6801 -0.8813
  125OSM   H18F13381   2.834   0.578   8.136 -0.9626  0.6234 -0.4906
  125OSM   H18G13382   2.941   0.718   8.170 -0.4193 -1.0141  0.2629
  125OSM   H18H13383   3.003   0.551   8.207 -1.2007 -0.3779  0.0267
  126OSM      N13384   6.530   5.160   6.464 -0.0412 -0.0214  0.6898
  126OSM    C1513385   6.654   5.090   6.414 -0.3169 -0.0735  0.0199
  126OSM   H15A13386   6.731   5.156   6.377 -1.5356  1.0945 -0.5253
  126OSM   H15B13387   6.638   5.009   6.344  0.6619  0.7327 -1.1623
  126OSM   H15C13388   6.698   5.039   6.498  0.1711 -1.2176 -0.9049
  126OSM    C1413389   6.460   5.209   6.349  0.0605 -1.1068  0.0775
  126OSM   H14A13390   6.438   5.133   6.276  0.4444 -0.6120 -0.5719
  126OSM   H14B13391   6.502   5.292   6.294 -0.2394 -2.0179 -1.5788
  126OSM   H14C13392   6.359   5.233   6.376  0.6330 -0.5079  1.8640
  126OSM    C1313393   6.445   5.056   6.534 -0.1648  0.5638  0.0666
  126OSM   H13A13394   6.402   4.998   6.454 -0.2216  0.9632 -0.1955
  126OSM   H13B13395   6.372   5.100   6.600 -1.6620 -1.9137  0.1850
  126OSM   H13C13396   6.506   4.994   6.598 -0.5279  0.0858 -0.0454
  126OSM    C1213397   6.568   5.273   6.559  0.7233  0.5452  0.2353
  126OSM   H12A13398   6.475   5.325   6.576  0.1241 -0.4927  0.1923
  126OSM   H12B13399   6.632   5.343   6.506  1.0639  0.2651  0.2697
  126OSM    C1113400   6.635   5.223   6.684 -1.0299 -0.5771 -0.3817
  126OSM   H11A13401   6.575   5.143   6.733  0.0486 -0.7980  0.6206
  126OSM   H11B13402   6.633   5.312   6.751 -2.9986 -0.2210 -0.8524
  126OSM      P13403   6.886   5.286   6.616  0.0594  0.2484 -0.0484
  126OSM    O1313404   6.947   5.243   6.485  0.1475 -0.2853 -0.3285
  126OSM    O1413405   6.835   5.424   6.610 -0.1071 -0.2981  0.2889
  126OSM    O1113406   6.986   5.275   6.732  0.2880  0.0064 -0.1448
  126OSM    O1213407   6.773   5.185   6.663  0.6962 -0.0113  0.1163
  126OSM    C1S13408   6.945   5.321   6.865  0.9025  0.1508  0.1061
  126OSM    H1S13409   6.880   5.239   6.903  0.5834 -0.6007 -1.9339
  126OSM    H1T13410   6.877   5.408   6.856  0.0822 -0.6739 -3.1646
  126OSM     NF13411   7.045   5.335   7.093 -0.0919 -0.1665 -0.2549
  126OSM    HNF13412   7.055   5.417   7.148 -0.8739 -0.4344  0.3015
  126OSM    C2S13413   7.070   5.349   6.954 -0.4976  0.4119  0.0593
  126OSM    H2S13414   7.144   5.270   6.930 -1.8188 -1.0933  0.7528
  126OSM    C3S13415   7.138   5.487   6.907  0.4128 -0.5554 -0.3014
  126OSM    H3S13416   7.067   5.572   6.913 -0.5870 -1.1205 -2.7524
  126OSM     O313417   7.166   5.489   6.767  0.1532  0.8548 -0.0541
  126OSM    HO313418   7.113   5.414   6.739  0.9077 -0.1193  1.0598
  126OSM    C4S13419   7.256   5.522   6.986 -0.3426  0.0569 -0.3921
  126OSM    H4S13420   7.230   5.599   7.060  0.5533  0.0119 -0.0151
  126OSM    C5S13421   7.388   5.480   6.975 -0.1070 -0.0363  0.1032
  126OSM    H5S13422   7.416   5.397   6.908  0.0984  0.7076 -0.7505
  126OSM    C6S13423   7.495   5.523   7.079 -0.2551 -0.1538 -0.3216
  126OSM    H6S13424   7.558   5.605   7.039 -0.9406  1.2789  1.4103
  126OSM    H6T13425   7.574   5.446   7.089  0.2180  0.3769  0.1147
  126OSM    C7S13426   7.458   5.545   7.225 -0.0377 -0.4426 -0.6100
  126OSM    H7S13427   7.377   5.473   7.248 -0.9916  0.9579  0.6096
  126OSM    H7T13428   7.422   5.647   7.249  2.1978  0.3543 -0.3675
  126OSM    C8S13429   7.582   5.540   7.323 -0.0079 -0.0673  0.2646
  126OSM    H8S13430   7.664   5.611   7.300  0.5443 -0.8326 -0.1454
  126OSM    H8T13431   7.635   5.443   7.315  1.1659  0.6458 -0.9999
  126OSM    C9S13432   7.532   5.561   7.465 -0.1303  0.0469  0.2230
  126OSM    H9S13433   7.444   5.496   7.483 -1.2117  1.4586  0.1538
  126OSM    H9T13434   7.500   5.667   7.474  3.2334  1.1983  0.0312
  126OSM   C10S13435   7.637   5.528   7.570 -0.1062  0.1307  0.1341
  126OSM   H10S13436   7.717   5.604   7.575 -1.4842  1.5477  2.2831
  126OSM   H10T13437   7.670   5.422   7.565  1.1428  0.5291 -0.3327
  126OSM   C11S13438   7.562   5.546   7.709 -0.5924  0.1948 -0.1774
  126OSM   H11S13439   7.469   5.487   7.695 -0.3957  0.1688 -1.4877
  126OSM   H11T13440   7.528   5.651   7.720  0.2340  0.3991  0.4943
  126OSM   C12S13441   7.637   5.494   7.832 -0.2177  0.7339 -0.0140
  126OSM   H12S13442   7.740   5.534   7.830  0.5701 -1.2415 -0.8372
  126OSM   H12T13443   7.659   5.386   7.824  2.6324  1.3140 -1.1303
  126OSM   C13S13444   7.573   5.535   7.965  0.4824  0.1537 -0.2427
  126OSM   H13S13445   7.472   5.492   7.947  0.9468 -0.4369 -1.5865
  126OSM   H13T13446   7.548   5.643   7.966  0.4505  0.1467 -0.2661
  126OSM   C14S13447   7.629   5.471   8.092  0.0072  0.4984 -0.4363
  126OSM   H14S13448   7.738   5.493   8.095  0.5708 -1.9747 -0.5303
  126OSM   H14T13449   7.623   5.361   8.080 -0.0361  0.0771  2.7153
  126OSM   C15S13450   7.550   5.513   8.218 -0.2834 -0.4687 -0.3794
  126OSM   H15S13451   7.451   5.464   8.227  0.1773 -1.7873 -1.9057
  126OSM   H15T13452   7.522   5.618   8.195 -0.3708 -0.7376 -1.5406
  126OSM   C16S13453   7.630   5.505   8.347 -0.2565 -0.2925  0.7987
  126OSM   H16S13454   7.723   5.565   8.346 -0.7367  0.5341  2.2877
  126OSM   H16T13455   7.673   5.405   8.368 -2.1851 -1.2059  0.6579
  126OSM   C17S13456   7.553   5.551   8.472 -0.0181  0.1100  0.1326
  126OSM   H17S13457   7.520   5.657   8.467  0.9485  0.6382  3.1040
  126OSM   H17T13458   7.629   5.551   8.553  0.6408 -1.5142 -0.4605
  126OSM   C18S13459   7.426   5.475   8.512 -0.0957 -0.2517 -0.4776
  126OSM   H18S13460   7.458   5.374   8.544  1.3488  0.2035 -0.4215
  126OSM   H18T13461   7.349   5.468   8.432 -2.1556 -0.9746  1.4577
  126OSM   H18U13462   7.380   5.520   8.602  0.9084 -0.4165  0.1267
  126OSM    C1F13463   7.006   5.225   7.155  0.1666 -0.2201 -0.3729
  126OSM     OF13464   7.022   5.117   7.098 -0.8247  0.1759  0.4589
  126OSM    C2F13465   6.949   5.244   7.291  0.0973  0.3982  0.2174
  126OSM    H2F13466   6.890   5.153   7.315  0.0946  0.6667  1.2894
  126OSM    H2G13467   6.900   5.344   7.294 -0.8219  0.0536 -1.6617
  126OSM    C3F13468   7.057   5.251   7.397  0.4703 -0.6409 -0.7147
  126OSM    H3F13469   7.144   5.316   7.373 -0.0299  0.7903  1.1589
  126OSM    H3G13470   7.104   5.151   7.403  2.3967  0.1349 -1.9034
  126OSM    C4F13471   7.021   5.284   7.543 -0.0280  0.5532 -0.1562
  126OSM    H4F13472   6.933   5.219   7.568 -0.0254 -0.4760 -2.5723
  126OSM    H4G13473   6.998   5.392   7.554  3.5561  1.5116 -0.9897
  126OSM    C5F13474   7.130   5.259   7.654 -0.2706  0.3161 -0.0354
  126OSM    H5F13475   7.217   5.318   7.619 -1.0286  1.2244 -0.4297
  126OSM    H5G13476   7.149   5.150   7.643 -1.4434  0.2576 -2.1658
  126OSM    C6F13477   7.077   5.303   7.789  0.1294  0.2037  0.4298
  126OSM    H6F13478   6.974   5.270   7.815  0.5229 -0.2144  1.4781
  126OSM    H6G13479   7.055   5.412   7.783 -0.2685  0.0727 -1.0529
  126OSM    C7F13480   7.177   5.287   7.904 -0.5179  1.0288  0.4145
  126OSM    H7F13481   7.262   5.356   7.885  0.6370  0.5552  3.3233
  126OSM    H7G13482   7.216   5.184   7.918 -0.6011  1.0903  1.1184
  126OSM    C8F13483   7.108   5.326   8.033 -0.1678 -1.1453 -0.0885
  126OSM    H8F13484   7.021   5.262   8.059  0.4147 -1.9110 -0.0095
  126OSM    H8G13485   7.066   5.428   8.025 -0.2865 -1.0702  1.2778
  126OSM    C9F13486   7.221   5.342   8.139  0.2490  0.3321  0.6408
  126OSM    H9F13487   7.291   5.426   8.126  2.0543 -1.0719  0.8064
  126OSM   C10F13488   7.235   5.262   8.243  0.0865  0.4979  0.1835
  126OSM   H10F13489   7.312   5.291   8.316  1.2115  2.0663 -1.5508
  126OSM   C11F13490   7.135   5.147   8.275  0.4254  0.2171 -0.1431
  126OSM   H11F13491   7.184   5.050   8.298  1.0568  0.1655 -1.6159
  126OSM   H11G13492   7.088   5.124   8.177  0.1195  1.8489 -0.4087
  126OSM   C12F13493   7.035   5.185   8.380 -0.1667 -0.2189 -0.3589
  126OSM   H12F13494   6.936   5.145   8.349 -0.4897 -0.7544  1.2347
  126OSM   H12G13495   7.020   5.295   8.381 -0.9419 -0.1615 -4.2131
  126OSM   C13F13496   7.087   5.131   8.523  0.4715 -0.1507  0.1386
  126OSM   H13F13497   7.180   5.185   8.553 -0.4481  3.1182 -2.2825
  126OSM   H13G13498   7.104   5.022   8.525  1.9280  0.0517 -0.0224
  126OSM   C14F13499   6.982   5.169   8.624  0.7413 -0.2684 -0.2564
  126OSM   H14F13500   6.883   5.130   8.589  3.0049 -5.7970 -1.7309
  126OSM   H14G13501   6.977   5.279   8.628 -0.6175 -0.3428  2.3106
  126OSM   C15F13502   7.022   5.115   8.761  0.6070 -1.2015 -0.4056
  126OSM   H15F13503   7.127   5.148   8.772 -0.0181  0.4194  1.1428
  126OSM   H15G13504   7.013   5.005   8.766  0.3645 -1.1349  0.7995
  126OSM   C16F13505   6.934   5.173   8.880 -0.7483 -0.1494 -0.9682
  126OSM   H16F13506   6.827   5.142   8.877 -0.7505 -0.0714 -2.1590
  126OSM   H16G13507   6.929   5.284   8.873  0.1649  0.0723  1.2335
  126OSM   C17F13508   6.992   5.138   9.018  0.4677 -0.0615 -0.2441
  126OSM   H17F13509   7.102   5.153   9.007  0.2490  1.0354 -1.1793
  126OSM   H17G13510   6.967   5.032   9.040 -1.2607  0.4933  0.6589
  126OSM   C18F13511   6.938   5.211   9.137  0.6071 -0.3426 -0.3478
  126OSM   H18F13512   6.827   5.214   9.144  0.5714  0.2689 -1.0333
  126OSM   H18G13513   6.968   5.318   9.135  0.6665 -0.3675 -1.4546
  126OSM   H18H13514   6.972   5.169   9.234  0.1115  0.5381  0.2182
  127OSM      N13515   0.691   0.202   6.434 -0.7189 -0.5255  0.0956
  127OSM    C1513516   0.747   0.173   6.295  0.7713 -0.6925 -0.4459
  127OSM   H15A13517   0.828   0.103   6.300  0.6151 -0.7875  2.0511
  127OSM   H15B13518   0.770   0.259   6.233  2.2218  0.1812  1.2109
  127OSM   H15C13519   0.665   0.131   6.239 -0.9789  1.1684  0.5690
  127OSM    C1413520   0.815   0.215   6.511  0.2089  0.4193  0.9577
  127OSM   H14A13521   0.866   0.120   6.518 -1.1581 -0.7014 -2.2898
  127OSM   H14B13522   0.792   0.249   6.611 -0.6512 -1.6940  1.5279
  127OSM   H14C13523   0.874   0.284   6.453  2.0045 -2.7069 -1.2226
  127OSM    C1313524   0.630   0.338   6.436 -0.0577  0.2555  0.4138
  127OSM   H13A13525   0.588   0.371   6.530 -0.9144  1.1666 -0.2671
  127OSM   H13B13526   0.541   0.339   6.375 -1.0809  3.4750  1.7289
  127OSM   H13C13527   0.686   0.422   6.396 -0.1517  0.6679  1.1274
  127OSM    C1213528   0.600   0.103   6.494  0.9090 -0.4671  0.2295
  127OSM   H12A13529   0.574   0.132   6.595 -1.6234  0.8931 -0.7278
  127OSM   H12B13530   0.646   0.006   6.493  0.2795 -0.7741  0.5052
  127OSM    C1113531   0.460   0.083   6.428 -0.8384  0.3024  0.2689
  127OSM   H11A13532   0.407   0.004   6.485  1.5924 -0.9894  0.8693
  127OSM   H11B13533   0.476   0.031   6.331 -0.4339  1.1831 -0.1467
  127OSM      P13534   0.226   0.213   6.377 -0.0234  0.2545  0.4160
  127OSM    O1313535   0.181   0.343   6.435  0.9659 -0.6029 -0.5059
  127OSM    O1413536   0.218   0.195   6.230 -0.3574 -0.0799  0.7853
  127OSM    O1113537   0.169   0.081   6.444  0.0665 -0.1347  0.2002
  127OSM    O1213538   0.380   0.197   6.413 -0.2473  0.0294  0.0996
  127OSM    C1S13539   0.177   0.070   6.584 -0.7876 -0.1175  0.3371
  127OSM    H1S13540   0.258   0.129   6.632 -0.9784 -0.4275  1.0546
  127OSM    H1T13541   0.185  -0.036   6.614  1.4550 -1.3791 -3.9279
  127OSM     NF13542   0.053   0.088   6.796 -0.0643 -0.5324 -0.3263
  127OSM    HNF13543   0.006   0.012   6.840  1.6814 -1.7920 -0.4989
  127OSM    C2S13544   0.049   0.110   6.654 -0.2766 -0.2094 -0.1036
  127OSM    H2S13545   0.043   0.221   6.644  0.0490 -0.0336  1.4873
  127OSM    C3S13546  -0.082   0.062   6.577 -0.6850  0.0220 -0.9535
  127OSM    H3S13547  -0.069  -0.046   6.556 -3.6233 -1.0928  2.0443
  127OSM     O313548  -0.107   0.133   6.458  0.0728  0.2324  0.0755
  127OSM    HO313549  -0.020   0.173   6.448  0.5536 -0.7059  0.4173
  127OSM    C4S13550  -0.194   0.076   6.677 -0.9244  0.1900  0.0493
  127OSM    H4S13551  -0.212   0.179   6.711 -0.0566 -0.0406  1.3008
  127OSM    C5S13552  -0.258  -0.023   6.728 -0.3146  0.7447  0.1508
  127OSM    H5S13553  -0.240  -0.125   6.691 -0.8642  0.4645  0.6513
  127OSM    C6S13554  -0.366  -0.016   6.838  0.6799  0.5337  0.7820
  127OSM    H6S13555  -0.470  -0.049   6.817  0.0016  2.1412  1.4729
  127OSM    H6T13556  -0.368   0.094   6.856 -0.4083  0.6688 -0.0723
  127OSM    C7S13557  -0.331  -0.073   6.976  0.4211  0.4474  0.3830
  127OSM    H7S13558  -0.231  -0.031   6.999  1.4945 -2.4931  1.5963
  127OSM    H7T13559  -0.318  -0.182   6.955 -0.1337  0.4148  0.2126
  127OSM    C8S13560  -0.433  -0.054   7.089  0.4650 -0.0003 -0.5045
  127OSM    H8S13561  -0.529  -0.096   7.051  2.2190 -2.2465 -2.7650
  127OSM    H8T13562  -0.429   0.055   7.111 -0.3201  0.0681 -0.6760
  127OSM    C9S13563  -0.407  -0.137   7.216 -0.1100 -0.2671  0.8673
  127OSM    H9S13564  -0.302  -0.111   7.242 -0.1929  0.6030  0.3754
  127OSM    H9T13565  -0.408  -0.244   7.187  0.3442 -0.8413  2.8654
  127OSM   C10S13566  -0.505  -0.102   7.331 -0.2051  0.1682 -0.2843
  127OSM   H10S13567  -0.609  -0.123   7.299 -0.7190 -0.9084  1.9125
  127OSM   H10T13568  -0.489   0.006   7.354  0.3442 -0.0079  0.1741
  127OSM   C11S13569  -0.477  -0.203   7.439  0.6003 -0.4968  0.0083
  127OSM   H11S13570  -0.381  -0.169   7.483  0.5037  1.5472 -1.2216
  127OSM   H11T13571  -0.457  -0.306   7.402 -0.4731 -0.4081 -0.8640
  127OSM   C12S13572  -0.582  -0.222   7.545 -0.0866 -0.8386  0.4370
  127OSM   H12S13573  -0.676  -0.254   7.495 -0.6301  1.7287 -0.3317
  127OSM   H12T13574  -0.599  -0.125   7.596  3.7103  0.3072 -0.1440
  127OSM   C13S13575  -0.546  -0.332   7.646 -0.0306  0.3322 -0.0656
  127OSM   H13S13576  -0.475  -0.296   7.724  2.1038  0.0423 -1.7988
  127OSM   H13T13577  -0.494  -0.412   7.591  2.2554  1.8029 -0.1615
  127OSM   C14S13578  -0.669  -0.392   7.721 -0.1994  0.0205 -0.4956
  127OSM   H14S13579  -0.698  -0.485   7.668 -0.9912 -0.7993  1.2907
  127OSM   H14T13580  -0.754  -0.324   7.739  0.8397  0.9488  1.1616
  127OSM   C15S13581  -0.626  -0.444   7.861 -0.4406 -0.0469  0.8296
  127OSM   H15S13582  -0.630  -0.357   7.929 -0.4890 -2.0855  3.6035
  127OSM   H15T13583  -0.526  -0.494   7.863 -0.8444 -0.9638 -0.4952
  127OSM   C16S13584  -0.706  -0.570   7.910  0.1131 -0.1522  0.7354
  127OSM   H16S13585  -0.693  -0.649   7.833 -0.5500  0.9610 -0.5490
  127OSM   H16T13586  -0.813  -0.542   7.908  0.4553  1.2987 -2.1481
  127OSM   C17S13587  -0.647  -0.627   8.043  0.8171  0.2321 -0.0941
  127OSM   H17S13588  -0.544  -0.667   8.030  0.2552 -1.4482  0.3720
  127OSM   H17T13589  -0.716  -0.705   8.082 -0.5483  0.9166 -1.0744
  127OSM   C18S13590  -0.635  -0.511   8.152 -0.3809  0.4151 -0.5793
  127OSM   H18S13591  -0.602  -0.551   8.251  1.7872 -1.2613 -1.9065
  127OSM   H18T13592  -0.736  -0.467   8.168 -1.6235 -2.4973  0.4158
  127OSM   H18U13593  -0.565  -0.433   8.117  0.9339 -0.7102 -0.5502
  127OSM    C1F13594   0.125   0.162   6.878  0.0109 -0.4278 -0.2031
  127OSM     OF13595   0.190   0.254   6.817  0.0193  0.0225 -0.2674
  127OSM    C2F13596   0.108   0.144   7.023 -0.3415  0.4376  0.1193
  127OSM    H2F13597   0.163   0.050   7.046  0.8594  0.8764 -0.8224
  127OSM    H2G13598   0.003   0.122   7.051  0.1920 -1.1205  1.0333
  127OSM    C3F13599   0.175   0.258   7.107 -0.3257  0.2804 -0.1728
  127OSM    H3F13600   0.120   0.354   7.094 -0.3685  0.7158  2.5798
  127OSM    H3G13601   0.275   0.284   7.066 -0.4138  1.4118  0.2767
  127OSM    C4F13602   0.189   0.218   7.253  0.2729  1.2902  0.2854
  127OSM    H4F13603   0.262   0.135   7.264  0.3976  1.5328  1.5037
  127OSM    H4G13604   0.090   0.191   7.296  1.0600 -0.6309  1.0154
  127OSM    C5F13605   0.270   0.332   7.324 -0.9245 -0.7463 -0.1704
  127OSM    H5F13606   0.221   0.431   7.319  1.4074  0.4179 -1.6758
  127OSM    H5G13607   0.357   0.354   7.259 -1.8090  0.8610 -0.8669
  127OSM    C6F13608   0.307   0.302   7.472 -0.1599  1.0650 -0.6861
  127OSM    H6F13609   0.213   0.290   7.530  0.5853  0.8563  0.4989
  127OSM    H6G13610   0.356   0.386   7.525  0.8541 -0.1943  0.4463
  127OSM    C7F13611   0.408   0.187   7.491  0.2131  0.0702  0.0046
  127OSM    H7F13612   0.503   0.212   7.440  1.0310 -1.9214  0.4637
  127OSM    H7G13613   0.378   0.086   7.455  0.2227 -0.3040  1.0335
  127OSM    C8F13614   0.446   0.170   7.639  0.3421  0.5526  0.0453
  127OSM    H8F13615   0.358   0.127   7.692  1.7174 -0.8659  1.2668
  127OSM    H8G13616   0.482   0.269   7.672 -1.0285  1.3381 -0.7402
  127OSM    C9F13617   0.556   0.071   7.654  0.2895  0.4004  0.8390
  127OSM    H9F13618   0.628   0.060   7.571 -1.1752 -1.7779 -0.2221
  127OSM   C10F13619   0.596   0.004   7.765  0.6576  0.4154  0.2499
  127OSM   H10F13620   0.674  -0.074   7.758 -0.6944 -0.8824 -0.8394
  127OSM   C11F13621   0.524   0.014   7.896  0.2738 -0.2740  0.1557
  127OSM   H11F13622   0.446  -0.064   7.905 -0.1929  0.3252  1.6983
  127OSM   H11G13623   0.464   0.107   7.907  2.3571  1.4303 -1.8708
  127OSM   C12F13624   0.620   0.008   8.012 -0.1170  0.6130  0.1449
  127OSM   H12F13625   0.678   0.103   8.019 -1.6764  1.5781  0.5454
  127OSM   H12G13626   0.687  -0.077   7.989 -0.2538  0.7360 -0.7323
  127OSM   C13F13627   0.546  -0.009   8.147  0.1334 -1.2201 -0.2658
  127OSM   H13F13628   0.475  -0.093   8.133  0.9473 -2.1202  0.7779
  127OSM   H13G13629   0.474   0.074   8.165  1.4987 -0.3867  1.6865
  127OSM   C14F13630   0.632  -0.031   8.265  0.5044 -0.1858 -0.1301
  127OSM   H14F13631   0.700   0.057   8.271 -0.6325  0.9001 -2.0331
  127OSM   H14G13632   0.698  -0.120   8.257  2.9408  1.4451  0.6794
  127OSM   C15F13633   0.545  -0.027   8.392 -0.3249 -0.5864 -0.0895
  127OSM   H15F13634   0.474  -0.111   8.382 -0.4307 -0.4608 -0.4145
  127OSM   H15G13635   0.491   0.070   8.397 -0.8685 -0.9452  1.4197
  127OSM   C16F13636   0.620  -0.035   8.525 -0.1476 -0.3255 -0.2680
  127OSM   H16F13637   0.700   0.042   8.518  0.3816 -0.9280 -1.0071
  127OSM   H16G13638   0.673  -0.132   8.532 -0.1458 -0.2574  0.7811
  127OSM   C17F13639   0.544  -0.017   8.661  0.7626  0.0233 -0.1772
  127OSM   H17F13640   0.524   0.092   8.662 -1.3827 -0.3276  1.0727
  127OSM   H17G13641   0.601  -0.048   8.752  0.9607  4.6327  1.5175
  127OSM   C18F13642   0.411  -0.094   8.672  0.0141  0.3690  0.0477
  127OSM   H18F13643   0.337  -0.064   8.594  0.4069  0.7201 -0.2012
  127OSM   H18G13644   0.358  -0.073   8.767  1.7713  2.5355  0.6521
  127OSM   H18H13645   0.431  -0.203   8.664 -1.8461 -0.0955  1.1500
  128OSM      N13646   3.199   2.138   6.496 -0.1122 -0.5578  0.3531
  128OSM    C1513647   3.160   2.211   6.622 -0.1317  0.1129 -0.5682
  128OSM   H15A13648   3.215   2.176   6.708  2.0079  1.2341 -1.4223
  128OSM   H15B13649   3.054   2.207   6.645  0.0542 -0.9882  0.1352
  128OSM   H15C13650   3.188   2.315   6.616  0.3216  0.1272  1.1573
  128OSM    C1413651   3.346   2.161   6.474  0.0105  0.0993 -0.7400
  128OSM   H14A13652   3.393   2.106   6.395  1.5561  1.4249 -0.7993
  128OSM   H14B13653   3.403   2.139   6.563 -0.6436 -0.6581 -0.4929
  128OSM   H14C13654   3.363   2.266   6.456 -1.9192  0.6922  0.5347
  128OSM    C1313655   3.174   1.994   6.513 -0.4783 -0.1617  0.2798
  128OSM   H13A13656   3.216   1.925   6.441  0.1578 -0.9311  1.3656
  128OSM   H13B13657   3.069   1.973   6.530  0.1654 -2.6622  1.6229
  128OSM   H13C13658   3.219   1.967   6.607  0.6524  1.1038  0.1230
  128OSM    C1213659   3.125   2.187   6.368 -0.3298 -0.5303 -0.7132
  128OSM   H12A13660   3.019   2.171   6.378 -0.1640 -0.8535  0.8212
  128OSM   H12B13661   3.165   2.136   6.282 -0.7401 -2.9930  0.4760
  128OSM    C1113662   3.142   2.338   6.338 -0.4143  0.1028  0.0799
  128OSM   H11A13663   3.144   2.392   6.435 -2.7444 -1.8214  1.3159
  128OSM   H11B13664   3.046   2.356   6.284 -1.2540  0.0373  1.5001
  128OSM      P13665   3.305   2.505   6.226 -0.0562  0.1080  0.6633
  128OSM    O1313666   3.402   2.488   6.115 -0.0289  0.4189  0.6585
  128OSM    O1413667   3.186   2.595   6.216  0.4353  0.0337 -0.1932
  128OSM    O1113668   3.392   2.548   6.347 -0.5259  0.3971 -0.5397
  128OSM    O1213669   3.260   2.357   6.262 -0.3245  0.1451 -0.0789
  128OSM    C1S13670   3.521   2.485   6.377  0.3989 -1.0437 -0.1231
  128OSM    H1S13671   3.589   2.506   6.292 -0.0735 -0.9736 -0.4909
  128OSM    H1T13672   3.518   2.374   6.371 -1.2797 -1.0086 -0.6657
  128OSM     NF13673   3.724   2.505   6.525 -0.0548 -0.4831  0.0470
  128OSM    HNF13674   3.752   2.432   6.587 -1.0991 -0.4312  0.6179
  128OSM    C2S13675   3.582   2.532   6.516 -0.0032 -0.0919  0.1237
  128OSM    H2S13676   3.558   2.641   6.520 -1.3371 -0.3854  0.6383
  128OSM    C3S13677   3.496   2.476   6.634  0.0585  0.5735  0.1544
  128OSM    H3S13678   3.523   2.368   6.628 -2.0135  0.0951 -2.0934
  128OSM     O313679   3.356   2.497   6.616 -0.0244 -0.3633 -0.6223
  128OSM    HO313680   3.344   2.544   6.533  0.7587 -2.2633 -1.8925
  128OSM    C4S13681   3.543   2.513   6.773 -0.0673  0.4260  0.5488
  128OSM    H4S13682   3.617   2.440   6.807  1.2551  1.7769  0.6526
  128OSM    C5S13683   3.499   2.619   6.842 -0.7443  0.4315 -0.2638
  128OSM    H5S13684   3.428   2.696   6.809 -1.0402 -0.0995 -0.8992
  128OSM    C6S13685   3.551   2.648   6.978 -0.2216 -0.3529  0.2791
  128OSM    H6S13686   3.549   2.756   7.003  0.2133 -0.2947  0.0736
  128OSM    H6T13687   3.658   2.620   6.983  0.2384  1.2180 -0.3046
  128OSM    C7S13688   3.489   2.561   7.092  0.0628  0.2821 -0.2432
  128OSM    H7S13689   3.501   2.457   7.056 -0.1323 -0.0221  0.5516
  128OSM    H7T13690   3.378   2.564   7.098 -0.3519 -1.1092 -4.1033
  128OSM    C8S13691   3.538   2.573   7.231 -0.2476  0.5038 -0.6154
  128OSM    H8S13692   3.494   2.668   7.269  1.5925  1.6612 -1.1988
  128OSM    H8T13693   3.649   2.587   7.231 -0.1567 -0.0494  0.6385
  128OSM    C9S13694   3.476   2.466   7.323  0.6308 -0.4960  0.0108
  128OSM    H9S13695   3.510   2.367   7.286 -0.9825 -1.3701  0.8051
  128OSM    H9T13696   3.365   2.472   7.318  0.5387 -2.1204 -0.3911
  128OSM   C10S13697   3.530   2.478   7.467  0.1486 -0.1450  0.4480
  128OSM   H10S13698   3.488   2.568   7.517 -1.4576 -1.6682  1.9955
  128OSM   H10T13699   3.641   2.485   7.460  0.1571 -0.4702  0.2427
  128OSM   C11S13700   3.496   2.364   7.561 -0.0857 -0.0688  0.1253
  128OSM   H11S13701   3.502   2.269   7.504  1.7344  0.0140  0.1274
  128OSM   H11T13702   3.395   2.383   7.604  0.4047  0.6438  0.9981
  128OSM   C12S13703   3.583   2.362   7.687 -0.0507  0.7745 -0.8103
  128OSM   H12S13704   3.568   2.451   7.753  0.1554  1.3608 -1.5355
  128OSM   H12T13705   3.689   2.382   7.659 -0.2891  0.9252 -1.6315
  128OSM   C13S13706   3.554   2.235   7.766 -0.1825  0.6392 -0.4084
  128OSM   H13S13707   3.592   2.155   7.700  0.4012  1.1325 -0.6848
  128OSM   H13T13708   3.446   2.218   7.787 -0.3804 -0.2522 -1.9835
  128OSM   C14S13709   3.638   2.226   7.895 -0.0248 -0.3228  0.2996
  128OSM   H14S13710   3.598   2.293   7.975 -1.7321  0.2458 -0.9740
  128OSM   H14T13711   3.747   2.240   7.877 -0.1459 -1.3260 -1.4187
  128OSM   C15S13712   3.634   2.088   7.952 -0.0095  0.3005 -0.2085
  128OSM   H15S13713   3.708   2.024   7.899 -0.3507  0.8768 -1.4094
  128OSM   H15T13714   3.533   2.042   7.944  1.3095 -2.9046 -0.0901
  128OSM   C16S13715   3.668   2.086   8.096  0.1829  0.4267  0.5463
  128OSM   H16S13716   3.596   2.156   8.144  0.3562  2.2211 -1.6346
  128OSM   H16T13717   3.769   2.126   8.121  0.8542 -1.1792  0.5063
  128OSM   C17S13718   3.644   1.942   8.151  0.2094  0.6607 -0.4259
  128OSM   H17S13719   3.727   1.875   8.120 -1.5453 -0.8836 -2.0493
  128OSM   H17T13720   3.547   1.905   8.111 -1.5532  1.7166  2.5266
  128OSM   C18S13721   3.632   1.936   8.307 -0.2227  0.6703  0.0138
  128OSM   H18S13722   3.721   1.965   8.367  1.1832  0.1212 -1.7224
  128OSM   H18T13723   3.619   1.829   8.331  1.7867 -0.2619 -2.5495
  128OSM   H18U13724   3.542   1.987   8.347 -0.2552 -0.5359  1.5472
  128OSM    C1F13725   3.818   2.580   6.462  0.3499 -0.4774 -0.1392
  128OSM     OF13726   3.791   2.681   6.401 -0.1744  1.0446  0.1846
  128OSM    C2F13727   3.964   2.541   6.480  0.4828  0.6475 -0.3385
  128OSM    H2F13728   3.992   2.463   6.406  1.2729 -0.2427  0.8561
  128OSM    H2G13729   3.975   2.497   6.582 -0.3105 -1.0735 -0.9508
  128OSM    C3F13730   4.053   2.667   6.466 -0.2507  0.1639 -0.0441
  128OSM    H3F13731   4.012   2.724   6.552 -0.5470 -2.7209  1.8571
  128OSM    H3G13732   4.030   2.723   6.373  2.3927  1.5478  0.0372
  128OSM    C4F13733   4.197   2.643   6.500 -0.0121 -0.8200  0.2873
  128OSM    H4F13734   4.245   2.742   6.484 -2.5266  0.5798  0.7495
  128OSM    H4G13735   4.230   2.571   6.422 -1.5757 -0.8485 -0.3947
  128OSM    C5F13736   4.220   2.574   6.632 -0.1549  0.6727 -0.3109
  128OSM    H5F13737   4.187   2.468   6.630 -1.1330  0.9032  1.6181
  128OSM    H5G13738   4.164   2.623   6.715 -0.2425 -0.2020  0.1607
  128OSM    C6F13739   4.369   2.577   6.683  0.3645 -0.1127  0.1335
  128OSM    H6F13740   4.427   2.513   6.613 -1.0034 -2.8791  1.3783
  128OSM    H6G13741   4.366   2.523   6.780 -1.2302  0.3287  0.3677
  128OSM    C7F13742   4.432   2.719   6.696  0.6168  0.7658 -0.3810
  128OSM    H7F13743   4.368   2.774   6.768 -2.7682 -3.3906  0.2102
  128OSM    H7G13744   4.445   2.777   6.602  2.4182 -2.0321 -1.9865
  128OSM    C8F13745   4.578   2.704   6.751  1.0837  0.3223  0.4782
  128OSM    H8F13746   4.635   2.635   6.685  0.8821 -1.7389  2.3402
  128OSM    H8G13747   4.557   2.656   6.849 -0.0269  0.0093  0.1033
  128OSM    C9F13748   4.661   2.832   6.771  0.0800 -0.6462  0.5853
  128OSM    H9F13749   4.722   2.865   6.686  1.0753 -2.3796  0.5746
  128OSM   C10F13750   4.668   2.907   6.877  0.3024  0.6389  0.6236
  128OSM   H10F13751   4.713   3.007   6.873  0.7175  0.4944 -4.1863
  128OSM   C11F13752   4.588   2.888   7.004  0.2276  0.2846 -0.5162
  128OSM   H11F13753   4.493   2.837   6.978  0.3810 -1.1382  1.5141
  128OSM   H11G13754   4.558   2.982   7.054  1.6093  0.4067  0.1153
  128OSM   C12F13755   4.669   2.796   7.105  0.2534 -0.4011  0.4696
  128OSM   H12F13756   4.747   2.867   7.140 -1.8413  2.1120  0.3968
  128OSM   H12G13757   4.722   2.713   7.054  1.2421 -0.4007  1.4547
  128OSM   C13F13758   4.585   2.741   7.225  0.0624  0.1435  0.2270
  128OSM   H13F13759   4.521   2.656   7.192 -1.8044  1.3671  0.5323
  128OSM   H13G13760   4.509   2.813   7.262  0.3468 -0.4893  2.1564
  128OSM   C14F13761   4.670   2.691   7.341 -0.2253  0.6089 -0.1052
  128OSM   H14F13762   4.741   2.771   7.369  0.2324  0.5760 -1.1217
  128OSM   H14G13763   4.737   2.611   7.303 -3.1440 -1.8650 -0.3617
  128OSM   C15F13764   4.583   2.650   7.461 -0.8723  0.3141 -0.3392
  128OSM   H15F13765   4.538   2.551   7.440  0.7937 -0.7501  0.8999
  128OSM   H15G13766   4.497   2.719   7.478 -0.5558  0.6327 -0.0080
  128OSM   C16F13767   4.676   2.632   7.586  0.2735  0.0398  0.0731
  128OSM   H16F13768   4.721   2.730   7.611 -2.3195  2.0097 -2.2762
  128OSM   H16G13769   4.755   2.559   7.558  2.6290  2.0985  0.9600
  128OSM   C17F13770   4.606   2.588   7.713 -0.2873  0.4407  0.3470
  128OSM   H17F13771   4.525   2.515   7.689 -1.1944  1.2013  1.0226
  128OSM   H17G13772   4.556   2.673   7.763  0.3236  0.6943  0.5389
  128OSM   C18F13773   4.713   2.526   7.808 -1.3953 -0.4211 -0.5868
  128OSM   H18F13774   4.669   2.517   7.909  0.7040  4.0280  1.0037
  128OSM   H18G13775   4.786   2.608   7.827 -1.7622 -0.4634  1.1434
  128OSM   H18H13776   4.749   2.428   7.771  1.7823  0.2957  0.3539
  129OSM      N13777   1.696   6.520   6.186 -0.2326 -0.2402 -0.4810
  129OSM    C1513778   1.714   6.595   6.317  0.2536 -0.3040  0.3892
  129OSM   H15A13779   1.771   6.533   6.384  0.1785  0.1245  0.8592
  129OSM   H15B13780   1.622   6.626   6.366  1.1857 -0.0736  2.1046
  129OSM   H15C13781   1.781   6.676   6.295 -2.8370  1.9551 -1.5909
  129OSM    C1413782   1.615   6.601   6.087  0.6321 -0.5893 -0.1028
  129OSM   H14A13783   1.522   6.626   6.137  1.1938 -3.4110  2.7139
  129OSM   H14B13784   1.606   6.539   5.999 -2.0934 -1.8372  0.9387
  129OSM   H14C13785   1.660   6.692   6.051 -1.3971  1.2859  1.7743
  129OSM    C1313786   1.836   6.507   6.127  1.1693 -0.1065  0.1235
  129OSM   H13A13787   1.880   6.603   6.104  1.7926 -0.4398 -0.1004
  129OSM   H13B13788   1.828   6.451   6.035 -0.5339  2.9963 -1.8260
  129OSM   H13C13789   1.899   6.449   6.193  0.0492 -0.3452  1.0113
  129OSM    C1213790   1.633   6.381   6.196  0.5789 -0.2187  0.4099
  129OSM   H12A13791   1.620   6.332   6.101 -2.1537  0.7703  0.2002
  129OSM   H12B13792   1.530   6.388   6.227  0.0421  1.4279 -1.5467
  129OSM    C1113793   1.687   6.276   6.290 -0.0868 -0.5072 -0.0050
  129OSM   H11A13794   1.615   6.191   6.300 -0.2913 -0.3846 -0.4211
  129OSM   H11B13795   1.691   6.327   6.389  2.5408  2.9303 -1.6788
  129OSM      P13796   1.846   6.147   6.134 -0.3167  0.2184  0.4123
  129OSM    O1313797   1.737   6.048   6.113 -0.2611 -0.1223  0.1218
  129OSM    O1413798   1.888   6.228   6.014  0.2492  0.3518 -0.4345
  129OSM    O1113799   1.971   6.059   6.177 -0.1159  0.0518  0.0605
  129OSM    O1213800   1.821   6.230   6.262 -0.0157  0.1728 -0.0879
  129OSM    C1S13801   2.071   6.097   6.266 -0.8589  0.3261  0.2958
  129OSM    H1S13802   2.106   6.197   6.232 -0.2967 -0.1091 -0.4371
  129OSM    H1T13803   2.153   6.024   6.249 -2.1448 -1.4170  1.2629
  129OSM     NF13804   2.175   6.143   6.488  0.3271  0.3724  0.5667
  129OSM    HNF13805   2.236   6.070   6.516  1.3324  0.7491 -0.5652
  129OSM    C2S13806   2.043   6.103   6.425 -1.0555  0.2736 -0.5006
  129OSM    H2S13807   1.967   6.182   6.441  0.0567  1.4014 -0.5870
  129OSM    C3S13808   1.990   5.964   6.468  0.4537 -0.5254  0.3063
  129OSM    H3S13809   2.071   5.892   6.442 -0.1113 -0.5990 -1.3627
  129OSM     O313810   1.887   5.907   6.387  0.6379  0.6653 -0.3710
  129OSM    HO313811   1.883   5.960   6.307 -1.4787  1.5361  0.2348
  129OSM    C4S13812   1.957   5.977   6.621 -0.8811 -0.6272  0.2306
  129OSM    H4S13813   2.050   5.977   6.679 -0.0159  1.3162 -1.0686
  129OSM    C5S13814   1.838   5.990   6.687 -0.3951 -0.9272 -0.4262
  129OSM    H5S13815   1.747   5.999   6.626  0.9288 -0.2131 -2.4049
  129OSM    C6S13816   1.812   5.983   6.840 -0.4862  0.7236  0.7386
  129OSM    H6S13817   1.880   5.902   6.873 -1.8751 -2.6071 -3.5436
  129OSM    H6T13818   1.713   5.939   6.867 -0.3581 -1.9390 -2.4486
  129OSM    C7S13819   1.829   6.118   6.899 -0.0223 -0.0824  0.0782
  129OSM    H7S13820   1.755   6.187   6.853  0.5183  0.5220  0.1038
  129OSM    H7T13821   1.925   6.155   6.857  0.0405 -0.8554 -0.4895
  129OSM    C8S13822   1.830   6.126   7.051  0.3453 -0.3435  0.2033
  129OSM    H8S13823   1.726   6.108   7.086 -0.2711 -0.7260 -1.7283
  129OSM    H8T13824   1.843   6.232   7.080  1.1919 -0.4182  0.1246
  129OSM    C9S13825   1.931   6.038   7.124  0.2605 -0.3379 -0.4350
  129OSM    H9S13826   2.028   6.067   7.078  0.1860 -1.5471 -1.4150
  129OSM    H9T13827   1.909   5.933   7.097  1.0414 -0.3617 -1.0029
  129OSM   C10S13828   1.931   6.051   7.273  1.1428 -0.7886 -0.7181
  129OSM   H10S13829   1.922   6.160   7.291  0.3192 -0.7694 -1.1780
  129OSM   H10T13830   2.027   6.022   7.321  0.0509  0.2387  2.3116
  129OSM   C11S13831   1.809   5.978   7.329  0.0508  0.1947 -0.7778
  129OSM   H11S13832   1.815   5.870   7.303 -0.1816 -0.3582  1.2625
  129OSM   H11T13833   1.709   6.012   7.294 -0.0815  2.6022  1.5630
  129OSM   C12S13834   1.796   5.991   7.483 -0.8105 -0.9603 -0.6140
  129OSM   H12S13835   1.717   5.927   7.527  0.8511 -2.2359  0.6568
  129OSM   H12T13836   1.773   6.098   7.497 -0.2772 -0.9797  0.5489
  129OSM   C13S13837   1.928   5.956   7.569  0.5054  0.6102  0.7044
  129OSM   H13S13838   2.024   5.985   7.522  0.7428  0.3233  0.9958
  129OSM   H13T13839   1.930   5.844   7.569 -2.3886  0.4264 -2.6297
  129OSM   C14S13840   1.921   6.022   7.709  0.1689 -0.1267  0.7239
  129OSM   H14S13841   1.852   5.974   7.782 -1.3447  2.3591  1.0725
  129OSM   H14T13842   1.901   6.131   7.696 -3.7375 -0.8438 -0.7192
  129OSM   C15S13843   2.059   6.021   7.776  0.3725 -0.1378 -0.0046
  129OSM   H15S13844   2.130   6.086   7.721  1.2384 -0.5083  0.6558
  129OSM   H15T13845   2.104   5.919   7.772  1.5236  0.2604  1.6417
  129OSM   C16S13846   2.069   6.055   7.931  0.4547 -0.7744  0.0641
  129OSM   H16S13847   2.045   6.163   7.940 -3.1006 -1.5514  1.8680
  129OSM   H16T13848   2.175   6.046   7.965  0.6403  3.0693  1.0049
  129OSM   C17S13849   1.969   5.997   8.029 -0.0752 -0.1194 -0.2122
  129OSM   H17S13850   1.980   5.887   8.022 -1.1803 -0.2380 -0.3483
  129OSM   H17T13851   1.864   6.032   8.016  0.3359  2.0059  1.5631
  129OSM   C18S13852   1.993   6.026   8.179  0.2572 -0.6401  0.5965
  129OSM   H18S13853   1.914   5.986   8.246  1.5146  1.9525  3.9329
  129OSM   H18T13854   1.996   6.138   8.178  0.7081 -0.6515  0.4877
  129OSM   H18U13855   2.095   5.990   8.204 -0.5864 -3.1275  0.7448
  129OSM    C1F13856   2.224   6.264   6.486  0.5275 -0.5583  0.7524
  129OSM     OF13857   2.151   6.352   6.437 -0.5582  0.4832 -0.3311
  129OSM    C2F13858   2.361   6.284   6.522  0.2383 -0.4991 -0.2188
  129OSM    H2F13859   2.403   6.364   6.457 -1.5657 -0.6700 -1.6621
  129OSM    H2G13860   2.422   6.192   6.527  1.8664  0.5951  1.2229
  129OSM    C3F13861   2.375   6.358   6.661  0.7927  0.5270 -0.7652
  129OSM    H3F13862   2.312   6.449   6.665 -0.7207 -0.4771 -0.8556
  129OSM    H3G13863   2.480   6.394   6.668  0.2622  1.8320  3.0627
  129OSM    C4F13864   2.362   6.260   6.786 -0.1706  0.3115 -0.0562
  129OSM    H4F13865   2.449   6.193   6.801 -0.9400 -0.3687  1.5614
  129OSM    H4G13866   2.274   6.196   6.768  0.7260 -0.7059 -0.9325
  129OSM    C5F13867   2.346   6.344   6.921  0.2260  0.2940  0.0935
  129OSM    H5F13868   2.244   6.387   6.927  0.4869  0.8658  0.4534
  129OSM    H5G13869   2.414   6.431   6.913  0.5288  0.0523 -0.0053
  129OSM    C6F13870   2.365   6.252   7.044  0.8822 -0.1321  0.5920
  129OSM    H6F13871   2.469   6.213   7.054  1.3498  0.9426  0.1107
  129OSM    H6G13872   2.296   6.166   7.034 -1.0186  1.0816  2.2639
  129OSM    C7F13873   2.322   6.320   7.174  0.7868  0.0334  0.3823
  129OSM    H7F13874   2.214   6.345   7.167  0.6572 -0.1131  1.6839
  129OSM    H7G13875   2.389   6.408   7.185 -1.7291  2.3337 -1.1258
  129OSM    C8F13876   2.332   6.229   7.305 -0.1213 -0.0939  0.1461
  129OSM    H8F13877   2.438   6.213   7.335 -0.2428 -1.5150 -0.1108
  129OSM    H8G13878   2.291   6.130   7.277 -1.4962  0.2168  0.9668
  129OSM    C9F13879   2.257   6.271   7.428  0.4096  0.0967  0.3487
  129OSM    H9F13880   2.157   6.311   7.404 -0.1662 -0.6893  1.3724
  129OSM   C10F13881   2.287   6.259   7.557  0.4780  0.3685 -0.4365
  129OSM   H10F13882   2.223   6.296   7.639 -0.6976  0.8837 -1.5465
  129OSM   C11F13883   2.419   6.202   7.619 -0.2393  0.1920  0.2223
  129OSM   H11F13884   2.484   6.164   7.537 -1.5574 -0.4173 -0.5773
  129OSM   H11G13885   2.400   6.117   7.689 -0.8318  0.6043  0.5601
  129OSM   C12F13886   2.499   6.307   7.695 -0.0222 -0.2240  0.7707
  129OSM   H12F13887   2.498   6.404   7.642  1.4198  0.7560  2.4483
  129OSM   H12G13888   2.604   6.275   7.708 -0.1326 -1.3445 -0.7985
  129OSM   C13F13889   2.440   6.329   7.830  0.5499  0.0141  0.8591
  129OSM   H13F13890   2.329   6.341   7.828  0.2018 -2.6045 -0.6203
  129OSM   H13G13891   2.477   6.430   7.857  2.4881 -0.3148 -0.4388
  129OSM   C14F13892   2.494   6.239   7.946 -0.1686 -0.5244 -0.2439
  129OSM   H14F13893   2.588   6.281   7.988 -0.2683 -1.0330  0.5154
  129OSM   H14G13894   2.508   6.133   7.915  0.0902 -0.6967  0.4351
  129OSM   C15F13895   2.388   6.232   8.062  0.1408 -0.0412  0.0278
  129OSM   H15F13896   2.287   6.219   8.016 -0.2869  0.9909  0.6378
  129OSM   H15G13897   2.387   6.328   8.117 -0.1212  0.2817 -0.5281
  129OSM   C16F13898   2.435   6.115   8.163  0.6970 -0.0265 -0.3275
  129OSM   H16F13899   2.542   6.130   8.187  0.5925 -1.6727  1.4181
  129OSM   H16G13900   2.434   6.012   8.120  1.1571  0.0971 -0.6429
  129OSM   C17F13901   2.359   6.110   8.299  0.5194 -0.8560  0.0937
  129OSM   H17F13902   2.252   6.100   8.273  0.3427 -1.8873  1.1415
  129OSM   H17G13903   2.365   6.212   8.340  1.7146 -0.2725 -1.4407
  129OSM   C18F13904   2.391   5.995   8.396 -0.1355  0.4060 -0.1981
  129OSM   H18F13905   2.486   6.009   8.450 -1.9976  2.3818  2.8516
  129OSM   H18G13906   2.399   5.898   8.342 -1.3911  0.6911 -0.9590
  129OSM   H18H13907   2.317   5.986   8.479  1.0551  1.8703  1.0619
  130OSM      N13908   2.720   2.583   5.994 -0.4018  0.0636 -0.0951
  130OSM    C1513909   2.601   2.674   5.967 -0.2068 -1.3091  0.4828
  130OSM   H15A13910   2.629   2.775   5.993  1.0119 -1.1746 -1.2269
  130OSM   H15B13911   2.510   2.656   6.023 -0.0899  1.5054  1.7760
  130OSM   H15C13912   2.576   2.663   5.863  0.1294  1.6780 -0.0007
  130OSM    C1413913   2.675   2.442   5.946  0.5635  0.4768  0.2859
  130OSM   H14A13914   2.585   2.408   5.994  0.3733 -0.7227 -0.8353
  130OSM   H14B13915   2.760   2.376   5.955  0.3274 -0.6040 -3.4925
  130OSM   H14C13916   2.653   2.443   5.840  1.0199 -0.6827  0.1640
  130OSM    C1313917   2.830   2.635   5.914 -0.1038  0.3646 -0.6795
  130OSM   H13A13918   2.792   2.636   5.812  0.6278 -0.0747 -0.9652
  130OSM   H13B13919   2.922   2.578   5.909 -0.5997 -0.5727  0.4584
  130OSM   H13C13920   2.857   2.734   5.945  0.7397 -0.3947  1.1314
  130OSM    C1213921   2.753   2.577   6.143  0.1470 -0.0073  0.3630
  130OSM   H12A13922   2.659   2.548   6.189 -0.2922 -0.3478 -0.6882
  130OSM   H12B13923   2.775   2.674   6.183  0.6670  0.6873 -1.5008
  130OSM    C1113924   2.860   2.475   6.185 -0.3537  0.3581 -0.3723
  130OSM   H11A13925   2.920   2.515   6.269  0.3366 -2.7704  0.7710
  130OSM   H11B13926   2.937   2.456   6.107 -0.0207 -0.8583  0.2172
  130OSM      P13927   2.735   2.289   6.331  0.0662  0.1885 -0.0329
  130OSM    O1313928   2.597   2.247   6.298  0.5630  0.7048  0.3164
  130OSM    O1413929   2.826   2.189   6.392 -0.1275  0.5105  0.1603
  130OSM    O1113930   2.729   2.411   6.432 -0.1859  0.2231 -0.3829
  130OSM    O1213931   2.806   2.342   6.208 -0.5354 -0.5601 -0.1635
  130OSM    C1S13932   2.641   2.415   6.544 -0.3773 -0.2056  0.5061
  130OSM    H1S13933   2.644   2.323   6.604 -0.5020 -1.6370 -1.5658
  130OSM    H1T13934   2.536   2.432   6.509  0.3108  0.1879 -1.5190
  130OSM     NF13935   2.638   2.512   6.770  0.1664 -0.3003 -0.6175
  130OSM    HNF13936   2.550   2.555   6.793 -0.7255 -1.9914 -0.7119
  130OSM    C2S13937   2.688   2.537   6.637 -0.0028  0.3073  0.2132
  130OSM    H2S13938   2.799   2.527   6.646 -0.1241 -2.3956 -0.4496
  130OSM    C3S13939   2.654   2.668   6.575 -0.0010 -0.9906 -0.0099
  130OSM    H3S13940   2.545   2.675   6.554 -0.2614 -1.7944  0.9978
  130OSM     O313941   2.714   2.684   6.440 -0.0032 -1.0357 -0.1365
  130OSM    HO313942   2.749   2.602   6.406 -0.4156 -0.4507 -2.1012
  130OSM    C4S13943   2.712   2.796   6.645 -0.5023  0.0120  0.3362
  130OSM    H4S13944   2.820   2.815   6.646 -0.3255 -0.5343 -1.7132
  130OSM    C5S13945   2.624   2.875   6.712  0.7100 -0.5469 -0.4134
  130OSM    H5S13946   2.516   2.855   6.710 -0.2678  3.4689  1.5040
  130OSM    C6S13947   2.654   3.002   6.791  0.2346 -0.3833  0.2843
  130OSM    H6S13948   2.617   3.091   6.736 -2.3030 -2.6060 -1.9056
  130OSM    H6T13949   2.764   3.009   6.801  1.4568  0.4725 -7.4733
  130OSM    C7S13950   2.586   2.994   6.927  0.3923  0.1220 -0.2617
  130OSM    H7S13951   2.604   2.901   6.985 -2.4900  0.2067  0.9595
  130OSM    H7T13952   2.476   2.978   6.918  0.2203  0.2261  1.4083
  130OSM    C8S13953   2.596   3.119   7.019 -0.7635 -0.4711  0.4601
  130OSM    H8S13954   2.545   3.206   6.972  0.7495  0.9516  1.3177
  130OSM    H8T13955   2.704   3.144   7.032 -0.4696 -0.0429 -2.1637
  130OSM    C9S13956   2.516   3.107   7.155 -0.3148  0.3149 -0.6121
  130OSM    H9S13957   2.424   3.048   7.136  0.2481 -1.9865  3.0626
  130OSM    H9T13958   2.490   3.210   7.187 -0.4387 -0.4902  2.0851
  130OSM   C10S13959   2.585   3.044   7.277  1.0560  0.7630 -0.0252
  130OSM   H10S13960   2.664   3.112   7.316 -0.0071  1.9150  0.1863
  130OSM   H10T13961   2.627   2.944   7.253 -0.4140  0.5162 -1.7247
  130OSM   C11S13962   2.486   3.020   7.391 -0.5967  0.1082  0.1775
  130OSM   H11S13963   2.445   2.917   7.394  0.2992 -0.2620  3.0268
  130OSM   H11T13964   2.396   3.080   7.367 -0.1864  0.4949 -0.4434
  130OSM   C12S13965   2.532   3.050   7.530 -0.3426  0.2776  0.2478
  130OSM   H12S13966   2.457   3.020   7.606  0.0141 -1.0705  0.0915
  130OSM   H12T13967   2.528   3.159   7.552 -1.6343  0.2557  0.1763
  130OSM   C13S13968   2.668   2.978   7.563 -0.0201 -0.3579 -0.2921
  130OSM   H13S13969   2.742   3.002   7.484  0.6566  0.5139  0.5906
  130OSM   H13T13970   2.656   2.868   7.554 -2.2752 -0.2040  0.0954
  130OSM   C14S13971   2.720   3.001   7.709 -0.6282  0.0275  0.2336
  130OSM   H14S13972   2.826   2.969   7.711  0.2023  2.4618 -0.6538
  130OSM   H14T13973   2.656   2.937   7.773 -2.3865 -0.5311 -1.9655
  130OSM   C15S13974   2.710   3.147   7.754 -0.5992  0.0008 -0.1434
  130OSM   H15S13975   2.605   3.169   7.784  0.0837  2.2290  0.7976
  130OSM   H15T13976   2.724   3.222   7.673 -3.2167  2.1072  1.1982
  130OSM   C16S13977   2.797   3.182   7.872 -0.2131  1.4008  0.2127
  130OSM   H16S13978   2.814   3.292   7.880 -3.3200  2.1420 -1.5057
  130OSM   H16T13979   2.890   3.127   7.847  0.4076  2.6240 -0.2559
  130OSM   C17S13980   2.731   3.146   8.008  0.0140  0.5196 -0.2527
  130OSM   H17S13981   2.694   3.042   8.022  1.7855  0.2383  3.7774
  130OSM   H17T13982   2.653   3.216   8.044  0.8289 -0.4695  4.0370
  130OSM   C18S13983   2.834   3.161   8.125 -0.0506 -0.5122 -0.6636
  130OSM   H18S13984   2.916   3.086   8.116 -0.1483 -0.9968  1.7895
  130OSM   H18T13985   2.790   3.149   8.226 -0.6852  2.6312 -0.4687
  130OSM   H18U13986   2.881   3.262   8.122 -0.0766 -0.5099 -0.9983
  130OSM    C1F13987   2.691   2.425   6.857  0.3991 -0.2216 -0.6289
  130OSM     OF13988   2.776   2.343   6.824 -0.6437  0.0867  0.2690
  130OSM    C2F13989   2.653   2.448   7.001 -0.3638 -0.6149 -0.6625
  130OSM    H2F13990   2.543   2.460   7.009  0.0075  2.2406  3.3511
  130OSM    H2G13991   2.699   2.536   7.052 -2.0372  0.2003 -0.4958
  130OSM    C3F13992   2.696   2.337   7.102 -0.2347  0.2941  0.3173
  130OSM    H3F13993   2.806   2.319   7.098 -0.4199 -1.1538  1.1149
  130OSM    H3G13994   2.661   2.238   7.065 -0.0147  0.7224 -1.1028
  130OSM    C4F13995   2.652   2.356   7.245  0.6200 -1.2674  0.0060
  130OSM    H4F13996   2.543   2.343   7.233  0.6555 -2.1895  0.6122
  130OSM    H4G13997   2.668   2.460   7.281 -3.1968 -0.7863  0.6536
  130OSM    C5F13998   2.710   2.257   7.343  0.4100  0.1248  0.6064
  130OSM    H5F13999   2.820   2.270   7.336  0.0738  3.3357 -0.4744
  130OSM    H5G14000   2.685   2.152   7.316 -0.4665 -0.0155  1.8947
  130OSM    C6F14001   2.660   2.285   7.486 -0.0641  0.1637 -0.4525
  130OSM    H6F14002   2.648   2.394   7.498  2.5445  0.4182  0.5083
  130OSM    H6G14003   2.740   2.241   7.550 -1.4085  0.4953  1.5448
  130OSM    C7F14004   2.529   2.209   7.510  0.2037  0.1484  0.7561
  130OSM    H7F14005   2.532   2.111   7.458 -0.1809  1.1001 -1.1318
  130OSM    H7G14006   2.447   2.258   7.453  0.8599  2.1076  1.4154
  130OSM    C8F14007   2.493   2.203   7.655  0.2829  0.5830 -1.0044
  130OSM    H8F14008   2.396   2.153   7.679  0.0516  1.2828 -0.4365
  130OSM    H8G14009   2.491   2.311   7.680  1.2671  0.8223 -1.9395
  130OSM    C9F14010   2.596   2.135   7.743 -0.7184  0.6294 -0.0217
  130OSM    H9F14011   2.594   2.025   7.732  1.3918 -0.0262  4.0335
  130OSM   C10F14012   2.689   2.176   7.827 -0.2586  0.9737  0.4673
  130OSM   H10F14013   2.740   2.094   7.880 -1.4337  0.9173  1.5607
  130OSM   C11F14014   2.736   2.314   7.867  0.1001 -0.0898  0.0537
  130OSM   H11F14015   2.685   2.391   7.806 -2.1381 -0.8568  0.8475
  130OSM   H11G14016   2.844   2.327   7.845  0.0237  0.2716 -0.1188
  130OSM   C12F14017   2.713   2.341   8.014  0.7257  0.2964 -0.1004
  130OSM   H12F14018   2.755   2.437   8.050  0.3117 -0.5811  2.9429
  130OSM   H12G14019   2.748   2.251   8.069 -0.7170 -0.4460 -0.3507
  130OSM   C13F14020   2.560   2.344   8.049 -0.1101 -0.4741  0.2553
  130OSM   H13F14021   2.522   2.244   8.017  1.8000 -1.3044  0.4483
  130OSM   H13G14022   2.505   2.427   8.000 -0.3881 -0.1072  1.1748
  130OSM   C14F14023   2.540   2.349   8.199 -0.4126 -0.3605 -0.4865
  130OSM   H14F14024   2.607   2.270   8.241 -0.7200 -0.9672 -1.1159
  130OSM   H14G14025   2.437   2.314   8.224 -2.1943  4.2482 -0.5230
  130OSM   C15F14026   2.549   2.485   8.272  1.0447  0.1690  0.4539
  130OSM   H15F14027   2.463   2.544   8.232  1.2808  0.2157  0.0014
  130OSM   H15G14028   2.640   2.535   8.233 -0.8566  3.0319 -0.7228
  130OSM   C16F14029   2.532   2.470   8.419 -0.2111 -0.0446 -0.4000
  130OSM   H16F14030   2.605   2.542   8.461  1.5011 -0.5003 -2.4043
  130OSM   H16G14031   2.571   2.367   8.440  1.8675  0.5227 -1.1750
  130OSM   C17F14032   2.388   2.509   8.470 -0.1197  0.9082 -0.0253
  130OSM   H17F14033   2.391   2.469   8.574  1.8755 -1.0135 -0.7619
  130OSM   H17G14034   2.309   2.455   8.415 -0.0023  0.5556  0.1498
  130OSM   C18F14035   2.352   2.660   8.474  0.0651  1.0354  0.6027
  130OSM   H18F14036   2.410   2.710   8.555  0.5947  1.8093 -0.2354
  130OSM   H18G14037   2.242   2.671   8.490  0.1048  5.5350 -0.7142
  130OSM   H18H14038   2.373   2.712   8.378  2.9315  1.5707  1.4177
  131OSM      N14039   3.479   5.429   6.256 -0.6148 -0.7733  0.0901
  131OSM    C1514040   3.418   5.459   6.126 -0.1351 -0.4861 -0.0132
  131OSM   H15A14041   3.346   5.381   6.110  0.3295 -1.1385  0.9740
  131OSM   H15B14042   3.481   5.455   6.038  1.9722 -1.0969  1.4574
  131OSM   H15C14043   3.365   5.553   6.124 -2.0563 -1.5269 -0.6270
  131OSM    C1414044   3.553   5.551   6.300 -0.5085 -0.5300 -1.1354
  131OSM   H14A14045   3.608   5.520   6.388  0.7190  0.2252 -1.6122
  131OSM   H14B14046   3.482   5.630   6.316  1.7816  1.4645 -0.0932
  131OSM   H14C14047   3.633   5.578   6.232  1.5289 -2.1375  0.4646
  131OSM    C1314048   3.372   5.402   6.356  0.3265 -0.0958  0.1546
  131OSM   H13A14049   3.415   5.367   6.449 -2.0368 -1.3745  0.8347
  131OSM   H13B14050   3.305   5.324   6.325 -1.4862  0.6997  1.8550
  131OSM   H13C14051   3.311   5.487   6.383 -0.7940 -0.8508  0.0569
  131OSM    C1214052   3.566   5.307   6.233  0.8075  0.4657  0.6421
  131OSM   H12A14053   3.644   5.327   6.162 -0.9178  4.0818 -0.4824
  131OSM   H12B14054   3.500   5.233   6.190 -0.7705  1.6438  0.9468
  131OSM    C1114055   3.647   5.247   6.347  0.3474  0.0344 -0.1600
  131OSM   H11A14056   3.693   5.153   6.308  1.0251  0.3385 -0.1016
  131OSM   H11B14057   3.575   5.211   6.424  0.2610 -2.8553 -1.4384
  131OSM      P14058   3.860   5.372   6.296 -0.1820  0.4634  0.3410
  131OSM    O1314059   3.905   5.245   6.227 -0.2260 -0.1455 -0.4451
  131OSM    O1414060   3.834   5.491   6.214  0.2812  0.2122 -0.4437
  131OSM    O1114061   3.968   5.406   6.396 -0.9257 -0.3234  0.1083
  131OSM    O1214062   3.740   5.338   6.394  0.0944  0.5256 -0.6008
  131OSM    C1S14063   3.966   5.513   6.487 -0.5171  0.2983 -0.1267
  131OSM    H1S14064   3.888   5.587   6.456 -0.0747  0.8855  0.1405
  131OSM    H1T14065   4.061   5.569   6.474  0.3538 -1.2714 -0.7159
  131OSM     NF14066   3.939   5.587   6.706  0.7526  0.4058 -0.2672
  131OSM    HNF14067   4.013   5.648   6.732  1.0033  0.3714 -0.8745
  131OSM    C2S14068   3.954   5.464   6.630  0.2440  0.3044 -0.5893
  131OSM    H2S14069   3.853   5.418   6.635 -0.6915  2.2103 -0.9310
  131OSM    C3S14070   4.072   5.371   6.672 -1.0529  0.7255 -1.4799
  131OSM    H3S14071   4.170   5.418   6.651 -0.2889  0.3570  1.0508
  131OSM     O314072   4.065   5.244   6.613 -0.2301  0.9375 -0.0485
  131OSM    HO314073   3.994   5.253   6.549  1.6096 -0.6555 -2.5206
  131OSM    C4S14074   4.071   5.333   6.820  0.0001  0.1013 -0.1931
  131OSM    H4S14075   3.981   5.277   6.849  0.4083 -1.4544 -1.7738
  131OSM    C5S14076   4.151   5.371   6.921 -0.7540  0.2850  0.4940
  131OSM    H5S14077   4.225   5.451   6.904 -1.1618  1.0907  2.1985
  131OSM    C6S14078   4.134   5.329   7.067  0.5909  0.0213  0.1457
  131OSM    H6S14079   4.036   5.280   7.089  0.6354 -0.6970 -1.1697
  131OSM    H6T14080   4.129   5.420   7.129 -0.4151 -0.4692  0.8214
  131OSM    C7S14081   4.230   5.226   7.111  0.1082 -0.3074  0.2042
  131OSM    H7S14082   4.332   5.269   7.101 -0.7713  1.8906  0.1158
  131OSM    H7T14083   4.225   5.136   7.046  1.2804 -1.4760  1.6514
  131OSM    C8S14084   4.211   5.183   7.251  0.2707 -0.2975 -0.1643
  131OSM    H8S14085   4.288   5.111   7.286  0.0434 -1.5813 -2.1539
  131OSM    H8T14086   4.112   5.136   7.265 -1.6196  3.0005 -1.3183
  131OSM    C9S14087   4.214   5.302   7.351  0.3386 -0.1454 -0.0235
  131OSM    H9S14088   4.117   5.354   7.359  0.0413 -0.7871  0.6759
  131OSM    H9T14089   4.297   5.370   7.323  1.1888 -0.4490  1.6290
  131OSM   C10S14090   4.239   5.255   7.500 -0.5637  0.0108  0.3705
  131OSM   H10S14091   4.324   5.183   7.492 -1.2518 -0.8795  0.9283
  131OSM   H10T14092   4.150   5.199   7.535 -1.9563  1.1987 -1.1083
  131OSM   C11S14093   4.286   5.366   7.590 -0.0265  0.0101 -0.4348
  131OSM   H11S14094   4.207   5.444   7.593 -0.0093  0.0497 -1.0159
  131OSM   H11T14095   4.379   5.414   7.556  0.3318 -2.6303 -3.6902
  131OSM   C12S14096   4.307   5.313   7.737  0.1499  0.6417  0.4763
  131OSM   H12S14097   4.394   5.244   7.735  1.1646  1.8779  0.6272
  131OSM   H12T14098   4.213   5.270   7.776 -0.4982  0.5114 -1.1489
  131OSM   C13S14099   4.365   5.413   7.837  0.2586 -0.1397 -0.5234
  131OSM   H13S14100   4.322   5.515   7.836  0.4434 -0.0380  0.6629
  131OSM   H13T14101   4.472   5.427   7.812  0.2164 -1.4270 -1.5249
  131OSM   C14S14102   4.369   5.368   7.984  0.6754  0.1913  0.1155
  131OSM   H14S14103   4.270   5.326   8.014  0.6225 -0.8733 -1.4602
  131OSM   H14T14104   4.383   5.449   8.058 -1.6151  2.4963 -1.7894
  131OSM   C15S14105   4.461   5.244   7.996 -0.2752 -0.1475 -1.0147
  131OSM   H15S14106   4.567   5.279   8.001 -0.8448  1.4983  1.3243
  131OSM   H15T14107   4.454   5.170   7.914 -2.2854  0.4021 -1.3896
  131OSM   C16S14108   4.441   5.154   8.121 -0.0896 -0.2951  0.0810
  131OSM   H16S14109   4.503   5.062   8.127 -0.7235 -0.8995 -1.9184
  131OSM   H16T14110   4.339   5.111   8.133 -0.3382  1.0501  4.6892
  131OSM   C17S14111   4.457   5.231   8.256  0.2979  0.5627 -0.0890
  131OSM   H17S14112   4.395   5.323   8.262 -2.9621 -1.3638 -1.4866
  131OSM   H17T14113   4.563   5.259   8.275 -0.0401  1.3307  0.7403
  131OSM   C18S14114   4.414   5.153   8.373  0.4565 -0.5825  0.3293
  131OSM   H18S14115   4.451   5.048   8.382 -0.6792 -0.9481  0.9238
  131OSM   H18T14116   4.306   5.131   8.359  0.2297 -0.8351  2.2512
  131OSM   H18U14117   4.409   5.223   8.459 -1.6232 -1.2183  0.7937
  131OSM    C1F14118   3.820   5.649   6.712  0.3612  0.0801 -0.0727
  131OSM     OF14119   3.733   5.617   6.642  0.8957 -0.4234 -0.1995
  131OSM    C2F14120   3.810   5.776   6.794  0.4042  0.4752  0.3816
  131OSM    H2F14121   3.832   5.865   6.731 -1.2391  1.5855  1.2782
  131OSM    H2G14122   3.895   5.773   6.865  2.1376  0.6859 -1.5914
  131OSM    C3F14123   3.681   5.788   6.884 -0.5610 -0.0255 -1.0720
  131OSM    H3F14124   3.602   5.804   6.807 -1.2113 -2.3078 -0.9681
  131OSM    H3G14125   3.700   5.880   6.943 -0.5807 -1.6767  1.6950
  131OSM    C4F14126   3.648   5.672   6.969 -0.4251  0.0490  0.8499
  131OSM    H4F14127   3.612   5.586   6.909 -0.4190 -1.3439  2.7444
  131OSM    H4G14128   3.554   5.694   7.024 -0.4178  1.4947  0.3229
  131OSM    C5F14129   3.753   5.621   7.062  0.6474  0.5627  0.2415
  131OSM    H5F14130   3.780   5.713   7.118 -0.5381  1.2220 -0.2409
  131OSM    H5G14131   3.845   5.584   7.012  1.1783  0.9394  0.9181
  131OSM    C6F14132   3.697   5.514   7.159 -0.7372  0.2871  0.3629
  131OSM    H6F14133   3.693   5.416   7.106  1.8214 -0.6789  1.7696
  131OSM    H6G14134   3.595   5.542   7.194 -1.3992 -0.8576 -0.5857
  131OSM    C7F14135   3.790   5.489   7.285 -0.0896  0.0861  0.5897
  131OSM    H7F14136   3.810   5.587   7.332  0.7248  0.0439  0.3490
  131OSM    H7G14137   3.881   5.456   7.230  0.3487  3.0155 -0.6346
  131OSM    C8F14138   3.726   5.367   7.363  0.5575  0.1515 -0.1548
  131OSM    H8F14139   3.687   5.287   7.297 -1.7024  0.7154  0.3958
  131OSM    H8G14140   3.635   5.410   7.412  1.0153  1.6483 -0.5535
  131OSM    C9F14141   3.824   5.309   7.464  0.0507 -0.4399  0.3962
  131OSM    H9F14142   3.850   5.204   7.442  1.8596  0.0519  0.0903
  131OSM   C10F14143   3.880   5.372   7.570  0.3880  0.4757 -0.0972
  131OSM   H10F14144   3.946   5.316   7.638  0.3793  0.4858 -0.0807
  131OSM   C11F14145   3.841   5.513   7.605 -0.4199 -0.0662 -0.4419
  131OSM   H11F14146   3.763   5.562   7.544  2.0786  4.3470 -0.5447
  131OSM   H11G14147   3.918   5.591   7.587 -0.8093  0.1396 -1.2214
  131OSM   C12F14148   3.812   5.536   7.754 -0.3550  0.3767 -0.0006
  131OSM   H12F14149   3.730   5.469   7.788  0.8882 -0.6489  1.1132
  131OSM   H12G14150   3.784   5.642   7.772  1.4310  0.9942 -0.6492
  131OSM   C13F14151   3.929   5.514   7.849  0.3663 -0.1421 -0.2904
  131OSM   H13F14152   4.022   5.566   7.816 -0.7018  2.3449  0.3689
  131OSM   H13G14153   3.965   5.409   7.841  1.8050  0.3131 -0.1214
  131OSM   C14F14154   3.895   5.553   7.994 -0.7751  0.0240 -0.5314
  131OSM   H14F14155   3.944   5.478   8.061 -1.4900  0.1517  0.1524
  131OSM   H14G14156   3.787   5.540   8.017 -0.4260  0.3422  1.4873
  131OSM   C15F14157   3.943   5.692   8.036 -0.4175 -0.0230  0.1954
  131OSM   H15F14158   3.877   5.761   7.980  1.2134  0.2694 -1.4856
  131OSM   H15G14159   4.030   5.707   7.969 -0.7269  1.3380  0.0740
  131OSM   C16F14160   3.947   5.743   8.172 -0.0912 -0.4236  0.0676
  131OSM   H16F14161   3.847   5.759   8.219 -0.9244 -2.0389 -1.0691
  131OSM   H16G14162   3.993   5.844   8.181  1.0077 -1.0503  2.2430
  131OSM   C17F14163   4.030   5.654   8.272  0.2294 -0.4793  0.2225
  131OSM   H17F14164   3.963   5.570   8.300 -2.5954  1.8874  1.0618
  131OSM   H17G14165   4.042   5.714   8.365 -0.2483  0.0395 -0.0398
  131OSM   C18F14166   4.162   5.603   8.217  0.5393  0.0843  0.0341
  131OSM   H18F14167   4.214   5.540   8.292 -0.2280 -0.4744  0.1027
  131OSM   H18G14168   4.238   5.670   8.171 -1.1570  0.7526 -1.9564
  131OSM   H18H14169   4.140   5.538   8.130  1.5023  1.5136 -1.3377
  132OSM      N14170   4.631   3.721   6.250 -0.6936 -0.3543 -0.0993
  132OSM    C1514171   4.487   3.723   6.226 -0.4064  0.0561  0.4850
  132OSM   H15A14172   4.437   3.642   6.275 -1.4009  0.6903  0.5390
  132OSM   H15B14173   4.469   3.711   6.120  0.2187  0.6346  0.3032
  132OSM   H15C14174   4.456   3.818   6.267  2.8027  3.4814 -3.9146
  132OSM    C1414175   4.654   3.702   6.401 -0.7487  0.3066 -0.1385
  132OSM   H14A14176   4.760   3.687   6.416 -1.0669 -2.7616 -0.3317
  132OSM   H14B14177   4.601   3.613   6.432 -0.5920 -0.1750 -1.2047
  132OSM   H14C14178   4.622   3.795   6.447 -1.7490  0.2724 -0.7453
  132OSM    C1314179   4.686   3.596   6.186  0.3733 -0.0573  0.3428
  132OSM   H13A14180   4.788   3.587   6.219  0.1351 -1.5526  0.7045
  132OSM   H13B14181   4.695   3.614   6.080 -0.7242 -0.6469  0.1377
  132OSM   H13C14182   4.626   3.507   6.190 -0.7071  0.4355 -2.3037
  132OSM    C1214183   4.708   3.853   6.208  0.7485  0.7426  1.0938
  132OSM   H12A14184   4.685   3.852   6.103 -3.2322 -2.7664  1.7395
  132OSM   H12B14185   4.814   3.836   6.213  0.8959  1.2730 -0.0287
  132OSM    C1114186   4.665   3.982   6.276 -0.3942  0.0533  0.3192
  132OSM   H11A14187   4.709   4.058   6.208 -0.6640 -0.2903 -0.2438
  132OSM   H11B14188   4.704   3.995   6.379 -2.4950  0.9792  1.0582
  132OSM      P14189   4.443   4.104   6.191  0.1947  0.0841  0.0171
  132OSM    O1314190   4.478   4.084   6.048 -0.4560 -0.0408  0.0995
  132OSM    O1414191   4.294   4.096   6.215  1.1491 -0.3068 -0.4072
  132OSM    O1114192   4.506   4.242   6.234 -0.0024  0.5153  0.1167
  132OSM    O1214193   4.525   4.001   6.279  0.0999  0.2150 -1.0377
  132OSM    C1S14194   4.472   4.311   6.352  0.9180 -0.2960  0.2985
  132OSM    H1S14195   4.368   4.286   6.380  1.6619 -0.7134  2.9879
  132OSM    H1T14196   4.466   4.421   6.336  1.7494  0.0274  2.0002
  132OSM     NF14197   4.516   4.339   6.588  0.0550  0.1307  0.0862
  132OSM    HNF14198   4.543   4.430   6.618  1.4414  0.6071 -2.3539
  132OSM    C2S14199   4.574   4.293   6.468 -0.5076 -1.0512 -0.4258
  132OSM    H2S14200   4.595   4.185   6.484  1.4170 -0.5247  0.9457
  132OSM    C3S14201   4.709   4.363   6.425 -0.1730 -0.0304 -0.6728
  132OSM    H3S14202   4.690   4.472   6.435  0.4598  0.0000  0.2897
  132OSM     O314203   4.749   4.325   6.299 -0.0546  0.0786  0.0701
  132OSM    HO314204   4.680   4.274   6.257  0.9263 -1.0858 -0.2046
  132OSM    C4S14205   4.817   4.331   6.519 -0.4673  0.0718 -1.0019
  132OSM    H4S14206   4.895   4.265   6.478  1.1176  0.2681  1.4654
  132OSM    C5S14207   4.844   4.377   6.640  0.7692 -0.0663  0.4775
  132OSM    H5S14208   4.772   4.446   6.686  1.4280  0.4503  0.7582
  132OSM    C6S14209   4.970   4.338   6.715  0.0858 -0.0708 -0.0575
  132OSM    H6S14210   5.034   4.426   6.695  1.1655 -1.0771 -1.2277
  132OSM    H6T14211   5.023   4.249   6.675 -1.5669 -1.4993  0.7849
  132OSM    C7S14212   4.954   4.326   6.866 -0.0901  0.1978 -0.2239
  132OSM    H7S14213   4.909   4.230   6.898  0.2522  0.4197  0.9776
  132OSM    H7T14214   4.880   4.405   6.890 -0.5992 -0.9531  2.3163
  132OSM    C8S14215   5.084   4.345   6.951  0.2109  0.1884 -0.0810
  132OSM    H8S14216   5.125   4.446   6.929 -0.6098  0.8435  1.2884
  132OSM    H8T14217   5.156   4.263   6.931  0.3216  0.5420 -1.1838
  132OSM    C9S14218   5.048   4.345   7.104  0.1255 -0.2308  0.2947
  132OSM    H9S14219   4.969   4.268   7.118 -1.9992  2.1858  2.5968
  132OSM    H9T14220   4.991   4.440   7.107 -0.5623 -0.4474 -2.5912
  132OSM   C10S14221   5.159   4.334   7.204  0.0548 -0.4068  0.2572
  132OSM   H10S14222   5.232   4.409   7.167 -1.4515  0.3577 -1.3225
  132OSM   H10T14223   5.196   4.229   7.201 -0.6996 -0.6596 -0.3418
  132OSM   C11S14224   5.120   4.364   7.351  0.1053  0.5133 -0.3414
  132OSM   H11S14225   5.053   4.283   7.387  0.6271  0.2108 -0.0231
  132OSM   H11T14226   5.065   4.460   7.347  0.4992  0.7362 -4.0724
  132OSM   C12S14227   5.238   4.368   7.448  0.1973 -0.1197 -0.2350
  132OSM   H12S14228   5.321   4.430   7.408 -0.7999  1.0667 -0.5336
  132OSM   H12T14229   5.283   4.269   7.468  0.8845  0.4679  1.2877
  132OSM   C13S14230   5.191   4.424   7.585  0.0908  0.1621 -0.2264
  132OSM   H13S14231   5.127   4.515   7.579  0.4793  0.5549  1.3541
  132OSM   H13T14232   5.282   4.454   7.640 -0.3791  0.5282  0.3629
  132OSM   C14S14233   5.117   4.324   7.674 -0.6763 -0.5251 -0.3035
  132OSM   H14S14234   5.176   4.232   7.691 -2.0164 -1.2376  0.6567
  132OSM   H14T14235   5.012   4.302   7.646 -1.0863  1.5545 -0.6109
  132OSM   C15S14236   5.106   4.385   7.830  0.4501 -0.4203  1.2128
  132OSM   H15S14237   5.020   4.449   7.801 -1.4344 -2.2935  2.3450
  132OSM   H15T14238   5.196   4.442   7.862  0.5540  1.1634 -1.5723
  132OSM   C16S14239   5.047   4.278   7.935  0.2473 -0.7457 -0.2026
  132OSM   H16S14240   5.119   4.198   7.961 -1.3411 -1.4906  2.2496
  132OSM   H16T14241   4.957   4.225   7.898  0.3216  0.3618 -2.0893
  132OSM   C17S14242   4.989   4.361   8.058  1.1873  0.5501 -0.4732
  132OSM   H17S14243   5.077   4.419   8.093  0.4873  1.1080  0.4168
  132OSM   H17T14244   4.962   4.275   8.123 -3.3742  1.5670 -0.7206
  132OSM   C18S14245   4.870   4.457   8.056 -0.0114  0.1026 -0.4733
  132OSM   H18S14246   4.862   4.510   8.154 -1.7060  3.4011 -2.2155
  132OSM   H18T14247   4.783   4.397   8.024  0.9296 -0.8791 -1.2231
  132OSM   H18U14248   4.906   4.540   7.992  2.3784  0.3227  1.0138
  132OSM    C1F14249   4.412   4.284   6.641 -0.1891  0.3035  0.7335
  132OSM     OF14250   4.383   4.166   6.629  0.3493  0.1222  0.3681
  132OSM    C2F14251   4.324   4.386   6.710  0.6565  0.2930  0.3640
  132OSM    H2F14252   4.265   4.440   6.634  0.2910 -0.5494  0.0361
  132OSM    H2G14253   4.382   4.457   6.774  0.0921 -2.2389  4.0304
  132OSM    C3F14254   4.226   4.325   6.814  0.1330 -0.4548  0.4399
  132OSM    H3F14255   4.162   4.253   6.759 -0.4510  0.1386  0.3305
  132OSM    H3G14256   4.179   4.417   6.856 -0.0753 -0.1861 -0.3574
  132OSM    C4F14257   4.295   4.247   6.932  1.1896 -0.2718  0.4114
  132OSM    H4F14258   4.362   4.166   6.897 -1.0733 -1.6087 -1.0236
  132OSM    H4G14259   4.209   4.204   6.987  1.1161 -0.6974 -0.0341
  132OSM    C5F14260   4.374   4.344   7.024  0.4453  0.8071 -0.5954
  132OSM    H5F14261   4.319   4.430   7.068 -1.2491  1.0747 -3.0712
  132OSM    H5G14262   4.456   4.389   6.964  0.6827  0.5590 -0.4590
  132OSM    C6F14263   4.453   4.264   7.136 -0.8831 -0.3168  0.5083
  132OSM    H6F14264   4.484   4.165   7.096  0.7371  1.0855 -2.0170
  132OSM    H6G14265   4.386   4.233   7.219 -4.4122  0.0206 -1.9872
  132OSM    C7F14266   4.576   4.339   7.194 -0.2370  0.3433  0.0512
  132OSM    H7F14267   4.535   4.439   7.219  0.1174  0.3375  0.6884
  132OSM    H7G14268   4.646   4.354   7.109 -0.4488  1.2806  0.0335
  132OSM    C8F14269   4.638   4.276   7.323 -0.0348 -0.2484 -0.4486
  132OSM    H8F14270   4.690   4.182   7.296 -0.7855 -0.8885  0.2803
  132OSM    H8G14271   4.556   4.244   7.391  0.4139 -1.8046 -0.5931
  132OSM    C9F14272   4.744   4.367   7.381 -0.3064 -0.5863  0.5901
  132OSM    H9F14273   4.821   4.394   7.308 -0.6085 -0.4458  0.3177
  132OSM   C10F14274   4.752   4.429   7.501 -0.0156 -0.4471 -0.6703
  132OSM   H10F14275   4.827   4.497   7.543 -1.5486 -0.4394  2.3087
  132OSM   C11F14276   4.630   4.411   7.593  0.5415  0.0935 -0.2865
  132OSM   H11F14277   4.643   4.316   7.649 -0.9057 -0.6779 -1.1934
  132OSM   H11G14278   4.533   4.402   7.539  1.3529 -0.4495 -1.7010
  132OSM   C12F14279   4.610   4.530   7.697 -0.0953  0.0504  0.0295
  132OSM   H12F14280   4.614   4.629   7.646  2.8028 -0.4658 -0.9734
  132OSM   H12G14281   4.698   4.512   7.763 -1.0667 -3.4201  0.5978
  132OSM   C13F14282   4.486   4.504   7.792 -0.2482 -0.0526 -0.0577
  132OSM   H13F14283   4.470   4.395   7.805 -3.8265  0.3946  0.2876
  132OSM   H13G14284   4.398   4.537   7.732  0.3635 -0.0441 -0.9706
  132OSM   C14F14285   4.494   4.584   7.919 -0.4605 -0.2949  0.0674
  132OSM   H14F14286   4.501   4.692   7.896  0.3785 -0.9339 -3.1785
  132OSM   H14G14287   4.589   4.570   7.976 -0.4683 -0.9487 -0.0764
  132OSM   C15F14288   4.373   4.558   8.014  0.0453  0.9670  0.6285
  132OSM   H15F14289   4.377   4.452   8.047 -0.3852  0.7353 -0.0509
  132OSM   H15G14290   4.292   4.571   7.939  2.6815  1.7829 -2.3234
  132OSM   C16F14291   4.356   4.658   8.128  0.0105 -0.4652  0.0062
  132OSM   H16F14292   4.248   4.647   8.155  0.4874 -0.1955  2.1951
  132OSM   H16G14293   4.365   4.761   8.087  1.7123 -0.1276  1.1474
  132OSM   C17F14294   4.449   4.640   8.250  0.6073 -0.5851 -0.1881
  132OSM   H17F14295   4.553   4.645   8.210  1.1959 -1.4321  1.1481
  132OSM   H17G14296   4.438   4.534   8.284 -0.3535 -0.2471  0.5993
  132OSM   C18F14297   4.438   4.731   8.374  0.4114  0.2168 -0.6723
  132OSM   H18F14298   4.533   4.717   8.430  1.7928  0.1559 -2.9046
  132OSM   H18G14299   4.347   4.702   8.431 -1.6392 -0.9325 -4.2180
  132OSM   H18H14300   4.423   4.833   8.331  1.0452  0.4059 -0.4497
  133SAPE     N14301   1.843   3.658  10.694 -0.1276  0.0699 -0.2471
  133SAPE   HN114302   1.802   3.750  10.669  2.3812  1.0222 -1.1034
  133SAPE   HN214303   1.899   3.654  10.782  0.5845 -2.2621 -0.7455
  133SAPE   HN314304   1.899   3.634  10.610 -0.4078  1.0007 -0.7084
  133SAPE   C1214305   1.736   3.547  10.718 -0.9777 -0.4406 -0.3027
  133SAPE  H12A14306   1.681   3.566  10.813  0.3251 -0.0125  0.3866
  133SAPE  H12B14307   1.791   3.451  10.712  3.4188  1.8645 -0.7956
  133SAPE   C1114308   1.629   3.558  10.609 -0.1134 -0.0891 -0.3699
  133SAPE  H11A14309   1.576   3.460  10.604 -1.3494  0.4382  1.5584
  133SAPE  H11B14310   1.671   3.578  10.508  2.1802  1.4188  0.7993
  133SAPE     P14311   1.393   3.629  10.703  0.0390  0.1380  0.6313
  133SAPE   O1314312   1.410   3.608  10.849  0.2195  0.0033  0.4003
  133SAPE   O1414313   1.303   3.735  10.658 -0.0723  0.1505 -0.0180
  133SAPE   O1214314   1.538   3.665  10.640  0.0359  0.2614  0.2332
  133SAPE   O1114315   1.343   3.497  10.638  0.2088  0.3644 -0.1480
  133SAPE    C114316   1.300   3.476  10.506 -0.6225  0.2228 -0.1253
  133SAPE    HA14317   1.198   3.517  10.489 -0.1468  1.4734 -0.1035
  133SAPE    HB14318   1.352   3.543  10.434 -2.9847  2.8112  0.4225
  133SAPE    C214319   1.326   3.331  10.470  0.4729  0.4707 -0.1711
  133SAPE    HS14320   1.277   3.275  10.552  1.3956  2.1817  1.6511
  133SAPE   O2114321   1.465   3.310  10.467 -0.1482  0.7112 -0.0257
  133SAPE   C2114322   1.499   3.186  10.470 -0.7931 -0.0315 -0.1543
  133SAPE   O2214323   1.430   3.095  10.517 -0.0417  0.3944 -0.3515
  133SAPE   C2214324   1.643   3.173  10.426 -0.3556  0.4425  0.7004
  133SAPE   H2R14325   1.670   3.256  10.356 -1.5228  0.8576  0.7200
  133SAPE   H2S14326   1.699   3.177  10.522 -1.5415  2.6712  1.3765
  133SAPE    C314327   1.261   3.286  10.335 -0.1802  0.1850  0.0409
  133SAPE    HX14328   1.152   3.286  10.355 -0.3299  2.3717 -0.4276
  133SAPE    HY14329   1.299   3.184  10.316 -2.4636 -0.9071  0.9220
  133SAPE   O3114330   1.304   3.382  10.229  0.1937  0.6579  0.2940
  133SAPE   C3114331   1.214   3.431  10.149 -0.2986 -0.4366  0.1955
  133SAPE   O3214332   1.093   3.425  10.170 -0.3960 -0.1718  0.2112
  133SAPE   C3214333   1.269   3.513  10.037  0.0792 -0.6001 -0.8799
  133SAPE   H2X14334   1.364   3.467  10.000  1.2626  2.1985 -1.5639
  133SAPE   H2Y14335   1.283   3.617  10.073  1.6598 -0.7010 -1.1124
  133SAPE   C2314336   1.669   3.043  10.344  0.3118  0.0589  0.7182
  133SAPE   H3R14337   1.609   2.956  10.377  0.7550 -0.5653 -0.0672
  133SAPE   H3S14338   1.776   3.020  10.366  1.5853  1.7777 -2.8491
  133SAPE   C2414339   1.652   3.057  10.192 -0.1869 -0.5789 -0.5546
  133SAPE   H4R14340   1.713   2.977  10.144  0.7110  0.2419 -0.8083
  133SAPE   H4S14341   1.690   3.159  10.171  1.8126 -1.3509 -0.8791
  133SAPE   C2514342   1.508   3.033  10.144 -0.3436  0.2609 -0.0011
  133SAPE   H5R14343   1.439   3.023  10.228  0.1963 -0.9566  0.3236
  133SAPE   C2614344   1.455   3.023  10.011 -0.7514 -0.0925  0.3602
  133SAPE   H6R14345   1.349   2.998   9.995 -1.3818  1.7337  1.4153
  133SAPE   C2714346   1.539   3.029   9.885  0.5147 -0.4173  0.4338
  133SAPE   H7R14347   1.528   2.939   9.820 -0.4669  0.2162 -0.3039
  133SAPE   H7S14348   1.647   3.042   9.904  0.7538 -1.1365 -0.3784
  133SAPE   C2814349   1.485   3.151   9.818 -0.2720  0.3215 -0.9359
  133SAPE   H8R14350   1.491   3.244   9.876 -1.8026 -1.5984  2.5720
  133SAPE   C2914351   1.453   3.160   9.688  0.3993  0.0134  0.1931
  133SAPE   H9R14352   1.420   3.257   9.647 -0.2826 -0.2297  0.1590
  133SAPE  C21014353   1.446   3.050   9.588 -0.1182 -0.1921  0.1833
  133SAPE  H10R14354   1.344   3.057   9.544  0.5669 -0.1179 -1.4805
  133SAPE  H10S14355   1.463   2.946   9.622  0.8795  0.1705  0.8326
  133SAPE  C21114356   1.545   3.070   9.473  0.8300 -0.1206  0.2824
  133SAPE  H11R14357   1.649   3.079   9.508  0.7863  1.6113  0.0729
  133SAPE  C21214358   1.514   3.060   9.335 -0.8114  0.1940 -0.5424
  133SAPE  H12R14359   1.598   3.076   9.266  0.2438  1.0820  0.8764
  133SAPE  C21314360   1.379   3.033   9.276 -0.3480  0.0315 -0.3241
  133SAPE  H13R14361   1.329   2.962   9.345  1.7177  0.3392  1.5829
  133SAPE  H13S14362   1.403   2.993   9.175 -0.4673 -1.7814  0.3214
  133SAPE  C21414363   1.301   3.162   9.262  0.5125  0.2673 -0.2548
  133SAPE  H14R14364   1.302   3.225   9.352 -0.2641  0.5188 -0.4126
  133SAPE  C21514365   1.220   3.198   9.154  0.0441  0.2576  0.0867
  133SAPE  H15R14366   1.160   3.290   9.161  1.6930  1.2642  3.3901
  133SAPE  C21614367   1.189   3.120   9.029  0.4096 -1.1246  0.1302
  133SAPE  H16R14368   1.079   3.127   9.012  0.3887  3.3297  0.9034
  133SAPE  H16S14369   1.203   3.010   9.042 -1.8492 -1.7161 -1.7395
  133SAPE  C21714370   1.254   3.171   8.900 -0.5872  0.0441  0.1762
  133SAPE  H17R14371   1.364   3.152   8.899 -0.5352  0.3256  0.4977
  133SAPE  H17S14372   1.232   3.279   8.888 -1.7050 -0.1983 -0.0070
  133SAPE  C21814373   1.201   3.096   8.776  0.4286  0.2456 -0.1646
  133SAPE  H18R14374   1.101   3.142   8.762 -0.4398 -1.1202  1.1867
  133SAPE  H18S14375   1.190   2.988   8.798  0.5014  0.1114 -0.7719
  133SAPE  C21914376   1.289   3.110   8.646  0.3427  0.4150 -0.1113
  133SAPE  H19R14377   1.388   3.078   8.683  1.7800  0.9861 -3.1336
  133SAPE  H19S14378   1.299   3.214   8.609  2.3413  0.6452  0.9523
  133SAPE  C22014379   1.218   3.031   8.535 -0.7535 -0.0770 -0.2140
  133SAPE  H20R14380   1.282   3.023   8.445  1.1874  0.7543  1.0266
  133SAPE  H20S14381   1.118   3.071   8.510  0.3670  0.8221 -3.7820
  133SAPE  H20T14382   1.200   2.930   8.579 -2.6421  1.0312  1.7390
  133SAPE   C3314383   1.188   3.509   9.904 -0.0207 -0.5834  0.2366
  133SAPE   H3X14384   1.084   3.543   9.922 -0.1373 -0.7112 -0.2000
  133SAPE   H3Y14385   1.196   3.406   9.864  0.8959  0.3612 -2.1631
  133SAPE   C3414386   1.244   3.607   9.795  0.3298  0.2343  0.4580
  133SAPE   H4X14387   1.351   3.586   9.770 -0.4882 -0.5681 -2.9618
  133SAPE   H4Y14388   1.240   3.713   9.828 -2.4270  1.3123 -2.7956
  133SAPE   C3514389   1.152   3.591   9.675 -0.7526  0.6098 -0.0599
  133SAPE   H5X14390   1.050   3.615   9.712 -2.3152 -3.0047 -1.5412
  133SAPE   H5Y14391   1.155   3.484   9.645  2.1477 -0.3770  3.1122
  133SAPE   C3614392   1.197   3.668   9.553 -0.1867  0.1119 -0.7771
  133SAPE   H6X14393   1.286   3.628   9.500  1.0333  1.7591 -0.0601
  133SAPE   H6Y14394   1.247   3.748   9.611 -3.3902  0.6530  1.4984
  133SAPE   C3714395   1.085   3.716   9.462  0.1728  0.1894  0.0121
  133SAPE   H7X14396   1.103   3.811   9.407  1.8252 -0.3954 -0.5066
  133SAPE   H7Y14397   0.982   3.717   9.503 -1.3220 -0.8218 -3.3814
  133SAPE   C3814398   1.077   3.609   9.349  0.4861  0.0983  0.0286
  133SAPE   H8X14399   0.999   3.645   9.279 -1.0127 -0.4623  1.3486
  133SAPE   H8Y14400   1.045   3.509   9.384 -2.2083  1.1241  0.7672
  133SAPE   C3914401   1.202   3.596   9.257 -0.5009  0.2481  0.5322
  133SAPE   H9X14402   1.278   3.528   9.301  0.0407 -0.5755 -1.5682
  133SAPE   H9Y14403   1.252   3.694   9.247 -1.7795  0.7707 -1.2321
  133SAPE  C31014404   1.178   3.553   9.105  0.0611 -0.7786 -0.1318
  133SAPE  H10X14405   1.080   3.501   9.100 -1.2474  1.5115  0.7097
  133SAPE  H10Y14406   1.269   3.493   9.079  0.8177 -0.4862  1.6828
  133SAPE  C31114407   1.175   3.671   9.008  1.0727  0.6030  0.5670
  133SAPE  H11X14408   1.277   3.714   9.013  0.8247  1.1866  0.7126
  133SAPE  H11Y14409   1.092   3.737   9.043 -0.7011 -1.2324  0.0176
  133SAPE  C31214410   1.162   3.624   8.863  0.4128 -0.1544 -0.1663
  133SAPE  H12X14411   1.060   3.584   8.850 -0.4207  1.8030 -0.0218
  133SAPE  H12Y14412   1.239   3.549   8.834  0.4383  0.6963 -2.5380
  133SAPE  C31314413   1.185   3.742   8.770 -0.1541  0.3975  0.2203
  133SAPE  H13X14414   1.291   3.769   8.788  0.0260 -0.0155 -0.2258
  133SAPE  H13Y14415   1.124   3.829   8.802  0.7583  1.0437  0.2243
  133SAPE  C31414416   1.183   3.706   8.622  0.0008 -0.1600  0.3289
  133SAPE  H14X14417   1.102   3.633   8.605 -0.4101  0.6609 -1.4620
  133SAPE  H14Y14418   1.274   3.645   8.599  0.1434  0.3847 -0.6221
  133SAPE  C31514419   1.189   3.837   8.545  0.5602  0.2071 -0.2358
  133SAPE  H15X14420   1.107   3.904   8.580 -0.7048 -1.0302 -0.7418
  133SAPE  H15Y14421   1.173   3.841   8.435 -0.2179  2.9029 -0.1060
  133SAPE  C31614422   1.322   3.918   8.557  0.0964  0.1799 -0.0921
  133SAPE  H16X14423   1.344   3.948   8.662  0.8074  1.2677 -0.5323
  133SAPE  H16Y14424   1.301   4.015   8.507 -0.2888 -0.3609 -1.0090
  133SAPE  C31714425   1.440   3.846   8.495 -0.2028 -0.2324  0.1441
  133SAPE  H17X14426   1.421   3.806   8.393  2.3335  2.3778 -1.4732
  133SAPE  H17Y14427   1.452   3.759   8.564  0.6401 -1.1158 -1.0863
  133SAPE  C31814428   1.570   3.936   8.498  0.5328  0.0576  0.7966
  133SAPE  H18X14429   1.551   4.045   8.496 -1.1367 -0.2254  0.3420
  133SAPE  H18Y14430   1.631   3.908   8.410  1.4195  3.4420  0.1929
  133SAPE  H18Z14431   1.614   3.921   8.599  2.2295  0.7812  0.1961
  134SAPE     N14432   5.697   4.941  10.385  0.7444  0.1127  0.5820
  134SAPE   HN114433   5.667   4.972  10.480  0.4151 -0.4136  0.6542
  134SAPE   HN214434   5.708   5.030  10.332 -0.5551  0.4776  0.8854
  134SAPE   HN314435   5.620   4.882  10.346 -1.2256  1.0952  2.7512
  134SAPE   C1214436   5.821   4.873  10.394 -0.0844  0.1078 -0.3283
  134SAPE  H12A14437   5.899   4.951  10.405 -0.9383  1.1748 -1.6017
  134SAPE  H12B14438   5.836   4.824  10.295 -1.2630  0.2526 -0.5980
  134SAPE   C1114439   5.826   4.764  10.501  0.2707 -0.6954 -0.4890
  134SAPE  H11A14440   5.812   4.815  10.599  0.0944 -3.4201  1.0042
  134SAPE  H11B14441   5.931   4.727  10.497 -0.0809 -1.7415 -0.5352
  134SAPE     P14442   5.670   4.567  10.582  0.1109 -0.0800  0.2331
  134SAPE   O1314443   5.685   4.639  10.712  0.9721 -0.5504  0.0301
  134SAPE   O1414444   5.531   4.523  10.540 -0.1835 -0.5694 -0.2543
  134SAPE   O1214445   5.732   4.653  10.464 -0.3524 -0.1100 -0.4480
  134SAPE   O1114446   5.762   4.438  10.577 -0.8709 -0.1162 -0.0960
  134SAPE    C114447   5.863   4.415  10.472 -0.2010 -0.5163 -0.0403
  134SAPE    HA14448   5.906   4.512  10.441  0.4117 -0.5646  0.6316
  134SAPE    HB14449   5.941   4.353  10.521 -2.1799 -3.4432 -0.3125
  134SAPE    C214450   5.816   4.332  10.352 -0.0679 -0.4985 -0.0574
  134SAPE    HS14451   5.907   4.305  10.295  1.1227  0.0966  1.5027
  134SAPE   O2114452   5.713   4.399  10.270 -0.2854  0.3132 -0.2638
  134SAPE   C2114453   5.763   4.490  10.192 -0.2280 -0.9904  0.2866
  134SAPE   O2214454   5.879   4.525  10.189 -0.7513  0.2800 -0.4738
  134SAPE   C2214455   5.658   4.556  10.098 -0.3653 -0.4954 -0.0557
  134SAPE   H2R14456   5.552   4.541  10.126 -0.0678  0.8217  2.0034
  134SAPE   H2S14457   5.679   4.665  10.093 -1.1735 -0.3971 -1.8273
  134SAPE    C314458   5.749   4.201  10.404  0.3320 -0.3805  0.2586
  134SAPE    HX14459   5.658   4.237  10.455  0.2768  1.6375 -1.1668
  134SAPE    HY14460   5.808   4.154  10.485 -0.9266 -1.7913  0.3992
  134SAPE   O3114461   5.714   4.113  10.290  0.0698 -0.1262  0.2789
  134SAPE   C3114462   5.807   4.056  10.226 -0.3701  0.0597 -0.9432
  134SAPE   O3214463   5.927   4.060  10.253 -0.2049  0.3648 -0.8104
  134SAPE   C3214464   5.745   3.989  10.105  0.6602 -0.6738 -0.1600
  134SAPE   H2X14465   5.642   4.028  10.088 -0.5648 -2.4420  2.5924
  134SAPE   H2Y14466   5.742   3.881  10.131 -0.1744 -1.2668 -2.4915
  134SAPE   C2314467   5.681   4.523   9.953 -0.1585 -0.5242 -0.5458
  134SAPE   H3R14468   5.787   4.551   9.932 -0.8987  1.5683 -1.6866
  134SAPE   H3S14469   5.615   4.586   9.890 -1.0109  0.2110  1.0231
  134SAPE   C2414470   5.665   4.374   9.906 -0.9244 -0.0847 -0.0484
  134SAPE   H4R14471   5.722   4.309   9.976  2.8977  2.6655 -0.2843
  134SAPE   H4S14472   5.730   4.374   9.816 -0.4922 -1.6693  0.2276
  134SAPE   C2514473   5.525   4.327   9.883 -0.2179 -0.3404  1.0046
  134SAPE   H5R14474   5.465   4.280   9.962 -1.1867  1.2417  1.2330
  134SAPE   C2614475   5.473   4.327   9.762  0.5802  0.0834  0.0954
  134SAPE   H6R14476   5.374   4.281   9.753 -0.1576  1.8246 -1.6808
  134SAPE   C2714477   5.527   4.367   9.633 -0.4715 -0.2092 -0.1277
  134SAPE   H7R14478   5.577   4.465   9.647  1.2202 -1.0291 -0.2655
  134SAPE   H7S14479   5.440   4.388   9.566 -0.0548 -0.6774 -0.8279
  134SAPE   C2814480   5.624   4.263   9.577 -0.0104  0.5950 -0.7609
  134SAPE   H8R14481   5.669   4.187   9.643 -0.2929  0.4695 -0.7126
  134SAPE   C2914482   5.662   4.263   9.453  0.1775  0.4453 -0.6073
  134SAPE   H9R14483   5.713   4.172   9.417 -1.0960 -0.2400 -0.7366
  134SAPE  C21014484   5.609   4.357   9.349 -0.0071 -0.3985 -0.1818
  134SAPE  H10R14485   5.571   4.451   9.393 -0.1676 -0.0305 -1.0762
  134SAPE  H10S14486   5.526   4.304   9.297  1.4917 -2.5159 -0.5290
  134SAPE  C21114487   5.721   4.391   9.256  0.3763 -0.4355 -0.2449
  134SAPE  H11R14488   5.820   4.368   9.298  0.2933  0.3084  0.3819
  134SAPE  C21214489   5.716   4.466   9.145  0.1353 -0.5318 -0.3033
  134SAPE  H12R14490   5.807   4.489   9.089  1.1118 -3.4572 -0.0835
  134SAPE  C21314491   5.592   4.523   9.079  0.3438 -0.0546  0.4920
  134SAPE  H13R14492   5.502   4.494   9.137 -0.8681 -1.0012 -1.7632
  134SAPE  H13S14493   5.578   4.463   8.987  1.7396 -0.3313  0.4320
  134SAPE  C21414494   5.589   4.668   9.043 -0.1167 -0.2852 -0.1801
  134SAPE  H14R14495   5.589   4.729   9.135 -1.0776 -0.1659 -0.2460
  134SAPE  C21514496   5.606   4.715   8.921  0.3345  0.1088 -0.5005
  134SAPE  H15R14497   5.601   4.824   8.911  0.7838  0.0616 -1.3217
  134SAPE  C21614498   5.608   4.649   8.786  0.0411 -0.2467 -0.5657
  134SAPE  H16R14499   5.606   4.538   8.789 -0.1449 -0.2351 -0.1490
  134SAPE  H16S14500   5.703   4.687   8.741  0.1292  2.1441  1.4127
  134SAPE  C21714501   5.482   4.687   8.705 -0.6108  0.0720  0.0558
  134SAPE  H17R14502   5.390   4.669   8.765 -0.2668 -4.3895 -0.4065
  134SAPE  H17S14503   5.482   4.615   8.620  3.9533  1.4466 -1.3920
  134SAPE  C21814504   5.485   4.827   8.641 -0.1865  0.6096  0.1282
  134SAPE  H18R14505   5.587   4.831   8.597  0.3027 -1.0264  1.0573
  134SAPE  H18S14506   5.484   4.900   8.725  1.7134  1.2516 -0.3532
  134SAPE  C21914507   5.375   4.846   8.532  0.7812  0.1160 -0.2918
  134SAPE  H19R14508   5.358   4.754   8.472  1.4234 -0.6061  0.6167
  134SAPE  H19S14509   5.407   4.925   8.460 -1.1324  0.4184 -0.8642
  134SAPE  C22014510   5.241   4.891   8.593 -0.0771  0.3600 -0.3764
  134SAPE  H20R14511   5.183   4.925   8.505  0.5154 -1.5601 -1.5673
  134SAPE  H20S14512   5.274   4.973   8.660  1.7221 -1.6024  1.3034
  134SAPE  H20T14513   5.187   4.814   8.652 -0.2332  0.6439 -0.1450
  134SAPE   C3314514   5.826   3.994   9.975 -1.0279 -0.1811  0.3295
  134SAPE   H3X14515   5.930   3.966  10.001 -1.0208  1.0697  1.7825
  134SAPE   H3Y14516   5.816   4.098   9.936 -3.4940 -0.9502 -1.3591
  134SAPE   C3414517   5.781   3.892   9.867 -0.0783 -0.3833 -0.3413
  134SAPE   H4X14518   5.770   3.804   9.934  0.2010  1.4752  2.3140
  134SAPE   H4Y14519   5.865   3.878   9.796  2.5729  0.5938  2.3442
  134SAPE   C3514520   5.645   3.920   9.809 -0.3250 -0.0004  0.3326
  134SAPE   H5X14521   5.648   4.005   9.737 -1.0053 -0.7509 -0.6155
  134SAPE   H5Y14522   5.568   3.957   9.879 -1.0204 -1.5767  0.4416
  134SAPE   C3614523   5.590   3.801   9.728 -0.0685 -0.0591 -0.2723
  134SAPE   H6X14524   5.589   3.712   9.796 -0.3907  0.7335  0.7960
  134SAPE   H6Y14525   5.652   3.775   9.640 -1.3996  2.1436 -1.9570
  134SAPE   C3714526   5.441   3.824   9.675 -0.6876  0.0122 -0.0572
  134SAPE   H7X14527   5.381   3.833   9.767  0.7862 -0.9240  1.0553
  134SAPE   H7Y14528   5.408   3.742   9.607  0.7400  0.1133 -0.9124
  134SAPE   C3814529   5.435   3.955   9.587  0.0181  0.2487  0.6910
  134SAPE   H8X14530   5.499   3.943   9.497 -1.6187  0.9860 -0.6372
  134SAPE   H8Y14531   5.471   4.037   9.652  1.0575  2.3903 -2.3806
  134SAPE   C3914532   5.290   3.991   9.544 -0.0608 -0.1789  0.0935
  134SAPE   H9X14533   5.235   4.018   9.637  0.1516 -0.1361  0.2083
  134SAPE   H9Y14534   5.251   3.903   9.488  2.5739 -0.6335 -1.1586
  134SAPE  C31014535   5.293   4.111   9.450  0.5705 -0.4098 -0.1490
  134SAPE  H10X14536   5.379   4.093   9.382  0.6400 -0.8569  0.0521
  134SAPE  H10Y14537   5.312   4.204   9.507  0.2971 -1.2533  1.3813
  134SAPE  C31114538   5.164   4.119   9.375 -0.1587  0.0675  0.2714
  134SAPE  H11X14539   5.073   4.131   9.438 -0.4634 -0.9473  0.0487
  134SAPE  H11Y14540   5.143   4.018   9.333 -2.7060 -0.8406  3.3136
  134SAPE  C31214541   5.168   4.223   9.260  0.3333 -0.0889 -0.9644
  134SAPE  H12X14542   5.200   4.318   9.307  0.8455 -1.4707  1.6690
  134SAPE  H12Y14543   5.063   4.229   9.223 -0.6611 -1.4214  1.3862
  134SAPE  C31314544   5.252   4.182   9.149 -0.1523 -0.4050 -0.5142
  134SAPE  H13X14545   5.255   4.077   9.114  1.2306 -0.4829 -0.1981
  134SAPE  H13Y14546   5.348   4.206   9.199 -0.9684  0.6089  0.6194
  134SAPE  C31414547   5.228   4.281   9.032  0.2032  0.2724 -0.6985
  134SAPE  H14X14548   5.237   4.390   9.053  2.3581  0.6108 -2.8847
  134SAPE  H14Y14549   5.124   4.268   8.995 -0.2359  0.3470  0.4736
  134SAPE  C31514550   5.332   4.264   8.921  0.5657 -0.0243 -0.7456
  134SAPE  H15X14551   5.333   4.160   8.884  1.6687  0.5332 -2.3794
  134SAPE  H15Y14552   5.436   4.275   8.960  0.3374 -1.3478  0.3248
  134SAPE  C31614553   5.312   4.360   8.794  0.4944 -0.7111  0.5034
  134SAPE  H16X14554   5.392   4.328   8.724 -0.8053 -0.0135 -1.3685
  134SAPE  H16Y14555   5.318   4.465   8.829  1.0400 -0.6310  0.1673
  134SAPE  C31714556   5.185   4.335   8.722 -0.8084 -0.3224 -0.0704
  134SAPE  H17X14557   5.105   4.359   8.796 -2.1489 -0.7515 -1.3104
  134SAPE  H17Y14558   5.178   4.230   8.687 -0.5895  0.4447 -2.5843
  134SAPE  C31814559   5.165   4.430   8.605  0.3839 -0.8181  0.3537
  134SAPE  H18X14560   5.076   4.406   8.543 -2.0069 -0.8678  3.5228
  134SAPE  H18Y14561   5.257   4.434   8.544  0.9454 -0.5527  1.2004
  134SAPE  H18Z14562   5.149   4.534   8.641 -0.8333 -0.8566 -0.0082
  135SAPE     N14563   3.350   2.463  10.526  0.2677 -0.4334 -0.8150
  135SAPE   HN114564   3.432   2.454  10.589 -0.3950 -0.6849  0.0325
  135SAPE   HN214565   3.376   2.426  10.433  4.0296  1.2096 -0.6129
  135SAPE   HN314566   3.321   2.563  10.521  1.0782 -0.0664  0.8878
  135SAPE   C1214567   3.238   2.385  10.590  0.4815 -0.0961 -0.2664
  135SAPE  H12A14568   3.149   2.390  10.524  0.8602 -0.5122 -0.8214
  135SAPE  H12B14569   3.221   2.427  10.691 -1.1042  0.4141 -0.7248
  135SAPE   C1114570   3.289   2.240  10.599 -0.2175 -0.0736 -0.3817
  135SAPE  H11A14571   3.282   2.203  10.495 -1.6271 -0.8426 -0.0367
  135SAPE  H11B14572   3.221   2.190  10.672  1.0178  0.0915  0.9224
  135SAPE     P14573   3.478   2.084  10.664  0.1019 -0.0837  0.3589
  135SAPE   O1314574   3.623   2.093  10.700 -0.3751  0.1625 -0.5861
  135SAPE   O1414575   3.390   2.024  10.761  0.3098  0.2037  0.6142
  135SAPE   O1214576   3.425   2.227  10.631  0.0011  0.1825  0.2865
  135SAPE   O1114577   3.461   1.998  10.528 -0.4052  0.4741 -0.2551
  135SAPE    C114578   3.334   1.932  10.490 -0.1735 -0.4595 -0.2166
  135SAPE    HA14579   3.259   1.947  10.571  0.5587  0.6682  0.2836
  135SAPE    HB14580   3.287   1.974  10.398 -0.5816  0.1398  0.2494
  135SAPE    C214581   3.360   1.783  10.469 -0.1171  0.1833 -0.5075
  135SAPE    HS14582   3.387   1.738  10.566 -0.2990 -2.2005 -1.5044
  135SAPE   O2114583   3.474   1.774  10.381  0.0194 -0.3450  0.6193
  135SAPE   C2114584   3.547   1.661  10.391 -0.2169 -0.8345 -0.3467
  135SAPE   O2214585   3.525   1.571  10.469 -0.0533  0.4259 -0.0680
  135SAPE   C2214586   3.663   1.678  10.291  0.3334  0.6976  0.2501
  135SAPE   H2R14587   3.718   1.773  10.308  0.3105  0.6691  0.4890
  135SAPE   H2S14588   3.738   1.600  10.311  0.9365  0.8126 -1.3811
  135SAPE    C314589   3.235   1.702  10.419 -0.1894  0.0599 -0.2761
  135SAPE    HX14590   3.161   1.711  10.501  2.4276  0.3501  2.1968
  135SAPE    HY14591   3.265   1.595  10.419  1.1480  0.4081  1.3047
  135SAPE   O3114592   3.184   1.754  10.292 -0.2309 -0.0480 -0.0317
  135SAPE   C3114593   3.204   1.678  10.184  0.4125  0.0805 -0.5321
  135SAPE   O3214594   3.238   1.562  10.181 -0.5918  0.5040  0.1067
  135SAPE   C3214595   3.156   1.759  10.068  0.0811 -0.3042  0.6493
  135SAPE   H2X14596   3.228   1.840  10.046  1.9853 -2.0458  0.0845
  135SAPE   H2Y14597   3.057   1.800  10.096 -0.8071 -0.5997 -1.7844
  135SAPE   C2314598   3.609   1.690  10.141  0.0410  0.2328 -0.0986
  135SAPE   H3R14599   3.555   1.784  10.115  0.0403  0.2164 -0.1571
  135SAPE   H3S14600   3.552   1.608  10.092 -0.7919 -0.6673  2.2372
  135SAPE   C2414601   3.723   1.702  10.035  0.3001  0.4960 -0.2147
  135SAPE   H4R14602   3.767   1.800  10.062  0.1841 -0.0370  2.1172
  135SAPE   H4S14603   3.682   1.710   9.931  3.4127 -1.3155 -1.7206
  135SAPE   C2514604   3.825   1.595  10.037  0.9039  0.4231  0.1225
  135SAPE   H5R14605   3.887   1.591  10.128 -0.4612  2.1931  1.1955
  135SAPE   C2614606   3.840   1.502   9.941  0.3738 -0.1921  0.6610
  135SAPE   H6R14607   3.923   1.432   9.956  0.9242 -0.1092 -1.5725
  135SAPE   C2714608   3.775   1.484   9.807 -0.3917  0.8742 -0.5599
  135SAPE   H7R14609   3.665   1.481   9.826 -0.3409 -0.1632 -0.3801
  135SAPE   H7S14610   3.786   1.377   9.779 -0.5632  0.3903  1.1084
  135SAPE   C2814611   3.805   1.596   9.710 -0.7317 -0.7169  0.2605
  135SAPE   H8R14612   3.751   1.690   9.724 -1.9894 -0.7833 -3.2676
  135SAPE   C2914613   3.859   1.578   9.582 -0.2032  0.1801 -0.0212
  135SAPE   H9R14614   3.890   1.668   9.527 -1.0176  0.5895  0.1676
  135SAPE  C21014615   3.896   1.445   9.518 -0.4748  0.1833 -0.2090
  135SAPE  H10R14616   3.814   1.402   9.458  1.4617 -4.4166  0.0107
  135SAPE  H10S14617   3.924   1.373   9.598 -0.5438  1.1975  0.7640
  135SAPE  C21114618   4.022   1.459   9.432 -0.0695 -0.3081  1.0774
  135SAPE  H11R14619   4.110   1.517   9.465 -0.3748  0.5691  0.4126
  135SAPE  C21214620   4.026   1.412   9.304 -0.0617 -0.3170 -0.1629
  135SAPE  H12R14621   4.124   1.425   9.255  0.1396 -0.9107  0.0771
  135SAPE  C21314622   3.917   1.342   9.229 -0.3631  0.7228 -0.3772
  135SAPE  H13R14623   3.871   1.265   9.295  0.2881  0.6363 -0.0106
  135SAPE  H13S14624   3.961   1.280   9.147  0.2845  1.0444 -0.2748
  135SAPE  C21414625   3.809   1.433   9.176  0.1357 -0.2188  0.7232
  135SAPE  H14R14626   3.828   1.541   9.170 -0.5323 -0.0713  1.1688
  135SAPE  C21514627   3.708   1.388   9.102  0.1137  0.1814 -1.2592
  135SAPE  H15R14628   3.629   1.462   9.082 -0.1019  0.0494 -0.9076
  135SAPE  C21614629   3.673   1.247   9.071 -0.0014 -0.2287 -0.5284
  135SAPE  H16R14630   3.564   1.236   9.055 -0.1943  1.4508 -0.5544
  135SAPE  H16S14631   3.698   1.190   9.162  1.4336 -1.0046 -1.3730
  135SAPE  C21714632   3.738   1.182   8.951  0.5763  0.3674 -0.4176
  135SAPE  H17R14633   3.729   1.071   8.960 -0.3516  0.5234  0.9277
  135SAPE  H17S14634   3.846   1.207   8.950  0.9079 -0.4688  2.5956
  135SAPE  C21814635   3.679   1.244   8.828  0.6629 -0.0585  0.9227
  135SAPE  H18R14636   3.680   1.353   8.846  0.7516  0.3819 -1.4800
  135SAPE  H18S14637   3.574   1.213   8.806  0.5119  0.6446  0.6428
  135SAPE  C21914638   3.756   1.214   8.697 -0.6466 -0.1942  0.1743
  135SAPE  H19R14639   3.752   1.105   8.676 -0.9670 -0.6286  2.2833
  135SAPE  H19S14640   3.861   1.247   8.715 -0.0786 -1.2472 -1.0038
  135SAPE  C22014641   3.704   1.298   8.579 -0.3356  0.7733  0.1287
  135SAPE  H20R14642   3.706   1.407   8.596 -2.7914  1.1493 -1.4996
  135SAPE  H20S14643   3.599   1.269   8.555  0.1456 -0.8519 -0.1641
  135SAPE  H20T14644   3.762   1.275   8.487 -0.0820 -4.5241  1.2399
  135SAPE   C3314645   3.154   1.671   9.939  0.2409 -0.2258  0.6510
  135SAPE   H3X14646   3.079   1.725   9.877  2.1274  0.9459 -0.6777
  135SAPE   H3Y14647   3.105   1.572   9.956 -1.6228  0.7209  1.1446
  135SAPE   C3414648   3.290   1.676   9.864 -0.2218 -0.2633  0.0746
  135SAPE   H4X14649   3.366   1.623   9.924  0.1968 -1.1473 -1.2107
  135SAPE   H4Y14650   3.322   1.783   9.861 -1.5502  0.1428 -1.0600
  135SAPE   C3514651   3.301   1.617   9.721  0.2333  0.5175 -0.0255
  135SAPE   H5X14652   3.235   1.671   9.651  0.6201  0.2900 -0.5732
  135SAPE   H5Y14653   3.262   1.513   9.719  1.2190 -0.0055  2.6082
  135SAPE   C3614654   3.430   1.635   9.643 -0.7907  0.3600 -0.1916
  135SAPE   H6X14655   3.511   1.591   9.705 -0.5878  2.9316  1.5220
  135SAPE   H6Y14656   3.461   1.738   9.617  0.6139 -0.3893 -1.7172
  135SAPE   C3714657   3.446   1.561   9.510  0.2365 -0.4316  0.1623
  135SAPE   H7X14658   3.417   1.454   9.510 -0.1157 -0.3573 -1.2025
  135SAPE   H7Y14659   3.552   1.567   9.475  0.0680  0.8792 -0.1723
  135SAPE   C3814660   3.358   1.627   9.397 -0.4769 -0.8090  0.3910
  135SAPE   H8X14661   3.385   1.734   9.390 -2.1454 -0.3742  0.3110
  135SAPE   H8Y14662   3.253   1.622   9.432 -0.7440 -0.7981 -0.4031
  135SAPE   C3914663   3.379   1.544   9.269  0.8833  0.0299 -0.1042
  135SAPE   H9X14664   3.348   1.439   9.285  1.9786 -0.3703 -0.4986
  135SAPE   H9Y14665   3.487   1.541   9.244  0.7301  0.5704 -0.8863
  135SAPE  C31014666   3.285   1.611   9.163  0.1728 -0.4361  0.2473
  135SAPE  H10X14667   3.317   1.717   9.168  1.2827 -0.5501 -2.6877
  135SAPE  H10Y14668   3.191   1.620   9.222 -1.8526 -1.6869 -2.5591
  135SAPE  C31114669   3.271   1.561   9.019  0.1527 -0.1904 -0.3123
  135SAPE  H11X14670   3.336   1.618   8.949 -0.6195 -1.0388 -1.7794
  135SAPE  H11Y14671   3.172   1.588   8.978  0.8665  1.4734 -1.0207
  135SAPE  C31214672   3.317   1.419   9.001 -0.9442 -0.1544 -0.3648
  135SAPE  H12X14673   3.261   1.359   9.076  0.6541 -0.6362  0.4769
  135SAPE  H12Y14674   3.424   1.409   9.029 -1.2664 -0.5492  0.7737
  135SAPE  C31314675   3.299   1.357   8.867 -0.0103  0.0095  0.7267
  135SAPE  H13X14676   3.365   1.268   8.860 -1.7840 -1.2504 -1.7651
  135SAPE  H13Y14677   3.324   1.420   8.779 -0.5320 -0.7553  0.0147
  135SAPE  C31414678   3.148   1.309   8.845 -0.6659  0.0009  0.7578
  135SAPE  H14X14679   3.089   1.396   8.808 -0.5943 -0.8265 -1.5103
  135SAPE  H14Y14680   3.107   1.253   8.931 -0.4643 -1.1239  0.1314
  135SAPE  C31514681   3.142   1.199   8.737  0.2603 -0.3115  0.3701
  135SAPE  H15X14682   3.181   1.110   8.790 -0.3050 -0.6752  0.1819
  135SAPE  H15Y14683   3.193   1.212   8.639  2.2150 -0.0562  1.3732
  135SAPE  C31614684   2.995   1.162   8.689  0.6703 -0.3833  0.0803
  135SAPE  H16X14685   2.925   1.215   8.756 -0.3885  0.2718 -1.4745
  135SAPE  H16Y14686   2.975   1.053   8.687  0.0576 -0.2720 -0.2465
  135SAPE  C31714687   2.966   1.215   8.548  0.5901  0.2613  0.1492
  135SAPE  H17X14688   3.047   1.206   8.473 -1.3789  0.2149 -2.1108
  135SAPE  H17Y14689   2.955   1.325   8.558  1.9037  0.4614 -0.4412
  135SAPE  C31814690   2.838   1.157   8.480  0.4617  0.7954 -0.7270
  135SAPE  H18X14691   2.817   1.205   8.382 -1.8441  1.7583  0.1606
  135SAPE  H18Y14692   2.759   1.187   8.551  2.2290 -1.6512  2.5342
  135SAPE  H18Z14693   2.828   1.046   8.475  0.2336  0.8125 -0.6386
  136SAPE     N14694   5.512   3.665  11.210 -0.6677 -0.6558  0.2045
  136SAPE   HN114695   5.416   3.673  11.171  0.5007 -1.4430 -3.1898
  136SAPE   HN214696   5.535   3.755  11.257  0.0511 -0.5351 -0.3588
  136SAPE   HN314697   5.564   3.681  11.121 -1.5973  3.7203  0.2286
  136SAPE   C1214698   5.543   3.534  11.260 -0.3978  0.5561 -0.5905
  136SAPE  H12A14699   5.456   3.494  11.317  0.3165  0.9134  0.8067
  136SAPE  H12B14700   5.634   3.547  11.322 -0.4597  2.1008 -0.7802
  136SAPE   C1114701   5.572   3.438  11.141  0.0596  0.0474  0.8250
  136SAPE  H11A14702   5.606   3.340  11.182  0.9129  0.4487  1.0976
  136SAPE  H11B14703   5.655   3.474  11.076 -1.7519  0.6099 -1.2764
  136SAPE     P14704   5.452   3.297  10.966 -0.2443  0.6201  0.0513
  136SAPE   O1314705   5.492   3.174  11.038 -0.0185 -0.3475 -0.4634
  136SAPE   O1414706   5.319   3.295  10.909 -0.0176 -0.1540 -0.1687
  136SAPE   O1214707   5.457   3.416  11.062  0.1960 -0.5302  0.1914
  136SAPE   O1114708   5.557   3.326  10.860  0.1636 -0.4454 -0.3126
  136SAPE    C114709   5.561   3.450  10.779  0.0588 -0.3088  0.1422
  136SAPE    HA14710   5.462   3.449  10.727 -0.7160 -1.0876  1.5699
  136SAPE    HB14711   5.575   3.537  10.846 -1.1533 -0.3733  0.5103
  136SAPE    C214712   5.680   3.435  10.687 -0.2336  0.6070  0.2538
  136SAPE    HS14713   5.690   3.528  10.627  0.4408 -0.2555 -1.0181
  136SAPE   O2114714   5.661   3.321  10.599  0.0067  0.0790 -0.0849
  136SAPE   C2114715   5.576   3.334  10.501 -0.5147 -0.2733 -0.3787
  136SAPE   O2214716   5.518   3.436  10.475 -0.1384 -0.1932 -0.0277
  136SAPE   C2214717   5.571   3.202  10.424  0.9766 -0.7381  0.8076
  136SAPE   H2R14718   5.622   3.225  10.328 -0.3361 -0.5912  0.1065
  136SAPE   H2S14719   5.638   3.124  10.465 -0.6979 -2.0082  1.2715
  136SAPE    C314720   5.812   3.410  10.762 -0.5099 -0.2320 -0.3758
  136SAPE    HX14721   5.795   3.325  10.832  0.0747  1.3218  1.7565
  136SAPE    HY14722   5.835   3.507  10.810  1.3062 -1.7845  2.1762
  136SAPE   O3114723   5.917   3.385  10.671  0.1521  0.4414 -0.6306
  136SAPE   C3114724   5.951   3.256  10.637 -0.4188  0.1516 -0.2857
  136SAPE   O3214725   5.897   3.160  10.686  0.0207 -0.2134 -0.0913
  136SAPE   C3214726   6.061   3.261  10.526  0.3732 -0.5392 -0.3004
  136SAPE   H2X14727   6.139   3.187  10.553 -0.5864 -1.2615  0.6155
  136SAPE   H2Y14728   6.106   3.363  10.527  1.3176 -0.8990  2.2047
  136SAPE   C2314729   5.427   3.168  10.393  0.5496  0.4004  0.1451
  136SAPE   H3R14730   5.382   3.240  10.322  2.2484  0.5980 -0.7710
  136SAPE   H3S14731   5.362   3.169  10.483 -1.5735 -0.6110 -1.2933
  136SAPE   C2414732   5.420   3.028  10.331  0.5526 -0.4668  0.3147
  136SAPE   H4R14733   5.494   2.956  10.370 -0.7611 -1.3106  1.3184
  136SAPE   H4S14734   5.457   3.045  10.227  2.7411  2.3521  1.4064
  136SAPE   C2514735   5.278   2.966  10.340  0.0916 -0.2635 -0.4063
  136SAPE   H5R14736   5.251   2.924  10.438 -0.7197 -0.5331 -0.7364
  136SAPE   C2614737   5.196   2.966  10.235  0.0653 -0.1199 -0.0959
  136SAPE   H6R14738   5.106   2.905  10.249  0.2649 -0.5375 -0.6121
  136SAPE   C2714739   5.209   3.027  10.097  0.3161  0.4822  1.0043
  136SAPE   H7R14740   5.211   2.947  10.020  1.1208 -0.1252  1.6458
  136SAPE   H7S14741   5.309   3.073  10.078  1.2029 -2.0671 -1.0476
  136SAPE   C2814742   5.105   3.135  10.071 -0.9435  0.0076 -0.3210
  136SAPE   H8R14743   5.037   3.154  10.155 -1.5585  1.5530 -1.1264
  136SAPE   C2914744   5.078   3.183   9.945 -0.0542 -0.0427  0.4456
  136SAPE   H9R14745   5.006   3.266   9.941  0.4668  0.3611 -0.8760
  136SAPE  C21014746   5.153   3.144   9.817  1.4217  0.2619  0.2793
  136SAPE  H10R14747   5.238   3.078   9.847  0.1478 -1.9067 -0.6491
  136SAPE  H10S14748   5.196   3.226   9.756 -1.2552  0.4990 -1.4390
  136SAPE  C21114749   5.076   3.041   9.734  0.2104 -0.6563 -0.4844
  136SAPE  H11R14750   5.018   2.964   9.787 -0.8803  0.6127  0.2261
  136SAPE  C21214751   5.073   3.035   9.597 -0.0725 -1.0043 -0.2475
  136SAPE  H12R14752   5.009   2.960   9.548  1.0323 -1.8165 -0.4663
  136SAPE  C21314753   5.156   3.121   9.505 -0.4450  0.4115  0.2890
  136SAPE  H13R14754   5.227   3.186   9.560 -1.4837  0.6194  1.4417
  136SAPE  H13S14755   5.094   3.198   9.454  1.3419  2.1656  0.6606
  136SAPE  C21414756   5.253   3.050   9.408  0.6578  0.1738  0.0305
  136SAPE  H14R14757   5.343   2.998   9.445 -1.8760 -2.5631  2.9536
  136SAPE  C21514758   5.233   3.049   9.277 -0.2904 -0.2811 -0.1623
  136SAPE  H15R14759   5.310   3.008   9.210  0.0551  1.3313 -0.8129
  136SAPE  C21614760   5.119   3.103   9.192 -0.3176 -0.3370 -0.1183
  136SAPE  H16R14761   5.052   3.174   9.245 -0.3683  0.0790 -0.7325
  136SAPE  H16S14762   5.057   3.018   9.154 -1.7883  1.0937 -1.0657
  136SAPE  C21714763   5.182   3.167   9.063  0.1323 -0.2656 -0.3473
  136SAPE  H17R14764   5.240   3.090   9.007  0.0322 -0.0637 -0.7316
  136SAPE  H17S14765   5.244   3.245   9.112 -0.4532 -0.8257  1.3472
  136SAPE  C21814766   5.074   3.236   8.967 -0.2639 -0.4972  0.3342
  136SAPE  H18R14767   4.996   3.269   9.039 -0.8615 -0.4329 -0.3404
  136SAPE  H18S14768   5.035   3.161   8.895 -0.3327 -0.6311  0.5092
  136SAPE  C21914769   5.136   3.364   8.903  0.3461  0.3644 -0.0427
  136SAPE  H19R14770   5.202   3.338   8.818  2.1597  0.5594  1.2594
  136SAPE  H19S14771   5.198   3.405   8.985 -2.2158  3.1977  0.6614
  136SAPE  C22014772   5.033   3.472   8.867 -0.1032 -0.8658  0.5126
  136SAPE  H20R14773   5.087   3.563   8.835 -0.8091 -1.1035 -1.4952
  136SAPE  H20S14774   4.977   3.503   8.958  0.2068  1.7747 -0.1217
  136SAPE  H20T14775   4.963   3.427   8.794 -0.6028  0.8175 -0.0847
  136SAPE   C3314776   6.009   3.248  10.382 -0.0403  0.0586 -0.1796
  136SAPE   H3X14777   6.089   3.274  10.310  0.6154 -0.3485  0.3792
  136SAPE   H3Y14778   5.920   3.314  10.379 -0.1742  0.0990  2.4219
  136SAPE   C3414779   5.961   3.104  10.350  0.2547  0.4265 -0.1205
  136SAPE   H4X14780   5.888   3.066  10.425  0.0162  1.0902 -0.0099
  136SAPE   H4Y14781   6.050   3.038  10.349  0.2584  0.2015  3.0649
  136SAPE   C3514782   5.886   3.085  10.215  0.0611 -0.5442 -0.4039
  136SAPE   H5X14783   5.798   3.153  10.213  2.0153  2.2965  1.3594
  136SAPE   H5Y14784   5.850   2.980  10.224 -1.1226 -0.1473 -0.3417
  136SAPE   C3614785   5.979   3.115  10.096 -0.1278  0.5674 -0.5941
  136SAPE   H6X14786   6.069   3.051  10.111  0.4188  0.7587 -2.6765
  136SAPE   H6Y14787   6.032   3.212  10.087  2.0548 -0.3570  1.2029
  136SAPE   C3714788   5.913   3.094   9.958  0.3594  0.1899  0.4421
  136SAPE   H7X14789   5.846   3.182   9.949 -1.7048 -1.2768  0.7809
  136SAPE   H7Y14790   5.858   3.000   9.937  0.9278  0.1496 -0.9385
  136SAPE   C3814791   6.014   3.113   9.840 -0.2290  1.1891 -0.8433
  136SAPE   H8X14792   6.074   3.019   9.831 -1.9403  0.1061 -1.4873
  136SAPE   H8Y14793   6.069   3.208   9.858  0.1016  0.8154  0.2631
  136SAPE   C3914794   5.928   3.121   9.717 -0.2886  0.1041  0.1183
  136SAPE   H9X14795   5.878   3.221   9.716  2.2630  1.5375 -2.9859
  136SAPE   H9Y14796   5.850   3.042   9.722  0.4021 -0.5015  2.0447
  136SAPE  C31014797   6.005   3.113   9.588 -0.0367 -0.8579  0.2058
  136SAPE  H10X14798   6.039   3.007   9.578  1.0636 -0.3446 -2.1703
  136SAPE  H10Y14799   6.092   3.181   9.588 -1.5493  1.2036  1.8815
  136SAPE  C31114800   5.928   3.133   9.456  0.4075 -0.0030  0.1450
  136SAPE  H11X14801   5.853   3.215   9.469  2.0725  1.3956  1.4950
  136SAPE  H11Y14802   5.868   3.041   9.439 -0.6856  0.8710 -0.8873
  136SAPE  C31214803   6.016   3.166   9.340  0.5723  0.5758 -0.0811
  136SAPE  H12X14804   6.086   3.246   9.372  0.1861  1.1860 -0.7083
  136SAPE  H12Y14805   5.948   3.207   9.262  1.2081  1.3348 -0.2515
  136SAPE  C31314806   6.097   3.034   9.293  0.5788  0.0456  0.5479
  136SAPE  H13X14807   6.026   2.959   9.251  1.4981 -0.2266 -0.5504
  136SAPE  H13Y14808   6.159   2.976   9.365  0.3865  0.1127  0.7707
  136SAPE  C31414809   6.199   3.059   9.171  0.0474  0.4791 -0.7603
  136SAPE  H14X14810   6.255   2.965   9.152 -0.1185  0.3767 -0.7478
  136SAPE  H14Y14811   6.251   3.155   9.190 -0.7859  0.6502  0.8582
  136SAPE  C31514812   6.125   3.086   9.042 -0.4864 -0.8787 -0.1053
  136SAPE  H15X14813   6.055   3.171   9.058  2.6299  1.9023 -0.1674
  136SAPE  H15Y14814   6.080   2.989   9.014 -1.5381  0.3771 -3.2378
  136SAPE  C31614815   6.227   3.122   8.927 -0.5192  0.2581 -0.4160
  136SAPE  H16X14816   6.298   3.037   8.917  0.6338  1.3798 -2.2733
  136SAPE  H16Y14817   6.289   3.205   8.966  0.9180 -1.1242  0.3362
  136SAPE  C31714818   6.170   3.171   8.799 -0.3885 -0.0810  0.5125
  136SAPE  H17X14819   6.251   3.219   8.740 -1.5750 -1.8513 -2.8218
  136SAPE  H17Y14820   6.091   3.248   8.810 -0.7953 -0.5351  0.8318
  136SAPE  C31814821   6.108   3.061   8.715 -0.0285  0.7481 -0.0935
  136SAPE  H18X14822   6.026   3.017   8.776 -0.7845 -0.8911 -2.1645
  136SAPE  H18Y14823   6.175   2.975   8.694 -0.1812  0.7459 -0.5887
  136SAPE  H18Z14824   6.066   3.088   8.616  1.0961 -0.7335 -1.0145
  137SAPE     N14825   1.619   0.468  10.988  0.0922  0.6130  0.0802
  137SAPE   HN114826   1.675   0.532  10.927  1.3841 -0.9655 -0.4821
  137SAPE   HN214827   1.685   0.406  11.040  0.1485  0.8891  0.3380
  137SAPE   HN314828   1.567   0.415  10.915  3.4949 -0.7468 -1.6172
  137SAPE   C1214829   1.537   0.554  11.079 -0.2917  0.8797  0.1905
  137SAPE  H12A14830   1.608   0.609  11.144 -1.8212  1.5767  1.3100
  137SAPE  H12B14831   1.488   0.476  11.141 -0.6570  0.5244 -0.5219
  137SAPE   C1114832   1.439   0.651  11.017  0.0080  0.1434  0.4178
  137SAPE  H11A14833   1.413   0.736  11.084 -3.7271  2.0569 -3.0326
  137SAPE  H11B14834   1.351   0.588  10.991  2.1084 -2.1540 -1.7376
  137SAPE     P14835   1.460   0.857  10.852 -0.5915 -0.2215  0.2143
  137SAPE   O1314836   1.520   0.936  10.964  0.7096  0.7207 -0.3870
  137SAPE   O1414837   1.516   0.884  10.720 -0.5542 -0.1637 -0.2508
  137SAPE   O1214838   1.477   0.704  10.888  0.2013  0.4468  0.6243
  137SAPE   O1114839   1.300   0.873  10.859 -0.7034  0.2855 -0.1834
  137SAPE    C114840   1.215   0.792  10.768 -0.0208  0.6464  0.0765
  137SAPE    HA14841   1.241   0.684  10.779 -2.6505 -0.0427  0.2985
  137SAPE    HB14842   1.107   0.794  10.797 -0.4117 -1.0093 -1.1224
  137SAPE    C214843   1.216   0.851  10.622 -0.4151  0.9446 -0.6099
  137SAPE    HS14844   1.319   0.875  10.587  1.0464 -2.4454  0.9335
  137SAPE   O2114845   1.130   0.969  10.614  0.1964 -0.9789 -0.2659
  137SAPE   C2114846   1.187   1.077  10.565  0.3951 -0.8821  0.0342
  137SAPE   O2214847   1.301   1.098  10.525 -0.2779  0.0373 -0.5773
  137SAPE   C2214848   1.072   1.183  10.575 -0.2019 -0.6740 -0.1935
  137SAPE   H2R14849   0.981   1.132  10.537 -1.0185  0.2976  0.3886
  137SAPE   H2S14850   1.056   1.229  10.675  1.3325  1.3739 -0.8336
  137SAPE    C314851   1.150   0.740  10.522 -0.0766 -0.4386 -0.2340
  137SAPE    HX14852   1.067   0.699  10.583  0.7376 -2.4165 -0.3929
  137SAPE    HY14853   1.214   0.650  10.516 -1.2125 -1.3700  0.9929
  137SAPE   O3114854   1.116   0.789  10.397 -0.2535 -0.0409  0.1835
  137SAPE   C3114855   1.210   0.831  10.314  0.2208  0.5355  0.4123
  137SAPE   O3214856   1.331   0.807  10.337  0.4138  0.2645 -0.5804
  137SAPE   C3214857   1.146   0.896  10.194 -0.4893  0.2064 -0.5955
  137SAPE   H2X14858   1.106   0.996  10.221  2.0047  0.7514  1.4587
  137SAPE   H2Y14859   1.058   0.831  10.174 -0.3089 -0.5449  0.9757
  137SAPE   C2314860   1.086   1.295  10.469  0.0080  0.2799 -0.0499
  137SAPE   H3R14861   1.181   1.348  10.492 -0.4331 -0.0840  2.8820
  137SAPE   H3S14862   1.000   1.365  10.476  1.0290  1.6368 -0.5876
  137SAPE   C2414863   1.090   1.253  10.323  0.3582  0.0525  0.3713
  137SAPE   H4R14864   0.994   1.202  10.302 -0.6011  1.8249  0.2542
  137SAPE   H4S14865   1.175   1.184  10.306  0.2167 -0.1945  0.6545
  137SAPE   C2514866   1.097   1.373  10.232  0.0934 -0.7829 -0.2784
  137SAPE   H5R14867   1.012   1.442  10.236 -1.5842 -2.6597 -1.5493
  137SAPE   C2614868   1.201   1.390  10.150  0.3419 -0.1785 -0.2183
  137SAPE   H6R14869   1.198   1.483  10.092 -1.6757 -0.1110 -0.0614
  137SAPE   C2714870   1.325   1.311  10.128 -0.0783 -0.4841 -0.2435
  137SAPE   H7R14871   1.303   1.242  10.044 -2.4037  2.0932 -1.9044
  137SAPE   H7S14872   1.338   1.245  10.217 -2.1351 -1.2223 -0.4371
  137SAPE   C2814873   1.448   1.403  10.104  0.0953  0.3469 -0.1715
  137SAPE   H8R14874   1.432   1.504  10.145 -2.2948 -1.2362  3.2598
  137SAPE   C2914875   1.563   1.365  10.040  0.4553 -0.5019  0.3072
  137SAPE   H9R14876   1.627   1.453  10.026 -0.5708  0.4186  1.2120
  137SAPE  C21014877   1.592   1.230   9.977  0.6208 -0.8870  0.4035
  137SAPE  H10R14878   1.509   1.211   9.906  1.5923 -1.9147 -0.4916
  137SAPE  H10S14879   1.570   1.159  10.059 -0.9057 -0.0546  0.7452
  137SAPE  C21114880   1.730   1.211   9.912 -0.0090  0.1568  0.2977
  137SAPE  H11R14881   1.812   1.281   9.936 -0.5109  0.5379  0.9342
  137SAPE  C21214882   1.756   1.117   9.823 -0.4736  0.1199  0.0631
  137SAPE  H12R14883   1.858   1.107   9.784 -1.0261 -0.1934 -1.3692
  137SAPE  C21314884   1.654   1.016   9.783  0.0586  0.0892 -0.1678
  137SAPE  H13R14885   1.569   1.010   9.854 -0.4002  0.1281 -0.7055
  137SAPE  H13S14886   1.682   0.909   9.791 -2.3460 -0.5636  0.3083
  137SAPE  C21414887   1.592   1.055   9.649 -0.6044  0.0872 -0.1284
  137SAPE  H14R14888   1.574   1.162   9.633 -1.1009 -0.1424 -1.1767
  137SAPE  C21514889   1.549   0.967   9.553 -0.0645 -0.3771  0.0685
  137SAPE  H15R14890   1.496   1.006   9.465  0.0900 -0.4899 -0.0746
  137SAPE  C21614891   1.559   0.819   9.549 -0.7056  0.3155 -0.8323
  137SAPE  H16R14892   1.466   0.761   9.567  0.2902 -0.9106  0.5502
  137SAPE  H16S14893   1.629   0.786   9.629 -0.1380 -1.1594 -1.8968
  137SAPE  C21714894   1.606   0.774   9.409 -0.8010  0.0362 -0.4041
  137SAPE  H17R14895   1.620   0.664   9.418 -0.0766  0.0840 -0.8337
  137SAPE  H17S14896   1.702   0.822   9.378 -2.4527  2.5669 -2.0650
  137SAPE  C21814897   1.509   0.806   9.296  0.1580 -0.4107 -0.8891
  137SAPE  H18R14898   1.504   0.916   9.279 -4.4861 -0.6320 -2.6684
  137SAPE  H18S14899   1.413   0.769   9.339  0.9655  0.6384  2.0033
  137SAPE  C21914900   1.531   0.740   9.158 -0.6720 -0.0594  0.0096
  137SAPE  H19R14901   1.529   0.630   9.174  0.3532  0.0526  1.0131
  137SAPE  H19S14902   1.634   0.755   9.118 -0.5268  0.2279  0.4909
  137SAPE  C22014903   1.423   0.774   9.060  0.0213  0.5075  0.0374
  137SAPE  H20R14904   1.446   0.715   8.969 -0.4341 -0.1054  0.3093
  137SAPE  H20S14905   1.429   0.879   9.025 -0.0415  0.2775 -0.6789
  137SAPE  H20T14906   1.321   0.762   9.104 -0.8090  1.6279 -1.4716
  137SAPE   C3314907   1.257   0.913  10.085 -0.2049  0.5667 -0.3276
  137SAPE   H3X14908   1.314   0.820  10.062  0.6877  0.8397  0.6486
  137SAPE   H3Y14909   1.337   0.978  10.128 -0.3070  1.2223 -1.1129
  137SAPE   C3414910   1.206   0.979   9.959 -0.0807 -0.7085 -0.5429
  137SAPE   H4X14911   1.290   1.023   9.901 -0.4270  2.1742  0.9557
  137SAPE   H4Y14912   1.134   1.059   9.987 -1.8768 -2.7187  0.8968
  137SAPE   C3514913   1.123   0.884   9.873  0.3126  0.1238 -0.4135
  137SAPE   H5X14914   1.017   0.909   9.897  0.7098 -0.2616  1.8995
  137SAPE   H5Y14915   1.125   0.780   9.911  0.0480 -0.7003 -2.5198
  137SAPE   C3614916   1.156   0.879   9.727 -0.9275  0.0772  0.1036
  137SAPE   H6X14917   1.262   0.857   9.705 -0.6642  2.0114 -0.8072
  137SAPE   H6Y14918   1.147   0.983   9.687  0.9375  1.0267  1.9562
  137SAPE   C3714919   1.057   0.802   9.645  0.3229  0.1801  0.1200
  137SAPE   H7X14920   0.951   0.830   9.655  0.3232  1.0274 -1.7836
  137SAPE   H7Y14921   1.053   0.692   9.661 -1.6339  0.2680  0.4220
  137SAPE   C3814922   1.087   0.824   9.496  0.0990 -0.4109  0.2314
  137SAPE   H8X14923   1.196   0.823   9.478 -0.4133 -0.6344 -3.9303
  137SAPE   H8Y14924   1.046   0.924   9.473  0.3852 -0.0387  1.3049
  137SAPE   C3914925   1.018   0.724   9.405  0.4442 -0.1347 -0.2640
  137SAPE   H9X14926   0.909   0.728   9.428  0.4110 -0.2046 -0.4128
  137SAPE   H9Y14927   1.051   0.621   9.428  0.7267 -0.1256 -0.6222
  137SAPE  C31014928   1.044   0.747   9.252 -0.2564  1.2685  0.2804
  137SAPE  H10X14929   1.148   0.783   9.236  0.0187  0.1201 -0.6581
  137SAPE  H10Y14930   0.988   0.839   9.225 -0.9472  0.5989 -0.6200
  137SAPE  C31114931   1.010   0.633   9.150 -0.1772  0.1824 -0.7521
  137SAPE  H11X14932   1.032   0.541   9.208  0.6001 -0.9758 -2.7740
  137SAPE  H11Y14933   1.087   0.632   9.069  1.3271 -1.7624  0.6078
  137SAPE  C31214934   0.868   0.651   9.090  0.4638  0.9605 -0.7297
  137SAPE  H12X14935   0.869   0.748   9.035 -1.8956  0.7339 -1.2646
  137SAPE  H12Y14936   0.784   0.651   9.161 -0.1870  0.0292 -1.4693
  137SAPE  C31314937   0.838   0.531   8.989 -0.2853  0.3786 -0.7991
  137SAPE  H13X14938   0.821   0.432   9.036  0.5897 -0.6168 -2.4701
  137SAPE  H13Y14939   0.927   0.513   8.925  0.1887 -1.8775  0.3755
  137SAPE  C31414940   0.707   0.567   8.908  0.2646 -0.0614  0.2470
  137SAPE  H14X14941   0.687   0.676   8.900  0.3146 -0.1028 -0.5457
  137SAPE  H14Y14942   0.618   0.520   8.955 -0.1187 -0.3434 -0.7299
  137SAPE  C31514943   0.707   0.504   8.767  0.9663 -0.7462 -0.0231
  137SAPE  H15X14944   0.680   0.397   8.785  2.3173 -1.0661  0.1905
  137SAPE  H15Y14945   0.808   0.514   8.721  0.6494  2.0618 -0.2794
  137SAPE  C31614946   0.603   0.564   8.670 -0.1158 -0.3493  0.2662
  137SAPE  H16X14947   0.614   0.672   8.649  0.1622  0.0033  2.0900
  137SAPE  H16Y14948   0.512   0.553   8.732  0.7420  0.1028  1.6524
  137SAPE  C31714949   0.583   0.473   8.549 -0.3142 -0.0113 -0.2312
  137SAPE  H17X14950   0.503   0.516   8.485 -1.0590  0.2522  0.8483
  137SAPE  H17Y14951   0.557   0.369   8.582 -2.2632  1.1145  2.1645
  137SAPE  C31814952   0.706   0.456   8.461  0.2070 -0.4217 -0.4067
  137SAPE  H18X14953   0.735   0.559   8.430  1.1441 -1.2329 -2.3745
  137SAPE  H18Y14954   0.682   0.396   8.371  0.9282  0.6505 -1.3389
  137SAPE  H18Z14955   0.791   0.405   8.511  1.1447  0.4838 -1.0188
  138SAPE     N14956   2.613   0.313  10.815  0.5521  0.0314  0.8745
  138SAPE   HN114957   2.592   0.415  10.812  2.6886  0.5429  1.1191
  138SAPE   HN214958   2.534   0.274  10.870  1.5873 -2.4984  0.6959
  138SAPE   HN314959   2.707   0.300  10.857  2.1982 -0.0267 -2.5042
  138SAPE   C1214960   2.602   0.248  10.675  0.6030 -0.2343 -0.9701
  138SAPE  H12A14961   2.671   0.295  10.602  0.1891 -0.1699 -1.3315
  138SAPE  H12B14962   2.499   0.270  10.638 -0.0265 -1.2765  0.1033
  138SAPE   C1114963   2.639   0.095  10.676 -0.7700  0.2133 -0.5047
  138SAPE  H11A14964   2.636   0.054  10.572 -1.6812  0.0492 -0.4274
  138SAPE  H11B14965   2.549   0.041  10.714  0.1026 -2.1722 -1.6248
  138SAPE     P14966   2.895   0.086  10.697 -0.7214 -0.4766  0.4548
  138SAPE   O1314967   2.920   0.231  10.675 -0.3088  0.4026  0.2899
  138SAPE   O1414968   2.988   0.022  10.792  0.5278 -0.1846  0.2612
  138SAPE   O1214969   2.753   0.068  10.758  0.2211  0.3147 -0.2385
  138SAPE   O1114970   2.900   0.015  10.558 -0.3857  0.3241  0.1692
  138SAPE    C114971   2.976   0.061  10.447  0.6389  0.1452  0.5539
  138SAPE    HA14972   3.009   0.167  10.444 -2.6009  1.2459 -2.4862
  138SAPE    HB14973   3.070   0.000  10.448  1.3682  1.2357  0.5328
  138SAPE    C214974   2.907   0.012  10.316  0.6140  0.3679  0.3845
  138SAPE    HS14975   2.831  -0.065  10.343  0.4205 -0.3335 -1.9255
  138SAPE   O2114976   2.999  -0.041  10.213  0.5180 -0.1781 -0.3588
  138SAPE   C2114977   3.068  -0.148  10.239 -0.2622  0.6067 -0.7727
  138SAPE   O2214978   3.046  -0.224  10.331 -0.2696  0.3397 -0.5097
  138SAPE   C2214979   3.172  -0.170  10.130  0.0997 -0.9162  0.0473
  138SAPE   H2R14980   3.126  -0.168  10.029  1.1635 -1.5156 -0.4691
  138SAPE   H2S14981   3.246  -0.088  10.147  2.4909 -2.2805 -2.8342
  138SAPE    C314982   2.826   0.129  10.242  0.4042  0.1015  0.0453
  138SAPE    HX14983   2.897   0.214  10.253  1.0078 -0.5429  1.3013
  138SAPE    HY14984   2.735   0.163  10.296 -0.6796 -0.9143 -1.0862
  138SAPE   O3114985   2.803   0.095  10.107 -0.3137 -0.0878  0.7437
  138SAPE   C3114986   2.689   0.031  10.099  0.1139 -0.2011 -0.0294
  138SAPE   O3214987   2.629  -0.012  10.198  0.1775  0.3555  0.0729
  138SAPE   C3214988   2.632   0.023   9.959 -0.1241 -0.5992  0.0636
  138SAPE   H2X14989   2.546  -0.045   9.954 -1.7643  1.3800 -0.0079
  138SAPE   H2Y14990   2.715  -0.018   9.898  0.8417 -0.0960  0.9999
  138SAPE   C2314991   3.254  -0.298  10.148  0.1505  0.6012  0.3349
  138SAPE   H3R14992   3.273  -0.317  10.256  1.3771  0.0937  0.0538
  138SAPE   H3S14993   3.352  -0.271  10.102  1.2196  0.2358  2.2636
  138SAPE   C2414994   3.189  -0.412  10.070 -0.3646  0.1474 -0.1709
  138SAPE   H4R14995   3.207  -0.371   9.968 -1.9206  1.2035 -0.0605
  138SAPE   H4S14996   3.081  -0.402  10.095  0.0056  0.8667  1.2893
  138SAPE   C2514997   3.257  -0.543  10.096 -0.3108  1.3819  0.2692
  138SAPE   H5R14998   3.255  -0.578  10.201  0.1686 -0.2742 -0.2333
  138SAPE   C2614999   3.303  -0.634   9.998  0.6310  0.0504 -0.3581
  138SAPE   H6R15000   3.333  -0.733  10.035  0.8158 -0.5267 -2.0183
  138SAPE   C2715001   3.279  -0.617   9.845  0.0123  0.0938 -0.2841
  138SAPE   H7R15002   3.292  -0.508   9.824  0.5642 -0.0783 -0.8551
  138SAPE   H7S15003   3.176  -0.646   9.817 -0.2241  0.2985  0.3475
  138SAPE   C2815004   3.379  -0.699   9.769  0.7826 -0.3909  0.5945
  138SAPE   H8R15005   3.474  -0.707   9.825  0.9531  1.4306  0.6237
  138SAPE   C2915006   3.357  -0.742   9.644 -0.0596  0.4125 -0.0512
  138SAPE   H9R15007   3.437  -0.801   9.596 -0.4580  0.7599 -1.1706
  138SAPE  C21015008   3.234  -0.744   9.561  0.5853  0.1696 -0.3238
  138SAPE  H10R15009   3.152  -0.701   9.623 -0.2183  0.1761 -1.3593
  138SAPE  H10S15010   3.195  -0.847   9.545  1.0568  0.1022 -1.0970
  138SAPE  C21115011   3.243  -0.653   9.449  0.3353 -0.2119 -0.6653
  138SAPE  H11R15012   3.259  -0.551   9.486 -1.3176 -0.5494  1.1791
  138SAPE  C21215013   3.246  -0.680   9.319 -0.0208 -0.3441  0.2208
  138SAPE  H12R15014   3.250  -0.608   9.236  0.6789 -0.2225  0.3585
  138SAPE  C21315015   3.242  -0.822   9.262 -0.2905 -0.4600 -0.4270
  138SAPE  H13R15016   3.238  -0.898   9.342 -1.7719 -0.4216 -0.4458
  138SAPE  H13S15017   3.334  -0.828   9.200 -0.4093  1.6644 -0.9167
  138SAPE  C21415018   3.117  -0.856   9.183  0.1850  0.6773  0.5510
  138SAPE  H14R15019   3.051  -0.925   9.238  3.0434 -1.9255  1.0645
  138SAPE  C21515020   3.099  -0.815   9.058  0.4054  0.3438  1.1150
  138SAPE  H15R15021   3.003  -0.835   9.008  0.0771  2.7474  0.6753
  138SAPE  C21615022   3.187  -0.737   8.966  0.6723  0.1731  0.8010
  138SAPE  H16R15023   3.267  -0.683   9.022  1.7499 -1.1221  0.5626
  138SAPE  H16S15024   3.134  -0.665   8.900  1.8444 -0.6857 -1.1436
  138SAPE  C21715025   3.254  -0.840   8.870 -0.4551  0.4583  0.4273
  138SAPE  H17R15026   3.182  -0.895   8.806  0.0926  0.1573  0.0642
  138SAPE  H17S15027   3.310  -0.921   8.922 -0.5696  0.6294  0.8216
  138SAPE  C21815028   3.346  -0.766   8.774 -0.2074 -0.2365 -0.0890
  138SAPE  H18R15029   3.411  -0.706   8.841 -0.4384 -1.1431  0.9670
  138SAPE  H18S15030   3.289  -0.693   8.712 -1.9262 -0.9964  0.5415
  138SAPE  C21915031   3.420  -0.854   8.685  0.6485 -0.4945  1.0134
  138SAPE  H19R15032   3.345  -0.898   8.616  0.0743 -0.7511  1.7938
  138SAPE  H19S15033   3.475  -0.940   8.728  0.7662 -2.4391 -2.5658
  138SAPE  C22015034   3.519  -0.779   8.588  0.1257 -0.4203  0.1164
  138SAPE  H20R15035   3.456  -0.728   8.512 -1.1941 -2.1403 -0.0227
  138SAPE  H20S15036   3.578  -0.856   8.534 -2.1553 -1.8611 -0.4777
  138SAPE  H20T15037   3.596  -0.720   8.642  0.4297 -0.2759 -0.4661
  138SAPE   C3315038   2.591   0.167   9.908  0.1911 -0.0982  0.2610
  138SAPE   H3X15039   2.568   0.150   9.801  1.3245 -0.3799  0.0547
  138SAPE   H3Y15040   2.680   0.233   9.923 -2.3945  3.1775  2.9006
  138SAPE   C3415041   2.485   0.233   9.994 -0.4717 -1.5830 -0.1489
  138SAPE   H4X15042   2.473   0.340   9.968  0.5207 -0.3666  3.7200
  138SAPE   H4Y15043   2.522   0.252  10.097 -0.9845 -0.2780 -0.1906
  138SAPE   C3515044   2.345   0.173  10.005 -0.3978 -0.2715  0.0584
  138SAPE   H5X15045   2.279   0.246  10.058  1.7012 -0.6699  3.5478
  138SAPE   H5Y15046   2.345   0.079  10.065 -2.1347 -0.8511 -0.7797
  138SAPE   C3615047   2.282   0.144   9.871  0.0810  0.2618  0.5633
  138SAPE   H6X15048   2.189   0.084   9.872  0.4821 -0.4371 -1.0676
  138SAPE   H6Y15049   2.347   0.077   9.810 -1.9741  0.0585 -1.5145
  138SAPE   C3715050   2.251   0.264   9.787 -0.6283 -0.2682  0.1679
  138SAPE   H7X15051   2.347   0.314   9.763 -2.0532  2.4499 -0.3122
  138SAPE   H7Y15052   2.178   0.339   9.825  1.0020  2.1105 -1.0997
  138SAPE   C3815053   2.212   0.232   9.639 -0.3027 -0.5980 -0.6547
  138SAPE   H8X15054   2.180   0.329   9.594  0.5410 -0.1610 -0.3393
  138SAPE   H8Y15055   2.118   0.173   9.636 -2.0164  1.9150 -0.2180
  138SAPE   C3915056   2.326   0.170   9.549  0.2274 -0.7953 -0.8255
  138SAPE   H9X15057   2.351   0.073   9.598 -1.3600 -0.4225  0.8540
  138SAPE   H9Y15058   2.407   0.244   9.537 -1.0056  0.8320  0.4132
  138SAPE  C31015059   2.279   0.146   9.406 -0.1862 -0.3677 -0.2741
  138SAPE  H10X15060   2.201   0.069   9.391 -1.9493  1.7370 -2.6577
  138SAPE  H10Y15061   2.373   0.118   9.353 -0.8629 -0.3470 -1.5143
  138SAPE  C31115062   2.232   0.274   9.333  0.1487 -0.2156  0.5360
  138SAPE  H11X15063   2.306   0.351   9.363  0.7174 -0.9808  1.1316
  138SAPE  H11Y15064   2.127   0.298   9.361  0.0690  0.4414 -0.2668
  138SAPE  C31215065   2.247   0.246   9.183  0.2967  0.1130 -0.0537
  138SAPE  H12X15066   2.179   0.160   9.165 -0.4022 -0.2415  3.4955
  138SAPE  H12Y15067   2.352   0.216   9.160 -0.4912 -2.8448 -0.2500
  138SAPE  C31315068   2.194   0.362   9.107 -0.2361 -0.0536 -0.3126
  138SAPE  H13X15069   2.255   0.453   9.131  0.1898 -0.9305  2.2936
  138SAPE  H13Y15070   2.089   0.382   9.136  0.2206 -0.6721  1.9807
  138SAPE  C31415071   2.192   0.347   8.949 -0.0987 -1.0524  0.4847
  138SAPE  H14X15072   2.143   0.251   8.924  1.1272 -2.0944  1.8992
  138SAPE  H14Y15073   2.298   0.341   8.916 -0.1574  1.2286 -0.3198
  138SAPE  C31515074   2.122   0.453   8.866  0.4066 -0.2911 -0.7255
  138SAPE  H15X15075   2.140   0.557   8.900  0.0092  0.0061 -1.4084
  138SAPE  H15Y15076   2.015   0.438   8.890  0.6744 -0.0239  0.7275
  138SAPE  C31615077   2.160   0.440   8.724 -0.5222 -0.3898 -0.3545
  138SAPE  H16X15078   2.107   0.356   8.673  0.9692 -2.4969  1.3527
  138SAPE  H16Y15079   2.266   0.408   8.714 -0.5512  0.0982 -2.5705
  138SAPE  C31715080   2.134   0.566   8.641 -0.5297 -0.2431 -0.0431
  138SAPE  H17X15081   2.199   0.642   8.688  0.5347 -0.9929 -0.2871
  138SAPE  H17Y15082   2.028   0.591   8.663 -1.3416 -2.3585 -1.2111
  138SAPE  C31815083   2.175   0.547   8.489 -0.4275  0.0009 -0.1107
  138SAPE  H18X15084   2.108   0.489   8.422 -1.7914  0.6115  0.6955
  138SAPE  H18Y15085   2.279   0.510   8.474 -0.6783 -1.3440  1.2673
  138SAPE  H18Z15086   2.173   0.647   8.439  0.5320 -0.3489 -0.8896
  139SAPE     N15087   3.543   5.927  10.824  0.1281  0.1291 -0.0624
  139SAPE   HN115088   3.481   5.936  10.741  3.1539  0.7733 -2.4506
  139SAPE   HN215089   3.567   5.826  10.822 -2.6180 -0.6027 -2.0192
  139SAPE   HN315090   3.489   5.954  10.909 -1.6869  0.0805 -1.1420
  139SAPE   C1215091   3.673   6.007  10.809  0.4905  0.2970  0.0944
  139SAPE  H12A15092   3.708   5.980  10.707  0.3883 -0.3301  0.2205
  139SAPE  H12B15093   3.742   5.961  10.884 -2.2807 -1.7903  1.5612
  139SAPE   C1115094   3.643   6.154  10.815 -0.0028  0.6113  0.5140
  139SAPE  H11A15095   3.736   6.208  10.786  1.1013 -1.4938 -0.0825
  139SAPE  H11B15096   3.632   6.174  10.923  0.0422  1.6806  0.3350
  139SAPE     P15097   3.463   6.327  10.781  0.2316  0.0083  0.0555
  139SAPE   O1315098   3.381   6.303  10.904 -0.3772  0.0308  0.5903
  139SAPE   O1415099   3.568   6.429  10.795  0.3439 -0.5208  0.5295
  139SAPE   O1215100   3.532   6.189  10.738  0.4886  0.5092  0.2199
  139SAPE   O1115101   3.359   6.364  10.659  0.0451 -0.3107 -0.7072
  139SAPE    C115102   3.275   6.264  10.609  0.1433  0.9087  0.4424
  139SAPE    HA15103   3.223   6.194  10.678  0.1156 -0.4506 -0.8929
  139SAPE    HB15104   3.192   6.318  10.558 -0.7435 -0.8679 -0.1028
  139SAPE    C215105   3.345   6.172  10.498 -0.2733 -0.2305 -0.7521
  139SAPE    HS15106   3.426   6.107  10.538 -0.6275 -1.5913 -2.1612
  139SAPE   O2115107   3.399   6.272  10.407  0.2089  0.1013  0.3028
  139SAPE   C2115108   3.524   6.268  10.375 -0.5579  0.1879 -0.3456
  139SAPE   O2215109   3.599   6.169  10.390 -0.4520 -0.5302 -0.1406
  139SAPE   C2215110   3.555   6.401  10.301 -0.1775  0.5600  0.1908
  139SAPE   H2R15111   3.488   6.413  10.214 -2.0746  1.7662  1.7289
  139SAPE   H2S15112   3.531   6.479  10.377  0.1381  0.4432  0.4131
  139SAPE    C315113   3.245   6.078  10.427  0.1515  0.4863 -0.3062
  139SAPE    HX15114   3.164   6.142  10.387  0.9525  0.9813 -1.1770
  139SAPE    HY15115   3.197   6.008  10.498 -2.8880  2.4683 -0.2203
  139SAPE   O3115116   3.319   6.023  10.319  0.2022  0.4513  0.0187
  139SAPE   C3115117   3.306   5.899  10.292 -0.2628  0.0936  0.5633
  139SAPE   O3215118   3.215   5.823  10.324 -0.0046 -0.3946  0.3702
  139SAPE   C3215119   3.428   5.864  10.205  0.1076  0.3247 -0.6709
  139SAPE   H2X15120   3.491   5.798  10.268  1.3852  0.7886 -1.4195
  139SAPE   H2Y15121   3.482   5.956  10.173 -1.5597  1.5917  0.0173
  139SAPE   C2315122   3.695   6.402  10.241 -0.1010  0.1109 -0.1379
  139SAPE   H3R15123   3.769   6.353  10.307  0.6747  2.1131  0.5752
  139SAPE   H3S15124   3.729   6.507  10.222 -1.6315  0.7170  0.3242
  139SAPE   C2415125   3.700   6.333  10.099  0.5131 -0.0347 -0.3496
  139SAPE   H4R15126   3.639   6.395  10.031 -0.5322  0.4132  0.9381
  139SAPE   H4S15127   3.635   6.244  10.111 -0.0585  0.4039 -0.1341
  139SAPE   C2515128   3.831   6.300  10.042 -0.5242 -0.5820 -0.1833
  139SAPE   H5R15129   3.890   6.228  10.101 -1.4709 -0.3753  1.0625
  139SAPE   C2615130   3.884   6.341   9.925 -0.1630 -0.6806 -0.3252
  139SAPE   H6R15131   3.988   6.318   9.897  0.0596  1.7134 -1.6912
  139SAPE   C2715132   3.818   6.435   9.826  0.4519  0.5269  0.5625
  139SAPE   H7R15133   3.902   6.453   9.756  0.2571 -3.5938 -1.0513
  139SAPE   H7S15134   3.784   6.533   9.865  0.4671  0.4224  0.8459
  139SAPE   C2815135   3.714   6.350   9.754  0.1287  0.3522  0.1564
  139SAPE   H8R15136   3.620   6.326   9.807 -0.5132  0.7415 -0.7803
  139SAPE   C2915137   3.732   6.298   9.630  0.4106  0.6667  0.1041
  139SAPE   H9R15138   3.658   6.227   9.592  1.6256 -0.7215  0.2343
  139SAPE  C21015139   3.855   6.312   9.550 -0.0857  0.0040  0.8382
  139SAPE  H10R15140   3.946   6.279   9.606  0.4550 -2.6249 -1.3738
  139SAPE  H10S15141   3.865   6.418   9.519 -1.1044  0.3218  1.5431
  139SAPE  C21115142   3.857   6.226   9.426  0.4109 -0.3435 -0.2229
  139SAPE  H11R15143   3.943   6.160   9.408 -0.8229 -2.6468  1.6885
  139SAPE  C21215144   3.776   6.226   9.320  0.0229 -0.2045 -0.7173
  139SAPE  H12R15145   3.810   6.148   9.250  0.0681 -1.5662  0.7575
  139SAPE  C21315146   3.659   6.315   9.291  0.5517  0.3831  0.2995
  139SAPE  H13R15147   3.685   6.414   9.248  0.2722 -1.0643 -3.6379
  139SAPE  H13S15148   3.606   6.332   9.387 -0.5502  0.9095 -0.3850
  139SAPE  C21415149   3.555   6.245   9.198 -0.4443  0.5237 -0.3479
  139SAPE  H14R15150   3.505   6.152   9.227 -0.6536  0.5256 -0.7007
  139SAPE  C21515151   3.524   6.292   9.077  1.1254 -0.1245 -0.0337
  139SAPE  H15R15152   3.452   6.227   9.024  0.6387  1.3443 -1.2596
  139SAPE  C21615153   3.557   6.408   8.991 -0.4748  0.2571 -0.6800
  139SAPE  H16R15154   3.548   6.501   9.052 -0.5784 -1.4077  1.9980
  139SAPE  H16S15155   3.480   6.406   8.911  0.2545 -1.4596 -1.3857
  139SAPE  C21715156   3.704   6.390   8.944  0.1932  1.3664 -0.5834
  139SAPE  H17R15157   3.709   6.287   8.902 -0.1875  0.2886  1.8144
  139SAPE  H17S15158   3.766   6.387   9.037 -0.3542  1.6517 -0.2039
  139SAPE  C21815159   3.753   6.500   8.851 -0.9298 -0.0109  0.1368
  139SAPE  H18R15160   3.860   6.515   8.875 -0.8631  3.6784 -1.7814
  139SAPE  H18S15161   3.708   6.595   8.888  1.3065  0.9800  0.4330
  139SAPE  C21915162   3.741   6.488   8.695 -0.4699  0.5236 -0.3287
  139SAPE  H19R15163   3.786   6.393   8.659  1.2410  1.0179  0.4418
  139SAPE  H19S15164   3.814   6.556   8.645 -1.2654 -0.5525 -3.1974
  139SAPE  C22015165   3.596   6.494   8.652 -0.2861  0.3309  0.2112
  139SAPE  H20R15166   3.551   6.595   8.665  1.2797  0.7063  3.8586
  139SAPE  H20S15167   3.544   6.413   8.707 -1.1479 -1.4604 -2.9684
  139SAPE  H20T15168   3.576   6.468   8.546 -2.8843  0.4062  0.6136
  139SAPE   C3315169   3.377   5.794  10.076  0.3584 -0.1996 -0.2284
  139SAPE   H3X15170   3.286   5.836  10.027  0.8330  0.0295 -0.9380
  139SAPE   H3Y15171   3.344   5.693  10.108  0.1953  0.3141  1.2859
  139SAPE   C3415172   3.486   5.802   9.967  0.1286  0.0895 -0.7988
  139SAPE   H4X15173   3.585   5.775  10.011 -0.8149  0.6444  1.8201
  139SAPE   H4Y15174   3.492   5.905   9.926  0.9136  0.4942  0.2861
  139SAPE   C3515175   3.441   5.706   9.850  0.1306 -0.6595  0.0193
  139SAPE   H5X15176   3.338   5.730   9.817  0.0731 -0.1468  0.5354
  139SAPE   H5Y15177   3.451   5.603   9.889  1.4693 -0.5382  0.0436
  139SAPE   C3615178   3.533   5.716   9.729 -0.2614  0.5548  0.2553
  139SAPE   H6X15179   3.611   5.638   9.744 -1.1342 -1.0291 -2.7735
  139SAPE   H6Y15180   3.586   5.812   9.708 -0.0668  0.1693 -1.1323
  139SAPE   C3715181   3.460   5.677   9.600 -0.5458 -0.1684 -0.4079
  139SAPE   H7X15182   3.370   5.739   9.581 -0.0768  0.3858 -0.8796
  139SAPE   H7Y15183   3.414   5.577   9.612  1.4790 -0.9880  1.0959
  139SAPE   C3815184   3.554   5.694   9.479 -0.5786  0.0769 -0.3534
  139SAPE   H8X15185   3.506   5.624   9.408  0.7302 -0.9390 -0.2774
  139SAPE   H8Y15186   3.660   5.666   9.499  0.5100  3.6372 -0.4337
  139SAPE   C3915187   3.544   5.839   9.421  0.7055  0.0939 -0.1352
  139SAPE   H9X15188   3.591   5.909   9.493  0.5275 -0.4806  0.5525
  139SAPE   H9Y15189   3.437   5.866   9.406  0.8033  1.1011  0.8490
  139SAPE  C31015190   3.616   5.856   9.291 -0.0633 -0.0872 -0.5057
  139SAPE  H10X15191   3.724   5.833   9.299  0.2281  1.1958 -0.4422
  139SAPE  H10Y15192   3.619   5.967   9.279 -0.8734 -0.0993 -0.8715
  139SAPE  C31115193   3.555   5.785   9.170  0.5394 -0.1064 -0.0904
  139SAPE  H11X15194   3.447   5.770   9.192  0.2476  1.8749  0.0087
  139SAPE  H11Y15195   3.597   5.683   9.152 -0.5680 -0.1901 -2.5040
  139SAPE  C31215196   3.574   5.866   9.040 -1.0241 -0.1692 -0.2977
  139SAPE  H12X15197   3.562   5.974   9.064  0.1454 -0.4444  1.7563
  139SAPE  H12Y15198   3.495   5.840   8.967 -0.8252  1.0266 -0.9657
  139SAPE  C31315199   3.716   5.838   8.978  0.0135  0.2952  0.2289
  139SAPE  H13X15200   3.706   5.743   8.921 -1.5874  1.4310 -1.4767
  139SAPE  H13Y15201   3.789   5.832   9.062 -1.7352  1.9836  1.9539
  139SAPE  C31415202   3.759   5.950   8.886  0.2606  0.4869 -0.6840
  139SAPE  H14X15203   3.736   6.047   8.935 -0.0058  0.1785 -0.1873
  139SAPE  H14Y15204   3.685   5.955   8.804 -0.1556  3.9736 -0.2295
  139SAPE  C31515205   3.903   5.939   8.820  0.3794 -0.1997 -1.3334
  139SAPE  H15X15206   3.914   5.858   8.745  1.5021 -0.4629 -0.9071
  139SAPE  H15Y15207   3.974   5.929   8.905 -2.0665  0.9958  1.0207
  139SAPE  C31615208   3.946   6.075   8.767  0.4264  0.8382  0.2435
  139SAPE  H16X15209   3.893   6.106   8.674  1.1045 -0.1537 -0.4892
  139SAPE  H16Y15210   3.902   6.139   8.847 -0.6482  0.2746  0.1259
  139SAPE  C31715211   4.095   6.097   8.761 -0.4603  0.0410 -0.1503
  139SAPE  H17X15212   4.131   6.042   8.851 -0.8010  1.2241  0.7414
  139SAPE  H17Y15213   4.109   6.205   8.779 -0.8740  0.0020  0.4593
  139SAPE  C31815214   4.163   6.037   8.640  0.2009 -0.8149  0.8549
  139SAPE  H18X15215   4.274   6.049   8.643  0.2918 -1.3903  0.1199
  139SAPE  H18Y15216   4.115   6.078   8.549 -0.6662  0.2523  1.7673
  139SAPE  H18Z15217   4.142   5.928   8.644 -1.8893 -0.6269 -1.9800
  140SAPE     N15218   2.098   4.690  11.214 -0.3954 -0.7751  0.0133
  140SAPE   HN115219   2.068   4.736  11.126 -3.2501  0.0927  1.2965
  140SAPE   HN215220   2.111   4.588  11.200 -0.6140 -0.8472  0.3205
  140SAPE   HN315221   2.006   4.685  11.263 -0.1432 -2.9082  0.3351
  140SAPE   C1215222   2.214   4.754  11.296  0.4696 -0.2469 -0.7420
  140SAPE  H12A15223   2.274   4.669  11.336 -0.3680 -0.7913 -0.6260
  140SAPE  H12B15224   2.163   4.810  11.377  0.5512 -0.1426 -0.7624
  140SAPE   C1115225   2.290   4.852  11.200  0.1137  0.7824 -0.2845
  140SAPE  H11A15226   2.385   4.867  11.256 -1.2091 -1.4507  2.8935
  140SAPE  H11B15227   2.226   4.942  11.193  1.2597  2.0433  3.1346
  140SAPE     P15228   2.414   4.871  10.970 -0.0976  0.2231  0.6261
  140SAPE   O1315229   2.355   5.004  10.937 -0.4824  0.1293 -0.6570
  140SAPE   O1415230   2.551   4.870  11.030  0.0652 -0.4322  0.4143
  140SAPE   O1215231   2.314   4.800  11.066  0.4168 -0.0400 -0.0722
  140SAPE   O1115232   2.413   4.784  10.838 -0.4998  0.3861 -0.2198
  140SAPE    C115233   2.288   4.772  10.764 -0.6653 -0.9853  0.0550
  140SAPE    HA15234   2.203   4.788  10.834 -0.6271 -0.1466 -0.0697
  140SAPE    HB15235   2.286   4.861  10.697  0.0697 -0.9828  0.0341
  140SAPE    C215236   2.281   4.635  10.689  0.2554 -0.2494  0.5962
  140SAPE    HS15237   2.283   4.563  10.774 -3.1066 -3.1425 -1.4806
  140SAPE   O2115238   2.388   4.622  10.598 -0.1970  0.0927 -0.3475
  140SAPE   C2115239   2.421   4.503  10.569  0.3253  0.4791  0.0328
  140SAPE   O2215240   2.375   4.399  10.614 -0.0962 -0.5088 -0.4582
  140SAPE   C2215241   2.503   4.502  10.438 -0.0455 -0.0246  0.4142
  140SAPE   H2R15242   2.460   4.560  10.353  0.6181 -0.4258 -0.2010
  140SAPE   H2S15243   2.596   4.559  10.455 -0.8713  2.2202 -1.8637
  140SAPE    C315244   2.148   4.612  10.619 -0.0052  0.0877  0.3393
  140SAPE    HX15245   2.067   4.619  10.694 -0.8289 -0.9478 -0.4190
  140SAPE    HY15246   2.157   4.512  10.572  0.6722  0.6997 -0.8717
  140SAPE   O3115247   2.130   4.714  10.517  0.2143  0.2346 -0.5157
  140SAPE   C3115248   2.053   4.811  10.551  1.1272  0.7477 -0.3030
  140SAPE   O3215249   1.971   4.815  10.647 -0.1830  0.1555  0.6295
  140SAPE   C3215250   2.079   4.937  10.468 -0.5762 -0.8990  0.5634
  140SAPE   H2X15251   2.092   5.023  10.537 -1.0414  0.4702 -0.9976
  140SAPE   H2Y15252   1.982   4.959  10.420 -0.9088  1.0285  2.0174
  140SAPE   C2315253   2.557   4.358  10.409  0.4110 -0.2667  0.1646
  140SAPE   H3R15254   2.596   4.316  10.504 -0.0117  1.3157  1.0698
  140SAPE   H3S15255   2.641   4.389  10.344 -0.6377  3.1615  0.2472
  140SAPE   C2415256   2.453   4.272  10.337 -0.6475 -0.4252  0.1219
  140SAPE   H4R15257   2.388   4.228  10.415  0.1515 -0.9196  0.5240
  140SAPE   H4S15258   2.507   4.181  10.305 -0.4115  0.9354 -3.9329
  140SAPE   C2515259   2.376   4.329  10.225  0.6707  0.1067 -0.0102
  140SAPE   H5R15260   2.320   4.418  10.258  1.2543  1.0714 -1.5147
  140SAPE   C2615261   2.368   4.308  10.094  0.0785  0.3458 -0.2989
  140SAPE   H6R15262   2.301   4.370  10.033 -1.6962 -0.7643  0.4697
  140SAPE   C2715263   2.427   4.198  10.010  0.5991 -0.2078 -0.1665
  140SAPE   H7R15264   2.461   4.116  10.077  0.1581 -1.1150 -1.0284
  140SAPE   H7S15265   2.515   4.232   9.951  0.1878 -0.0505 -0.7041
  140SAPE   C2815266   2.318   4.129   9.930  0.4549  0.5992 -0.3554
  140SAPE   H8R15267   2.231   4.104   9.993  2.3550 -1.0936  1.7789
  140SAPE   C2915268   2.310   4.099   9.801  0.2225  0.1942  0.7389
  140SAPE   H9R15269   2.224   4.057   9.746  1.7998  1.4857 -3.0436
  140SAPE  C21015270   2.418   4.118   9.705 -0.5057  0.2844  0.3042
  140SAPE  H10R15271   2.512   4.151   9.753  2.0966 -4.0544 -1.2158
  140SAPE  H10S15272   2.391   4.182   9.618  2.9546 -1.2150 -2.1139
  140SAPE  C21115273   2.463   3.982   9.654  0.1581 -0.5984 -0.0525
  140SAPE  H11R15274   2.497   3.907   9.727  1.6306 -0.5178 -0.6351
  140SAPE  C21215275   2.470   3.943   9.522 -0.0148  0.7863 -0.9804
  140SAPE  H12R15276   2.513   3.849   9.483 -0.5629 -0.0202  0.3028
  140SAPE  C21315277   2.417   4.024   9.415  0.1374  0.0537  0.3864
  140SAPE  H13R15278   2.309   4.046   9.425 -0.2320  0.8157 -3.5110
  140SAPE  H13S15279   2.423   3.958   9.325 -1.0925  0.9216 -0.3508
  140SAPE  C21415280   2.481   4.154   9.371 -0.4658 -0.0577 -0.2018
  140SAPE  H14R15281   2.533   4.208   9.452  0.6945 -2.5761  0.8522
  140SAPE  C21515282   2.519   4.193   9.249  0.3794  0.1824 -0.2046
  140SAPE  H15R15283   2.567   4.292   9.239 -0.2551  0.4590 -0.5649
  140SAPE  C21615284   2.502   4.112   9.128 -0.6332 -0.2537 -0.5604
  140SAPE  H16R15285   2.445   4.170   9.053 -2.1429  1.9155  2.0660
  140SAPE  H16S15286   2.440   4.021   9.144 -2.3486  1.1824  1.5166
  140SAPE  C21715287   2.638   4.074   9.059  0.1386 -0.1866  0.3491
  140SAPE  H17R15288   2.711   4.156   9.046 -1.1471  0.8759 -0.4138
  140SAPE  H17S15289   2.600   4.036   8.962  1.2589 -1.6033  0.4279
  140SAPE  C21815290   2.707   3.955   9.123 -1.4586  0.5698 -0.3591
  140SAPE  H18R15291   2.649   3.863   9.106 -0.4837 -0.8246  3.0776
  140SAPE  H18S15292   2.712   3.975   9.232  3.8622 -0.0727 -0.2050
  140SAPE  C21915293   2.851   3.932   9.069  0.0709  0.4018 -0.0805
  140SAPE  H19R15294   2.897   4.030   9.044  3.0759 -0.6038  1.0204
  140SAPE  H19S15295   2.846   3.886   8.968 -0.2291  0.0694  0.0858
  140SAPE  C22015296   2.946   3.854   9.162 -0.2409  0.0054 -0.2113
  140SAPE  H20R15297   2.899   3.759   9.195  0.6267 -0.2210  0.4137
  140SAPE  H20S15298   2.968   3.903   9.260  0.1414 -0.0948 -0.2478
  140SAPE  H20T15299   3.038   3.822   9.109 -0.5977 -1.9709  0.2879
  140SAPE   C3315300   2.196   4.920  10.364 -0.1150  0.0070  0.7554
  140SAPE   H3X15301   2.292   4.890  10.412  0.4232  1.7549  0.8330
  140SAPE   H3Y15302   2.217   5.022  10.326  0.8793  0.4646  2.4114
  140SAPE   C3415303   2.172   4.822  10.251 -0.1497 -0.2382 -0.0069
  140SAPE   H4X15304   2.101   4.868  10.178  0.6159  2.1911  0.6568
  140SAPE   H4Y15305   2.146   4.718  10.278  1.9282 -0.4875  1.2103
  140SAPE   C3515306   2.302   4.809  10.163  0.4314 -0.0845 -0.1257
  140SAPE   H5X15307   2.373   4.744  10.219  0.2095  0.2784  0.5780
  140SAPE   H5Y15308   2.350   4.909  10.151  1.3633 -0.3441  1.2071
  140SAPE   C3615309   2.269   4.739  10.029 -0.3782  0.3398 -0.0952
  140SAPE   H6X15310   2.204   4.651  10.047  1.5186 -0.8395  1.3602
  140SAPE   H6Y15311   2.366   4.688  10.007  1.3625  1.9398  3.1902
  140SAPE   C3715312   2.220   4.832   9.914  0.3316 -0.0586 -0.0868
  140SAPE   H7X15313   2.121   4.877   9.935  1.2983  2.5577 -0.7603
  140SAPE   H7Y15314   2.209   4.762   9.828  1.9972  0.0413 -0.4232
  140SAPE   C3815315   2.322   4.943   9.869  0.0062  0.3272 -0.2216
  140SAPE   H8X15316   2.421   4.894   9.857 -0.3946 -0.0226 -2.7699
  140SAPE   H8Y15317   2.326   5.029   9.939 -2.1552  0.9272 -0.7378
  140SAPE   C3915318   2.274   5.000   9.736  0.4127  0.2210  0.5990
  140SAPE   H9X15319   2.184   5.063   9.756  0.2081  0.0538  0.2250
  140SAPE   H9Y15320   2.236   4.919   9.670 -0.0501  0.9275 -0.0162
  140SAPE  C31015321   2.391   5.071   9.657 -0.1783  0.8458 -0.3427
  140SAPE  H10X15322   2.478   5.003   9.646  0.4160  1.1227  2.0267
  140SAPE  H10Y15323   2.417   5.147   9.734  0.4473 -1.2466  1.6280
  140SAPE  C31115324   2.343   5.141   9.525 -0.5273 -0.2015  0.0155
  140SAPE  H11X15325   2.396   5.238   9.519 -0.3195 -0.3743 -1.2241
  140SAPE  H11Y15326   2.236   5.171   9.525 -0.2638  0.8919  1.7678
  140SAPE  C31215327   2.364   5.035   9.419 -0.2571  0.6121  0.1242
  140SAPE  H12X15328   2.290   4.955   9.438 -0.7771  0.9400 -0.4885
  140SAPE  H12Y15329   2.468   4.998   9.430  0.0357  1.4687  0.3380
  140SAPE  C31315330   2.363   5.088   9.274  0.2007 -0.1321 -0.6194
  140SAPE  H13X15331   2.439   5.166   9.256  1.5491 -1.8859 -3.1406
  140SAPE  H13Y15332   2.260   5.126   9.256 -0.5214 -1.3211  0.7207
  140SAPE  C31415333   2.379   4.974   9.175  0.1514  0.1333 -0.1869
  140SAPE  H14X15334   2.362   4.873   9.218 -0.4021  0.1231 -0.4180
  140SAPE  H14Y15335   2.479   4.980   9.127 -0.0175 -0.8416 -0.6763
  140SAPE  C31515336   2.284   4.969   9.053 -0.1649 -0.1469  0.1275
  140SAPE  H15X15337   2.181   4.992   9.087 -0.8845 -0.8372 -1.4785
  140SAPE  H15Y15338   2.280   4.870   9.003 -1.3155 -0.6310  1.1312
  140SAPE  C31615339   2.337   5.066   8.942 -0.4397  0.5104  0.1444
  140SAPE  H16X15340   2.442   5.040   8.915 -0.4470  0.8468 -0.2209
  140SAPE  H16Y15341   2.338   5.171   8.976  2.3707  0.6279 -0.0580
  140SAPE  C31715342   2.244   5.044   8.823 -0.9557 -0.1979  0.1823
  140SAPE  H17X15343   2.140   5.072   8.853 -0.5567  0.6657  0.8046
  140SAPE  H17Y15344   2.236   4.936   8.801  0.0976 -0.4353  0.9137
  140SAPE  C31815345   2.289   5.117   8.693  0.2043 -0.4228 -0.9689
  140SAPE  H18X15346   2.310   5.226   8.700  0.1397 -0.4378 -0.4476
  140SAPE  H18Y15347   2.219   5.091   8.611  0.3277 -2.2929 -0.5405
  140SAPE  H18Z15348   2.383   5.067   8.662  0.9795  0.5973 -0.3151
  141SAPE     N15349   4.997   0.298  10.944  0.1999  0.3136 -0.2733
  141SAPE   HN115350   5.055   0.234  10.887 -1.0110 -0.4018 -0.7421
  141SAPE   HN215351   5.046   0.389  10.942  0.6433  0.0921  0.2477
  141SAPE   HN315352   5.005   0.257  11.040 -0.3173  1.1955  0.1603
  141SAPE   C1215353   4.858   0.303  10.896  0.1033  0.6454  0.7851
  141SAPE  H12A15354   4.793   0.309  10.986 -3.7503  0.4716 -1.6984
  141SAPE  H12B15355   4.835   0.207  10.844 -1.2014  1.0716  0.5279
  141SAPE   C1115356   4.824   0.420  10.805  0.1081  0.3914  0.2083
  141SAPE  H11A15357   4.717   0.413  10.778  0.5744 -0.6928 -1.5011
  141SAPE  H11B15358   4.885   0.403  10.714  0.0853 -0.1432  0.2916
  141SAPE     P15359   4.885   0.671  10.772  0.1187 -0.0113  0.2118
  141SAPE   O1315360   4.782   0.675  10.661  0.3844  0.0611 -0.1564
  141SAPE   O1415361   4.900   0.790  10.855 -0.7854 -0.1685  0.2715
  141SAPE   O1215362   4.851   0.545  10.861 -0.1021  0.4642 -0.1529
  141SAPE   O1115363   5.026   0.639  10.705  0.2250 -0.1759  0.1203
  141SAPE    C115364   5.116   0.736  10.663 -0.4726 -0.8283 -0.0011
  141SAPE    HA15365   5.138   0.820  10.733 -2.2318  0.4028 -0.8592
  141SAPE    HB15366   5.215   0.686  10.657 -1.4772 -2.7274 -1.5519
  141SAPE    C215367   5.109   0.796  10.522 -0.3517 -0.0389 -0.3268
  141SAPE    HS15368   5.041   0.881  10.540  1.5289  1.3520  0.5148
  141SAPE   O2115369   5.043   0.699  10.430 -0.7234 -0.2313  0.6135
  141SAPE   C2115370   4.955   0.756  10.350 -0.4422  1.4273  0.0927
  141SAPE   O2215371   4.910   0.866  10.354 -0.1031 -0.3760  0.2853
  141SAPE   C2215372   4.915   0.646  10.248  0.1130  0.0291  0.0549
  141SAPE   H2R15373   4.988   0.562  10.251  0.5993  0.4464  0.0905
  141SAPE   H2S15374   4.808   0.617  10.255  0.4248 -1.5868 -1.1631
  141SAPE    C315375   5.244   0.850  10.469 -0.5113 -0.1227  0.3084
  141SAPE    HX15376   5.312   0.763  10.475 -1.4171 -0.8975 -0.3788
  141SAPE    HY15377   5.282   0.937  10.527  1.2003 -0.2248 -0.6022
  141SAPE   O3115378   5.235   0.897  10.331 -0.0943  0.1262  0.9930
  141SAPE   C3115379   5.212   1.030  10.312 -0.0526 -0.5179  0.8779
  141SAPE   O3215380   5.214   1.116  10.400 -0.2358  0.1822 -0.1075
  141SAPE   C3215381   5.174   1.060  10.168  0.9980  0.3608  0.4114
  141SAPE   H2X15382   5.125   1.160  10.168 -1.6579 -0.7700  2.9871
  141SAPE   H2Y15383   5.089   0.991  10.146  1.6521 -0.0256 -1.0493
  141SAPE   C2315384   4.933   0.707  10.105 -0.4321 -0.3467 -0.4660
  141SAPE   H3R15385   4.942   0.624  10.031 -0.7044 -0.4871 -0.3410
  141SAPE   H3S15386   5.023   0.772  10.097 -0.5739  0.2898  2.3620
  141SAPE   C2415387   4.820   0.796  10.054  0.2940  0.0134 -0.1974
  141SAPE   H4R15388   4.830   0.884  10.122 -1.3233  1.1045 -1.2842
  141SAPE   H4S15389   4.718   0.756  10.071 -0.1403  0.6763 -1.1341
  141SAPE   C2515390   4.826   0.852   9.920  0.1519 -0.7631 -0.2245
  141SAPE   H5R15391   4.871   0.785   9.845  2.0742  1.6292 -1.3161
  141SAPE   C2615392   4.777   0.976   9.886  0.2165  0.4506  0.5085
  141SAPE   H6R15393   4.781   1.016   9.784 -0.4195  0.9632  0.6820
  141SAPE   C2715394   4.699   1.077   9.974 -0.3008 -0.2461  0.1081
  141SAPE   H7R15395   4.704   1.181   9.933 -1.8299  0.0136  0.5399
  141SAPE   H7S15396   4.751   1.084  10.072 -0.3317 -0.5628  0.1474
  141SAPE   C2815397   4.562   1.031   9.994  0.2203 -0.3346 -1.0647
  141SAPE   H8R15398   4.539   0.951  10.067  0.1112 -1.4752 -2.3055
  141SAPE   C2915399   4.450   1.091   9.952  0.7780 -0.4515  0.6915
  141SAPE   H9R15400   4.351   1.050   9.980  0.5878 -0.5384 -0.0901
  141SAPE  C21015401   4.431   1.217   9.869 -0.6875  0.9913 -0.3255
  141SAPE  H10R15402   4.521   1.230   9.806 -0.6242  0.1399 -0.4174
  141SAPE  H10S15403   4.441   1.310   9.929 -1.1108 -0.4252  2.0799
  141SAPE  C21115404   4.297   1.216   9.794  0.4299 -0.8872 -0.2423
  141SAPE  H11R15405   4.211   1.193   9.858  0.1596  3.0239  1.0739
  141SAPE  C21215406   4.274   1.266   9.670  0.4418  0.3707  0.1587
  141SAPE  H12R15407   4.171   1.270   9.631  0.4422 -0.0624  0.1069
  141SAPE  C21315408   4.377   1.321   9.572  0.2954  0.2882 -0.8079
  141SAPE  H13R15409   4.482   1.313   9.605  0.8087  0.6077 -2.2621
  141SAPE  H13S15410   4.367   1.432   9.575 -0.5236  0.2032  1.4219
  141SAPE  C21415411   4.377   1.258   9.443  0.7596  0.2751 -0.8509
  141SAPE  H14R15412   4.314   1.171   9.420 -0.2734  1.3542 -2.2737
  141SAPE  C21515413   4.443   1.299   9.333 -0.2437 -0.0674 -0.0825
  141SAPE  H15R15414   4.418   1.251   9.237 -0.4025  0.3203 -0.2348
  141SAPE  C21615415   4.536   1.417   9.317 -0.2553  0.6231  0.3279
  141SAPE  H16R15416   4.595   1.395   9.226 -2.1677 -1.0613 -0.5749
  141SAPE  H16S15417   4.617   1.439   9.390  2.0068  0.5952 -2.0193
  141SAPE  C21715418   4.453   1.544   9.279  0.0317  0.3267 -0.5014
  141SAPE  H17R15419   4.367   1.546   9.349  0.2036 -2.2885 -0.1106
  141SAPE  H17S15420   4.414   1.544   9.175  0.6579  1.3605 -0.7592
  141SAPE  C21815421   4.529   1.673   9.283 -0.4707 -0.4722  0.5964
  141SAPE  H18R15422   4.572   1.682   9.385 -2.0830 -1.5192  1.4120
  141SAPE  H18S15423   4.459   1.759   9.279 -0.7441 -0.6903  0.6913
  141SAPE  C21915424   4.644   1.682   9.179  0.5479 -0.5325  0.1050
  141SAPE  H19R15425   4.716   1.597   9.186 -1.0996 -1.9505  0.6280
  141SAPE  H19S15426   4.707   1.769   9.208  0.4474  0.8211 -3.2776
  141SAPE  C22015427   4.601   1.683   9.037 -0.5290 -0.2257 -0.3238
  141SAPE  H20R15428   4.596   1.581   8.992  1.5045  0.0699 -1.3641
  141SAPE  H20S15429   4.668   1.741   8.970 -1.8376 -0.6007 -2.0174
  141SAPE  H20T15430   4.500   1.726   9.023  0.2215  1.3867 -0.9710
  141SAPE   C3315431   5.285   1.049  10.057  0.4530 -0.6095  0.1815
  141SAPE   H3X15432   5.360   0.968  10.063  0.8989 -0.2907 -0.8147
  141SAPE   H3Y15433   5.343   1.143  10.047  1.9019 -1.4002  0.8883
  141SAPE   C3415434   5.222   1.025   9.916  0.1478  0.0046 -0.3391
  141SAPE   H4X15435   5.142   1.102   9.912 -0.3507 -0.5227 -0.4835
  141SAPE   H4Y15436   5.177   0.924   9.919  0.1712  0.0047  0.1367
  141SAPE   C3515437   5.323   1.041   9.801  0.2711  0.0910 -0.0885
  141SAPE   H5X15438   5.398   0.960   9.813 -1.6329 -1.3501  3.3345
  141SAPE   H5Y15439   5.383   1.132   9.824 -0.6281  0.0915  2.5328
  141SAPE   C3615440   5.267   1.051   9.658  0.6645  0.5824 -0.8179
  141SAPE   H6X15441   5.188   1.128   9.667 -1.3649 -1.3882 -0.7562
  141SAPE   H6Y15442   5.210   0.957   9.640  0.3034  0.6862 -0.2605
  141SAPE   C3715443   5.376   1.051   9.553 -0.0723 -0.3134  0.2654
  141SAPE   H7X15444   5.468   0.990   9.568 -0.4605 -1.2724 -1.0595
  141SAPE   H7Y15445   5.409   1.156   9.538  1.4845 -0.7505  0.4432
  141SAPE   C3815446   5.318   1.008   9.412 -1.1003 -0.1819  0.0362
  141SAPE   H8X15447   5.213   1.043   9.402 -2.1700 -2.9622  0.7236
  141SAPE   H8Y15448   5.304   0.898   9.420 -1.5763 -0.1612 -0.4587
  141SAPE   C3915449   5.415   1.039   9.299 -0.6697 -0.4106 -0.2405
  141SAPE   H9X15450   5.510   0.982   9.290  0.4247  1.3511 -0.3044
  141SAPE   H9Y15451   5.457   1.141   9.308 -3.0992  0.7621 -1.2389
  141SAPE  C31015452   5.344   1.004   9.163  0.5900  0.5882 -0.2614
  141SAPE  H10X15453   5.298   1.098   9.126 -0.4400  0.9600  1.8164
  141SAPE  H10Y15454   5.259   0.932   9.171  0.2189  1.1621  1.6007
  141SAPE  C31115455   5.437   0.951   9.053  0.1482  0.4715 -0.5801
  141SAPE  H11X15456   5.477   0.851   9.082 -1.3230 -1.6319 -4.8885
  141SAPE  H11Y15457   5.526   1.014   9.032 -0.4540  1.1561 -1.1389
  141SAPE  C31215458   5.363   0.927   8.927  0.3912 -0.0487  0.1689
  141SAPE  H12X15459   5.327   1.020   8.879  0.8551  0.3090  0.5030
  141SAPE  H12Y15460   5.274   0.872   8.964  0.9607  0.3443  2.2565
  141SAPE  C31315461   5.451   0.848   8.819  1.5803  0.3916  0.1410
  141SAPE  H13X15462   5.381   0.840   8.733  0.3593  1.7718  0.9400
  141SAPE  H13Y15463   5.459   0.739   8.839  1.0321  0.1001 -1.1409
  141SAPE  C31415464   5.586   0.911   8.784 -0.0386 -0.5176  0.1908
  141SAPE  H14X15465   5.661   0.905   8.865  1.4949 -0.6382 -1.1882
  141SAPE  H14Y15466   5.567   1.020   8.769  1.2596 -0.0359  1.8476
  141SAPE  C31515467   5.653   0.864   8.654 -0.6156 -0.0507  1.1158
  141SAPE  H15X15468   5.590   0.889   8.566 -0.8209 -1.0544  0.9644
  141SAPE  H15Y15469   5.645   0.754   8.646 -2.2298  0.1398 -0.6872
  141SAPE  C31615470   5.801   0.915   8.636  0.0117  0.1835  0.5231
  141SAPE  H16X15471   5.846   0.891   8.734 -1.9709 -1.3771  1.1210
  141SAPE  H16Y15472   5.809   1.025   8.618 -3.5512  0.2022 -2.0704
  141SAPE  C31715473   5.879   0.840   8.529 -0.4562 -0.7752  0.3122
  141SAPE  H17X15474   5.857   0.733   8.548  0.9871 -1.1236  0.1397
  141SAPE  H17Y15475   5.987   0.855   8.551  0.1427 -2.0609 -1.4658
  141SAPE  C31815476   5.844   0.881   8.382  0.1486  0.8425  0.5005
  141SAPE  H18X15477   5.736   0.877   8.357 -0.3959  3.1109  2.0909
  141SAPE  H18Y15478   5.905   0.827   8.307  0.0434 -0.7170  1.4945
  141SAPE  H18Z15479   5.873   0.987   8.368  1.5249  0.3809 -0.3708
  142SAPE     N15480   5.894   0.638  11.367 -0.4035 -0.5481  0.5032
  142SAPE   HN115481   5.838   0.554  11.394 -0.2695 -0.3588  1.3925
  142SAPE   HN215482   5.931   0.683  11.453 -0.1883 -3.1985  1.9168
  142SAPE   HN315483   5.839   0.703  11.308  1.1955  0.0859 -0.3716
  142SAPE   C1215484   6.017   0.610  11.286 -0.3543  0.7877  0.4935
  142SAPE  H12A15485   6.065   0.520  11.329 -0.2041  0.4250 -0.4182
  142SAPE  H12B15486   6.081   0.700  11.272 -0.7668  0.6864 -3.0034
  142SAPE   C1115487   5.978   0.561  11.136  0.7381  0.3190  0.1336
  142SAPE  H11A15488   6.073   0.533  11.085 -0.7009 -0.6034 -2.2557
  142SAPE  H11B15489   5.930   0.646  11.084  1.1427 -0.9080 -2.4103
  142SAPE     P15490   5.807   0.396  11.022 -0.2313 -0.2005  0.3384
  142SAPE   O1315491   5.805   0.252  11.033  1.0941 -0.0063  0.1582
  142SAPE   O1415492   5.677   0.461  11.024 -0.0275  0.4094 -0.7279
  142SAPE   O1215493   5.894   0.444  11.133 -0.4284 -0.6009  0.0577
  142SAPE   O1115494   5.881   0.446  10.895 -0.1347  0.1490  0.5581
  142SAPE    C115495   5.845   0.567  10.828  0.0474 -0.0670  0.0820
  142SAPE    HA15496   5.798   0.640  10.897 -1.6312  0.7146 -1.7724
  142SAPE    HB15497   5.937   0.616  10.790 -0.5020 -0.3214 -1.6609
  142SAPE    C215498   5.742   0.546  10.712  0.0728 -0.6936  0.6830
  142SAPE    HS15499   5.671   0.470  10.750  0.7251 -0.9706  1.3687
  142SAPE   O2115500   5.820   0.488  10.606 -0.1224 -0.2793  0.3850
  142SAPE   C2115501   5.746   0.410  10.528 -0.0972  0.3392 -0.1619
  142SAPE   O2215502   5.629   0.384  10.553 -0.2823 -0.4978  0.9801
  142SAPE   C2215503   5.829   0.377  10.401  0.6010  0.5547 -0.1415
  142SAPE   H2R15504   5.847   0.461  10.331 -2.2803  0.8533 -0.6549
  142SAPE   H2S15505   5.919   0.328  10.444 -1.0702 -1.5714  1.2138
  142SAPE    C315506   5.676   0.685  10.673  0.2527  0.0443 -0.2863
  142SAPE    HX15507   5.762   0.750  10.697 -0.6612  1.5344 -0.9050
  142SAPE    HY15508   5.588   0.708  10.738 -0.6470  1.2459 -1.8459
  142SAPE   O3115509   5.648   0.694  10.524  0.4258 -0.2115 -0.0902
  142SAPE   C3115510   5.615   0.811  10.478  0.4190  0.0796  0.0260
  142SAPE   O3215511   5.588   0.906  10.547 -0.0915  0.5500  0.2228
  142SAPE   C3215512   5.614   0.816  10.321  0.1434  0.3128  0.4582
  142SAPE   H2X15513   5.511   0.799  10.284  0.4687  0.7857 -0.7243
  142SAPE   H2Y15514   5.689   0.745  10.281 -0.2187  1.6370 -2.8837
  142SAPE   C2315515   5.762   0.272  10.304  0.3942  0.6122 -0.3525
  142SAPE   H3R15516   5.836   0.265  10.221  0.3299  0.4821 -0.3983
  142SAPE   H3S15517   5.668   0.318  10.267 -0.8339 -1.0850  0.5130
  142SAPE   C2415518   5.720   0.137  10.373  0.3548  0.2535 -0.6257
  142SAPE   H4R15519   5.635   0.161  10.440  1.9366  0.1329  1.5284
  142SAPE   H4S15520   5.796   0.086  10.436 -1.0909 -0.5023  0.5471
  142SAPE   C2515521   5.690   0.049  10.253  0.1194  0.1189  0.7943
  142SAPE   H5R15522   5.778  -0.009  10.220 -0.6759  0.7601 -2.8378
  142SAPE   C2615523   5.568   0.026  10.193 -0.3079  0.2254 -0.0069
  142SAPE   H6R15524   5.562  -0.032  10.100  0.1494  1.9726 -1.1837
  142SAPE   C2715525   5.431   0.083  10.234 -0.2333 -0.4371  0.1957
  142SAPE   H7R15526   5.444   0.159  10.314  2.5208  0.6004 -1.1315
  142SAPE   H7S15527   5.358   0.010  10.275 -1.1923 -1.2137 -2.6461
  142SAPE   C2815528   5.380   0.158  10.118  0.0393  0.4948 -0.5427
  142SAPE   H8R15529   5.384   0.102  10.023  0.8575  0.0223 -0.2342
  142SAPE   C2915530   5.332   0.281  10.128 -0.0107  0.0705  0.7093
  142SAPE   H9R15531   5.304   0.343  10.042  3.1025  0.5242 -0.1310
  142SAPE  C21015532   5.345   0.367  10.255  0.2182  0.6792 -0.0529
  142SAPE  H10R15533   5.447   0.355  10.300 -0.6504 -1.5946  1.5381
  142SAPE  H10S15534   5.276   0.317  10.326  0.0693  0.6293 -0.2335
  142SAPE  C21115535   5.299   0.512  10.252 -0.2253 -0.1282  0.1395
  142SAPE  H11R15536   5.248   0.545  10.344  1.4928  1.3424  0.6141
  142SAPE  C21215537   5.318   0.607  10.159 -0.7564 -0.2622  0.2568
  142SAPE  H12R15538   5.278   0.705  10.188 -1.1783 -0.1816 -0.5652
  142SAPE  C21315539   5.400   0.601  10.036  0.3688  0.5948 -0.1286
  142SAPE  H13R15540   5.442   0.500  10.016 -1.7161 -0.3331 -0.0897
  142SAPE  H13S15541   5.487   0.666  10.059  0.3340  0.0584  1.6097
  142SAPE  C21415542   5.336   0.646   9.910 -0.4970  0.0084 -0.3613
  142SAPE  H14R15543   5.248   0.710   9.920 -1.8990 -2.1012  1.5949
  142SAPE  C21515544   5.372   0.630   9.782 -0.0826  0.3767 -0.1052
  142SAPE  H15R15545   5.319   0.685   9.702 -2.4070 -2.2588 -0.5292
  142SAPE  C21615546   5.491   0.540   9.740  0.4060  0.0830 -0.1659
  142SAPE  H16R15547   5.447   0.465   9.670  0.7956  2.1152 -2.7205
  142SAPE  H16S15548   5.539   0.493   9.829 -0.3111  0.5306  0.4776
  142SAPE  C21715549   5.590   0.629   9.662  0.1285 -0.4639 -0.6185
  142SAPE  H17R15550   5.675   0.566   9.629 -0.6258 -1.0927 -1.4090
  142SAPE  H17S15551   5.626   0.709   9.730 -1.7638  0.6553 -0.8664
  142SAPE  C21815552   5.528   0.699   9.543  0.3881  0.2803  0.3752
  142SAPE  H18R15553   5.480   0.795   9.569  0.5894  0.6078 -0.4165
  142SAPE  H18S15554   5.453   0.632   9.495  1.5320 -0.4456 -0.4509
  142SAPE  C21915555   5.633   0.738   9.431 -0.2936  0.0785  0.4675
  142SAPE  H19R15556   5.585   0.758   9.333 -2.0559  1.9090  1.6416
  142SAPE  H19S15557   5.698   0.648   9.424 -1.1682 -0.4461 -1.2941
  142SAPE  C22015558   5.725   0.845   9.491  0.1671  0.1430  0.5384
  142SAPE  H20R15559   5.660   0.921   9.539 -1.4996 -0.2501 -0.9753
  142SAPE  H20S15560   5.773   0.901   9.408  0.0211 -1.4260 -0.6712
  142SAPE  H20T15561   5.809   0.812   9.554 -0.9257 -0.3775  1.7663
  142SAPE   C3315562   5.633   0.968  10.279 -0.3644 -0.1240 -0.2683
  142SAPE   H3X15563   5.721   1.018  10.324  0.3080  0.8269 -2.5156
  142SAPE   H3Y15564   5.554   1.030  10.326  1.9198  1.8733  1.1708
  142SAPE   C3415565   5.646   0.983  10.130 -0.1744 -0.4773  0.6565
  142SAPE   H4X15566   5.606   1.084  10.109  1.3018 -0.2898 -1.7161
  142SAPE   H4Y15567   5.590   0.902  10.078  0.2818 -0.5815  0.3179
  142SAPE   C3515568   5.793   0.983  10.092 -0.5323 -0.4218  0.2622
  142SAPE   H5X15569   5.834   0.884  10.123 -0.3605 -1.0995 -1.8974
  142SAPE   H5Y15570   5.843   1.068  10.143 -0.7437 -0.1752  0.0599
  142SAPE   C3615571   5.830   0.998   9.945 -0.4276 -0.0198  0.3792
  142SAPE   H6X15572   5.780   1.087   9.902  1.0832  0.7524  0.1423
  142SAPE   H6Y15573   5.792   0.907   9.893 -2.5407  0.6341  0.6879
  142SAPE   C3715574   5.983   1.022   9.932  0.5458  0.0326  0.0153
  142SAPE   H7X15575   6.040   0.953   9.997  1.2750 -0.3018 -0.9686
  142SAPE   H7Y15576   6.011   1.126   9.961 -1.1399  1.2021 -2.1943
  142SAPE   C3815577   6.038   1.005   9.793 -0.6720  0.8169 -0.3193
  142SAPE   H8X15578   6.009   0.905   9.752 -0.4902  0.4202  0.4997
  142SAPE   H8Y15579   6.149   1.012   9.797 -0.6166  1.1017 -1.8894
  142SAPE   C3915580   5.978   1.106   9.691  0.5107  0.1020 -0.7138
  142SAPE   H9X15581   5.999   1.209   9.726 -3.7921  0.9649 -0.1472
  142SAPE   H9Y15582   5.868   1.091   9.701  0.3741  0.4672 -1.5805
  142SAPE  C31015583   6.026   1.077   9.548 -0.3844  0.1872  0.0716
  142SAPE  H10X15584   6.031   0.968   9.527  1.6759  0.0695  0.9018
  142SAPE  H10Y15585   6.125   1.126   9.535 -2.1961  4.2429 -0.1656
  142SAPE  C31115586   5.955   1.154   9.442 -0.4329  0.1562 -0.4192
  142SAPE  H11X15587   5.973   1.259   9.471  0.3714  0.0957 -0.6559
  142SAPE  H11Y15588   5.844   1.145   9.439 -0.4079 -1.7044  1.6796
  142SAPE  C31215589   6.000   1.114   9.296 -0.2242  0.2144  0.1399
  142SAPE  H12X15590   5.980   1.005   9.288 -2.9425  0.6107  0.5915
  142SAPE  H12Y15591   6.109   1.134   9.293  0.2396 -2.0331  0.8394
  142SAPE  C31315592   5.931   1.193   9.173  0.3919  1.0332  0.3418
  142SAPE  H13X15593   5.929   1.297   9.211  0.0901  0.9018  0.6853
  142SAPE  H13Y15594   5.829   1.149   9.171  1.2682 -1.1685  0.9436
  142SAPE  C31415595   6.008   1.194   9.042 -0.9086  0.5592  0.3676
  142SAPE  H14X15596   6.109   1.236   9.060  0.8943 -3.1014 -0.2726
  142SAPE  H14Y15597   5.950   1.248   8.964 -1.3212  0.1869  0.4114
  142SAPE  C31515598   6.037   1.048   8.988 -0.0846 -0.9513  0.6406
  142SAPE  H15X15599   5.936   1.007   8.964 -0.5568  1.1522 -1.3047
  142SAPE  H15Y15600   6.094   0.996   9.068  0.7044  0.7090  1.2156
  142SAPE  C31615601   6.125   1.035   8.859  0.1822  0.4393 -0.5014
  142SAPE  H16X15602   6.126   0.931   8.820  0.3363  0.8517 -1.6498
  142SAPE  H16Y15603   6.225   1.067   8.894  0.6486  0.7927 -2.0605
  142SAPE  C31715604   6.088   1.134   8.749  0.8769 -0.8977 -0.2873
  142SAPE  H17X15605   6.110   1.239   8.778 -0.8404 -0.7476  0.6355
  142SAPE  H17Y15606   5.977   1.122   8.743  0.5824 -0.0028  2.0998
  142SAPE  C31815607   6.148   1.126   8.611  0.3958 -0.5478 -0.1617
  142SAPE  H18X15608   6.131   1.221   8.556  0.3130  0.1487  1.0220
  142SAPE  H18Y15609   6.119   1.038   8.550 -0.1214  0.1684 -0.9775
  142SAPE  H18Z15610   6.259   1.127   8.620  0.3800 -3.5831  1.3558
  143SAPE     N15611   4.358   1.186  10.505  0.1597 -0.2471  0.5424
  143SAPE   HN115612   4.322   1.184  10.408  1.6201 -1.1663 -0.0243
  143SAPE   HN215613   4.326   1.104  10.560 -1.1119 -1.5892 -2.0505
  143SAPE   HN315614   4.317   1.266  10.557  1.5692 -0.2669  1.7713
  143SAPE   C1215615   4.509   1.209  10.500 -0.0716  0.3098 -0.2504
  143SAPE  H12A15616   4.554   1.136  10.429 -0.9568  0.2905 -0.7939
  143SAPE  H12B15617   4.550   1.180  10.599 -0.6369  1.1334  0.2324
  143SAPE   C1115618   4.537   1.351  10.457  0.1310  0.0370  0.0992
  143SAPE  H11A15619   4.512   1.380  10.352 -0.8531 -0.1656  0.2625
  143SAPE  H11B15620   4.647   1.356  10.469  0.1621 -3.0632  2.3228
  143SAPE     P15621   4.545   1.496  10.672 -0.0184 -0.3981 -0.7035
  143SAPE   O1315622   4.447   1.533  10.773  0.4528  0.1887 -0.3154
  143SAPE   O1415623   4.643   1.393  10.714 -0.1627 -0.0385 -0.3792
  143SAPE   O1215624   4.479   1.453  10.540  0.0883 -0.2569  0.2699
  143SAPE   O1115625   4.631   1.623  10.648  0.2284 -0.3782  0.2481
  143SAPE    C115626   4.565   1.750  10.622 -0.1037  0.1127  0.3837
  143SAPE    HA15627   4.477   1.773  10.685 -0.3211  3.8903 -1.0161
  143SAPE    HB15628   4.635   1.829  10.656  0.6073 -1.1477  1.9667
  143SAPE    C215629   4.530   1.761  10.469 -0.3943 -0.5072  0.1326
  143SAPE    HS15630   4.462   1.675  10.448 -0.0689 -1.3120  2.1901
  143SAPE   O2115631   4.643   1.737  10.381 -0.5951 -0.1089 -0.5713
  143SAPE   C2115632   4.741   1.816  10.393 -1.1076  0.0846  0.3436
  143SAPE   O2215633   4.752   1.910  10.472  0.2646  0.0938 -0.7638
  143SAPE   C2215634   4.845   1.773  10.283  0.3187  0.2575 -0.3385
  143SAPE   H2R15635   4.887   1.673  10.305  4.5721  1.8982 -0.2104
  143SAPE   H2S15636   4.777   1.761  10.195  0.2937 -1.8253 -0.0864
  143SAPE    C315637   4.458   1.900  10.437 -0.6167  0.6220  0.2651
  143SAPE    HX15638   4.500   1.966  10.516 -0.4125 -1.3968  1.9477
  143SAPE    HY15639   4.352   1.874  10.462  0.2432 -1.8971  1.6942
  143SAPE   O3115640   4.482   1.950  10.301  0.0661  0.4290 -0.1630
  143SAPE   C3115641   4.429   2.070  10.278 -0.3821  0.8053 -0.4666
  143SAPE   O3215642   4.358   2.128  10.359  0.5083 -0.1420 -0.6721
  143SAPE   C3215643   4.473   2.114  10.140  0.2845 -0.2012  0.5879
  143SAPE   H2X15644   4.461   2.027  10.072 -0.1735  2.5830 -3.1789
  143SAPE   H2Y15645   4.582   2.135  10.142  0.4847 -1.0237 -0.8196
  143SAPE   C2315646   4.966   1.869  10.255  0.7018 -1.5618  0.8341
  143SAPE   H3R15647   5.047   1.798  10.228  1.7058 -0.5528  1.1629
  143SAPE   H3S15648   4.993   1.914  10.353 -1.7677 -0.6640  1.1836
  143SAPE   C2415649   4.931   1.964  10.133 -0.3276 -0.8992 -0.0884
  143SAPE   H4R15650   4.835   2.019  10.141  0.4795  0.5183  0.1999
  143SAPE   H4S15651   4.921   1.901  10.042  0.8660 -2.7681  0.9852
  143SAPE   C2515652   5.035   2.078  10.116  0.8540 -0.1900  0.3618
  143SAPE   H5R15653   5.014   2.169  10.174  2.0263 -0.7002  1.6532
  143SAPE   C2615654   5.133   2.092  10.025  0.2130 -0.2454 -0.4296
  143SAPE   H6R15655   5.184   2.190  10.035 -2.0469  0.8979  0.5385
  143SAPE   C2715656   5.171   1.992   9.915 -0.2739 -0.2261  0.3285
  143SAPE   H7R15657   5.211   2.042   9.824  2.4436 -1.6053  0.6528
  143SAPE   H7S15658   5.078   1.940   9.884 -0.0074  0.6961 -2.2489
  143SAPE   C2815659   5.269   1.904   9.984  0.0394  0.0551  0.0509
  143SAPE   H8R15660   5.234   1.856  10.077 -0.7235 -0.6075 -0.5575
  143SAPE   C2915661   5.387   1.871   9.939  0.5109  0.1505 -0.5060
  143SAPE   H9R15662   5.450   1.802   9.996  1.6713  1.2799 -0.3613
  143SAPE  C21015663   5.450   1.904   9.807  0.1830 -1.0246  0.5307
  143SAPE  H10R15664   5.554   1.939   9.823 -0.2027  1.1705 -1.2611
  143SAPE  H10S15665   5.392   1.983   9.754  1.1839  0.1976  1.2196
  143SAPE  C21115666   5.462   1.790   9.708  0.6971  0.0029  0.3168
  143SAPE  H11R15667   5.481   1.693   9.757 -0.7115 -0.1156  0.6883
  143SAPE  C21215668   5.446   1.782   9.575  0.2435 -0.4430  0.3907
  143SAPE  H12R15669   5.472   1.691   9.520  1.2208  0.9405 -1.5441
  143SAPE  C21315670   5.410   1.902   9.491  0.2856  1.3556 -0.0948
  143SAPE  H13R15671   5.506   1.952   9.468  1.3793 -0.9797 -0.9383
  143SAPE  H13S15672   5.347   1.974   9.548  0.8391  1.2133  0.6971
  143SAPE  C21415673   5.339   1.851   9.363  1.3905 -0.0780 -0.1323
  143SAPE  H14R15674   5.234   1.823   9.378  1.3024  0.7529  0.9626
  143SAPE  C21515675   5.388   1.827   9.245 -0.0093 -0.5348  0.6611
  143SAPE  H15R15676   5.314   1.799   9.169 -1.1695  1.8213  0.8443
  143SAPE  C21615677   5.527   1.851   9.186 -0.2517  0.1687  0.9489
  143SAPE  H16R15678   5.597   1.782   9.238 -0.4461 -0.1489  0.7905
  143SAPE  H16S15679   5.571   1.948   9.218 -0.7718  0.1260  1.8136
  143SAPE  C21715680   5.541   1.837   9.033  0.0020 -1.1250  0.1045
  143SAPE  H17R15681   5.470   1.906   8.984 -0.7988 -0.6779  1.8333
  143SAPE  H17S15682   5.518   1.734   8.999 -0.0855 -0.8863 -0.5770
  143SAPE  C21815683   5.680   1.869   8.977 -0.7351 -0.8235  0.2628
  143SAPE  H18R15684   5.762   1.820   9.034  0.7260  0.3741 -0.7409
  143SAPE  H18S15685   5.692   1.976   9.005 -2.0410 -0.6826  0.3612
  143SAPE  C21915686   5.707   1.838   8.826 -0.3289  0.0545  0.5126
  143SAPE  H19R15687   5.718   1.728   8.812 -0.4947  0.0960  0.0277
  143SAPE  H19S15688   5.810   1.875   8.807  0.3364 -1.9383 -0.0074
  143SAPE  C22015689   5.607   1.909   8.733 -0.3330  0.2340  0.0645
  143SAPE  H20R15690   5.506   1.876   8.765 -0.4917  1.2159  0.5855
  143SAPE  H20S15691   5.639   1.884   8.629 -0.1069 -0.0989  0.2094
  143SAPE  H20T15692   5.609   2.019   8.745  0.8854  0.2744 -0.3403
  143SAPE   C3315693   4.399   2.241  10.076  0.6515  0.3003 -0.3819
  143SAPE   H3X15694   4.415   2.326  10.146  1.3609 -0.1776  0.0618
  143SAPE   H3Y15695   4.291   2.219  10.069  1.1545 -2.4476 -0.7100
  143SAPE   C3415696   4.459   2.294   9.939  0.3228  0.0660 -0.2371
  143SAPE   H4X15697   4.568   2.275   9.943  0.5074  0.8061 -1.3712
  143SAPE   H4Y15698   4.425   2.400   9.935  2.3186  0.7078 -1.2805
  143SAPE   C3515699   4.395   2.227   9.820 -0.1627  0.6294 -0.2830
  143SAPE   H5X15700   4.286   2.242   9.837 -0.5420 -1.5239 -0.5190
  143SAPE   H5Y15701   4.432   2.125   9.842 -0.7291  0.5582  0.3791
  143SAPE   C3615702   4.430   2.290   9.692  0.2175 -0.2019  1.2229
  143SAPE   H6X15703   4.540   2.286   9.675 -0.0416 -0.8642 -0.4594
  143SAPE   H6Y15704   4.391   2.393   9.681  0.6588 -0.3548 -4.9955
  143SAPE   C3715705   4.376   2.222   9.563 -0.7482 -0.0423  0.2611
  143SAPE   H7X15706   4.267   2.240   9.574 -0.6241  0.2361  1.0813
  143SAPE   H7Y15707   4.394   2.112   9.562  0.5174  0.1452 -1.2341
  143SAPE   C3815708   4.444   2.271   9.439  0.4280  0.0186  0.4371
  143SAPE   H8X15709   4.551   2.246   9.453  0.7303  0.7654 -0.4380
  143SAPE   H8Y15710   4.440   2.382   9.437 -1.0124 -0.0120 -1.2085
  143SAPE   C3915711   4.401   2.205   9.306 -0.8241 -0.1529  0.5017
  143SAPE   H9X15712   4.308   2.240   9.256 -0.0775 -0.6189 -1.2989
  143SAPE   H9Y15713   4.404   2.095   9.316  3.2420 -0.0346  2.2787
  143SAPE  C31015714   4.500   2.260   9.198  0.0839  0.4825 -0.3513
  143SAPE  H10X15715   4.604   2.232   9.224  0.0002  0.7411  0.3103
  143SAPE  H10Y15716   4.497   2.371   9.212 -2.1424  0.3318  0.8896
  143SAPE  C31115717   4.462   2.228   9.049 -0.2563 -0.0023 -0.3892
  143SAPE  H11X15718   4.547   2.259   8.985 -0.0549 -1.4883 -0.8785
  143SAPE  H11Y15719   4.383   2.298   9.014 -0.3253 -0.3432 -0.9324
  143SAPE  C31215720   4.430   2.084   9.016  0.4286 -0.5712  0.2585
  143SAPE  H12X15721   4.331   2.056   9.057  0.0834  1.1305  0.6279
  143SAPE  H12Y15722   4.500   2.014   9.067 -1.1545 -0.8814  2.1347
  143SAPE  C31315723   4.437   2.070   8.867  0.3235  0.1783  0.9646
  143SAPE  H13X15724   4.470   1.968   8.839 -2.3093 -0.2994 -0.7959
  143SAPE  H13Y15725   4.517   2.137   8.828 -0.1715  0.1026 -0.2074
  143SAPE  C31415726   4.304   2.117   8.805 -0.0702  1.1854  0.2410
  143SAPE  H14X15727   4.282   2.221   8.836  1.5029  2.1030 -1.5483
  143SAPE  H14Y15728   4.221   2.057   8.849  0.1654  0.5470 -0.1699
  143SAPE  C31515729   4.314   2.117   8.653  0.1748  0.2849  0.1544
  143SAPE  H15X15730   4.214   2.102   8.608  1.1636 -0.7396 -1.8246
  143SAPE  H15Y15731   4.379   2.032   8.624 -0.5944 -0.5102  0.7338
  143SAPE  C31615732   4.376   2.247   8.587 -0.2671 -0.1011  0.0185
  143SAPE  H16X15733   4.456   2.293   8.650 -2.3427  1.5154  1.6020
  143SAPE  H16Y15734   4.303   2.330   8.583  0.3808  0.4830 -0.0156
  143SAPE  C31715735   4.439   2.226   8.453  0.3780 -0.2287  0.5672
  143SAPE  H17X15736   4.355   2.240   8.382  1.6642  0.2960 -0.9031
  143SAPE  H17Y15737   4.486   2.126   8.441  2.2091  0.5365  1.0511
  143SAPE  C31815738   4.548   2.332   8.418  0.7022  0.3464 -0.9226
  143SAPE  H18X15739   4.492   2.427   8.406  0.5146  0.7331  2.1318
  143SAPE  H18Y15740   4.593   2.315   8.318  1.9988 -1.8265 -0.0442
  143SAPE  H18Z15741   4.629   2.336   8.495 -1.3875 -1.6088  1.5789
  144SAPE     N15742   5.248   6.305  10.846  0.4095 -0.4705  0.1183
  144SAPE   HN115743   5.178   6.373  10.880 -0.6056 -1.4308  0.0046
  144SAPE   HN215744   5.251   6.233  10.921 -2.3879  1.6407  2.5025
  144SAPE   HN315745   5.341   6.350  10.832 -0.2161  1.1183  0.8341
  144SAPE   C1215746   5.213   6.267  10.706 -0.5622  0.0755 -0.0846
  144SAPE  H12A15747   5.239   6.349  10.635  1.1261 -0.5620 -0.2382
  144SAPE  H12B15748   5.107   6.235  10.706 -0.2848 -1.1684 -3.0980
  144SAPE   C1115749   5.305   6.151  10.656  0.5040  0.0586 -0.0917
  144SAPE  H11A15750   5.402   6.205  10.655 -0.4303  1.8137 -0.7967
  144SAPE  H11B15751   5.289   6.114  10.553 -0.3621 -1.7517  0.6571
  144SAPE     P15752   5.186   5.948  10.766  0.2108 -0.2288 -0.1280
  144SAPE   O1315753   5.219   5.812  10.810 -0.4068  0.0117  0.8624
  144SAPE   O1415754   5.089   6.024  10.843  0.0668  0.3597 -0.0886
  144SAPE   O1215755   5.307   6.040  10.746  0.1397 -0.2874  0.4431
  144SAPE   O1115756   5.133   5.940  10.619  0.3422 -0.3711  0.1370
  144SAPE    C115757   5.012   6.001  10.567  0.1964  0.2238  0.3950
  144SAPE    HA15758   4.922   5.970  10.623  0.4855  0.6945  1.1296
  144SAPE    HB15759   5.015   6.112  10.569  1.5484  0.2043  0.4425
  144SAPE    C215760   4.988   5.969  10.408 -0.2504 -0.0330 -1.3414
  144SAPE    HS15761   4.885   6.005  10.390 -0.0491  0.4122 -1.6165
  144SAPE   O2115762   5.007   5.831  10.376 -0.2038  0.0561 -0.4137
  144SAPE   C2115763   4.947   5.744  10.455  0.0407  1.1103  0.5444
  144SAPE   O2215764   4.864   5.769  10.543 -0.1995  0.2348  0.1052
  144SAPE   C2215765   4.990   5.605  10.407 -0.5343  0.5825 -0.1745
  144SAPE   H2R15766   5.060   5.551  10.474  0.0775  2.1314  0.4662
  144SAPE   H2S15767   4.896   5.549  10.424  0.9496 -1.3341  2.4787
  144SAPE    C315768   5.086   6.046  10.321 -0.2716  0.1255 -0.7173
  144SAPE    HX15769   5.190   6.017  10.347 -0.0331  0.8079 -0.8970
  144SAPE    HY15770   5.087   6.153  10.353  1.3995  0.2463 -1.1047
  144SAPE   O3115771   5.047   6.026  10.184 -0.2466  0.0873 -1.3697
  144SAPE   C3115772   4.971   6.125  10.131  1.0782 -0.4386 -0.1766
  144SAPE   O3215773   4.934   6.219  10.187 -0.1241 -0.1735  0.1382
  144SAPE   C3215774   4.939   6.103   9.986  0.6938 -0.3039  0.5983
  144SAPE   H2X15775   4.829   6.114   9.975  0.9520  0.7513 -1.4692
  144SAPE   H2Y15776   4.955   5.998   9.954 -1.3427 -0.4104 -0.2266
  144SAPE   C2315777   5.031   5.587  10.256  0.1259  0.1340 -0.0444
  144SAPE   H3R15778   5.135   5.619  10.235  0.5211  2.2668  4.0570
  144SAPE   H3S15779   4.966   5.649  10.191  0.1656 -1.3000 -1.5182
  144SAPE   C2415780   5.018   5.442  10.214 -0.1130 -0.9496  0.4813
  144SAPE   H4R15781   5.019   5.372  10.300 -1.1446 -1.1270  0.3585
  144SAPE   H4S15782   5.111   5.424  10.156 -0.0703 -0.1210  0.2795
  144SAPE   C2515783   4.892   5.406  10.131 -0.1101 -0.3807 -1.2340
  144SAPE   H5R15784   4.796   5.426  10.181  1.0550  1.3554  0.4817
  144SAPE   C2615785   4.898   5.364  10.002  0.0702 -0.3983 -0.1747
  144SAPE   H6R15786   4.801   5.333   9.958 -0.0774 -1.1997  0.6867
  144SAPE   C2715787   5.011   5.342   9.907 -0.6092  0.1243  0.7380
  144SAPE   H7R15788   4.974   5.289   9.817 -1.3240  3.0039 -0.7874
  144SAPE   H7S15789   5.085   5.281   9.963  0.8835  0.2152 -1.0546
  144SAPE   C2815790   5.067   5.468   9.859  0.5186 -0.2453  0.0442
  144SAPE   H8R15791   5.083   5.548   9.933 -1.3188  0.3843 -0.1800
  144SAPE   C2915792   5.084   5.503   9.729  0.8622 -0.2937  0.0781
  144SAPE   H9R15793   5.135   5.597   9.703  0.2266 -0.8258 -3.7107
  144SAPE  C21015794   5.043   5.419   9.605  0.0018 -0.6159  0.3799
  144SAPE  H10R15795   5.005   5.488   9.526  3.0391 -1.7847 -2.2969
  144SAPE  H10S15796   4.971   5.338   9.630  1.0163 -1.9802 -0.9760
  144SAPE  C21115797   5.165   5.355   9.552 -0.0052  0.3426 -0.4892
  144SAPE  H11R15798   5.199   5.271   9.615  0.2360  1.5406  1.0425
  144SAPE  C21215799   5.227   5.382   9.437 -0.2554  0.1582  0.3787
  144SAPE  H12R15800   5.321   5.336   9.402 -0.8870 -2.3281  1.7572
  144SAPE  C21315801   5.173   5.481   9.330 -0.7227 -0.2366  0.2686
  144SAPE  H13R15802   5.265   5.537   9.301 -1.0545  0.4873  0.6169
  144SAPE  H13S15803   5.112   5.565   9.368  0.5857  1.2409 -0.7803
  144SAPE  C21415804   5.092   5.430   9.220  0.4971  0.1617 -0.7275
  144SAPE  H14R15805   4.985   5.440   9.243  0.5828  3.7660 -1.1912
  144SAPE  C21515806   5.124   5.373   9.105 -0.0688  0.6176 -0.5977
  144SAPE  H15R15807   5.053   5.325   9.036 -0.1130  1.9925 -1.5443
  144SAPE  C21615808   5.264   5.347   9.054 -0.3645 -0.3097 -0.0193
  144SAPE  H16R15809   5.274   5.238   9.036  1.2573  0.0336 -1.4857
  144SAPE  H16S15810   5.335   5.378   9.134  0.4730  1.4073 -1.3587
  144SAPE  C21715811   5.285   5.427   8.917  0.1476 -0.2843 -0.9669
  144SAPE  H17R15812   5.278   5.533   8.948 -1.9174 -0.7017  0.1759
  144SAPE  H17S15813   5.204   5.415   8.842 -0.7227  1.0739 -0.2763
  144SAPE  C21815814   5.420   5.392   8.849  0.1503  0.5477  0.5836
  144SAPE  H18R15815   5.507   5.427   8.908 -0.6658  1.2189  1.4267
  144SAPE  H18S15816   5.415   5.459   8.760 -0.0190 -0.4457 -0.1761
  144SAPE  C21915817   5.426   5.251   8.809 -0.0381 -0.2595 -0.3324
  144SAPE  H19R15818   5.323   5.229   8.774 -0.0542 -1.3762  0.3776
  144SAPE  H19S15819   5.457   5.193   8.899 -0.9861  2.0438  1.5714
  144SAPE  C22015820   5.521   5.222   8.697 -0.6066 -0.3075  0.6127
  144SAPE  H20R15821   5.522   5.296   8.614 -1.5554  1.6169  2.2196
  144SAPE  H20S15822   5.512   5.120   8.654  1.2637  0.0730 -0.8089
  144SAPE  H20T15823   5.623   5.222   8.741 -0.2091  1.1545 -0.2454
  144SAPE   C3315824   5.016   6.190   9.887  0.4764 -0.3584 -0.2572
  144SAPE   H3X15825   5.119   6.153   9.868  0.0850 -1.6494  0.0403
  144SAPE   H3Y15826   5.031   6.299   9.905  0.3020 -0.1510 -1.2610
  144SAPE   C3415827   4.958   6.212   9.742 -0.3461 -0.6654  0.7421
  144SAPE   H4X15828   4.859   6.258   9.762 -0.0338  0.5115 -0.2807
  144SAPE   H4Y15829   4.948   6.116   9.687 -0.1147 -1.0346  1.3300
  144SAPE   C3515830   5.047   6.312   9.655 -0.1697  0.4623 -0.8970
  144SAPE   H5X15831   5.157   6.297   9.655 -0.2092  0.1699 -0.2081
  144SAPE   H5Y15832   5.022   6.408   9.705 -0.7057 -0.4176  0.5536
  144SAPE   C3615833   5.010   6.305   9.507  0.3578 -0.1768 -0.3020
  144SAPE   H6X15834   4.900   6.297   9.495  0.6389 -3.0190 -1.8893
  144SAPE   H6Y15835   5.056   6.214   9.462  2.1752  1.2707 -1.5167
  144SAPE   C3715836   5.059   6.425   9.420 -0.1016  0.2846  0.6264
  144SAPE   H7X15837   5.169   6.441   9.426 -0.0922  1.0137 -1.0426
  144SAPE   H7Y15838   5.008   6.509   9.473 -0.4573 -0.0389  0.8069
  144SAPE   C3815839   5.020   6.423   9.274  0.0795  0.1142  0.3124
  144SAPE   H8X15840   4.936   6.491   9.248 -0.5650 -1.2811 -1.4116
  144SAPE   H8Y15841   4.989   6.320   9.247  0.6677 -0.1800  0.7514
  144SAPE   C3915842   5.142   6.448   9.177 -0.5659  1.2505 -0.1823
  144SAPE   H9X15843   5.228   6.388   9.214 -0.9993 -1.1347 -2.7890
  144SAPE   H9Y15844   5.187   6.550   9.181 -0.0627  1.0790 -1.0476
  144SAPE  C31015845   5.118   6.422   9.025 -0.0444 -0.0427  0.0801
  144SAPE  H10X15846   5.048   6.338   9.009 -1.5669  1.1157  0.3813
  144SAPE  H10Y15847   5.220   6.398   8.988 -0.1852  1.2364 -1.2370
  144SAPE  C31115848   5.067   6.549   8.952 -0.3165 -0.5700  0.0117
  144SAPE  H11X15849   5.011   6.617   9.021  2.6148  1.1963  0.8168
  144SAPE  H11Y15850   5.006   6.510   8.868 -0.5757 -0.8379  0.3213
  144SAPE  C31215851   5.183   6.619   8.900  0.0757 -0.7336  0.3976
  144SAPE  H12X15852   5.243   6.565   8.825  0.2951  0.1243 -0.0536
  144SAPE  H12Y15853   5.249   6.633   8.988 -0.9273  0.6131  0.9759
  144SAPE  C31315854   5.169   6.747   8.820  0.4243  0.6596 -0.4919
  144SAPE  H13X15855   5.258   6.788   8.768 -0.0370 -0.2896 -2.0996
  144SAPE  H13Y15856   5.127   6.828   8.884  2.6107 -0.3403  2.4116
  144SAPE  C31415857   5.073   6.736   8.706  0.4267 -0.1680 -0.1745
  144SAPE  H14X15858   4.975   6.695   8.738  0.0123  1.1969  0.4141
  144SAPE  H14Y15859   5.122   6.674   8.629  1.4998 -1.0646  1.1778
  144SAPE  C31515860   5.053   6.877   8.640 -0.2419  0.0062  0.4531
  144SAPE  H15X15861   5.152   6.923   8.620 -0.8058  2.0842  2.1623
  144SAPE  H15Y15862   4.998   6.935   8.717  1.3763  2.5664 -0.2001
  144SAPE  C31615863   4.980   6.864   8.515 -0.0547  0.0619  1.0349
  144SAPE  H16X15864   4.882   6.820   8.544  0.1011 -1.3406 -0.4350
  144SAPE  H16Y15865   5.017   6.795   8.438 -1.3220  2.0125 -1.4851
  144SAPE  C31715866   4.944   7.003   8.449 -0.0271  1.1023 -0.7714
  144SAPE  H17X15867   5.039   7.060   8.439 -1.3299  3.1781 -2.1241
  144SAPE  H17Y15868   4.886   7.057   8.527  0.5536 -0.5222  0.8300
  144SAPE  C31815869   4.866   7.006   8.315 -0.2435 -0.4680  0.4616
  144SAPE  H18X15870   4.863   7.106   8.266 -0.1133  0.0329  1.4541
  144SAPE  H18Y15871   4.760   6.976   8.320 -0.5730  0.6373  0.5342
  144SAPE  H18Z15872   4.914   6.934   8.245  1.9517  1.9681 -0.7603
  145SAPE     N15873   6.404   1.373  11.086  0.0207  0.3999  0.3086
  145SAPE   HN115874   6.427   1.462  11.038 -2.3317  1.7966  1.6001
  145SAPE   HN215875   6.319   1.398  11.140 -0.4020  1.8182 -0.9489
  145SAPE   HN315876   6.475   1.361  11.162 -1.0686  1.5611  1.5639
  145SAPE   C1215877   6.392   1.259  10.992  0.7351 -0.2232 -0.1950
  145SAPE  H12A15878   6.485   1.250  10.931  0.2522  2.1196 -1.3797
  145SAPE  H12B15879   6.320   1.295  10.916 -0.2125 -1.9638 -0.1809
  145SAPE   C1115880   6.348   1.135  11.056  0.2543 -0.3389  0.0164
  145SAPE  H11A15881   6.322   1.063  10.976 -4.3153  1.3754 -0.3677
  145SAPE  H11B15882   6.253   1.156  11.110  0.4505 -2.1579  1.1519
  145SAPE     P15883   6.577   1.017  11.126  0.0294 -0.2175  0.1145
  145SAPE   O1315884   6.681   1.115  11.083 -0.0567  0.0970 -0.1846
  145SAPE   O1415885   6.606   0.935  11.245 -0.0551  0.6350 -0.2211
  145SAPE   O1215886   6.438   1.094  11.161 -0.7032  0.3232 -0.3465
  145SAPE   O1115887   6.543   0.917  11.011 -0.0613  0.4208 -0.1874
  145SAPE    C115888   6.562   0.946  10.872  0.5921 -0.0153  0.0255
  145SAPE    HA15889   6.489   0.889  10.811 -0.6741 -0.4526  1.8744
  145SAPE    HB15890   6.552   1.056  10.854  1.5176 -0.0360 -0.7206
  145SAPE    C215891   6.702   0.913  10.816  0.0905 -0.5523 -0.6872
  145SAPE    HS15892   6.772   0.998  10.832  0.2843 -0.8172 -0.0926
  145SAPE   O2115893   6.692   0.878  10.679  0.1430 -0.5519 -0.2129
  145SAPE   C2115894   6.684   0.978  10.598  0.1052  0.3110 -0.2233
  145SAPE   O2215895   6.700   1.093  10.631 -0.4005  0.5570  0.1727
  145SAPE   C2215896   6.654   0.937  10.454  0.7198 -0.6482 -0.4833
  145SAPE   H2R15897   6.754   0.920  10.409  1.2086  0.5238  0.1080
  145SAPE   H2S15898   6.609   0.835  10.454  0.8707 -0.7162 -0.3515
  145SAPE    C315899   6.762   0.797  10.896  0.0396 -0.0131 -0.1253
  145SAPE    HX15900   6.698   0.706  10.889 -1.1909  0.7036  1.3131
  145SAPE    HY15901   6.759   0.818  11.005 -0.0683 -0.0096 -0.1282
  145SAPE   O3115902   6.903   0.786  10.854 -0.2750 -0.2793 -0.4933
  145SAPE   C3115903   6.941   0.682  10.784 -0.9393  0.0353  0.2420
  145SAPE   O3215904   6.867   0.596  10.734  0.1242 -0.2836 -0.6895
  145SAPE   C3215905   7.089   0.692  10.748  0.1768 -0.1613 -0.5004
  145SAPE   H2X15906   7.148   0.626  10.814 -0.5749  1.4737  1.9467
  145SAPE   H2Y15907   7.125   0.797  10.754  1.8088 -0.5236 -2.5413
  145SAPE   C2315908   6.577   1.042  10.362  0.5651  0.1721  0.2693
  145SAPE   H3R15909   6.629   1.140  10.363  0.2088  0.3620  0.7581
  145SAPE   H3S15910   6.477   1.065  10.405  0.9470  0.0066  1.2737
  145SAPE   C2415911   6.570   1.004  10.213  0.0159 -0.0495 -0.5337
  145SAPE   H4R15912   6.678   0.991  10.191 -0.4771 -1.8966 -2.2007
  145SAPE   H4S15913   6.531   1.087  10.150 -0.6987  0.3415  0.3912
  145SAPE   C2515914   6.493   0.881  10.177  0.2624 -0.3992 -0.2032
  145SAPE   H5R15915   6.495   0.798  10.250 -2.0533  0.6428  1.1461
  145SAPE   C2615916   6.419   0.863  10.072  0.8089  0.2054  0.1656
  145SAPE   H6R15917   6.373   0.763  10.059  0.3300  0.7611 -3.7473
  145SAPE   C2715918   6.396   0.965   9.962  0.1027  1.0306 -0.7992
  145SAPE   H7R15919   6.356   1.061  10.001 -1.4674 -0.2256  0.8846
  145SAPE   H7S15920   6.303   0.941   9.906  0.2679 -0.0115 -0.6516
  145SAPE   C2815921   6.511   0.988   9.869 -0.5358 -0.0096  0.8140
  145SAPE   H8R15922   6.584   1.057   9.914  0.3915 -0.2022 -0.3398
  145SAPE   C2915923   6.545   0.926   9.752 -0.2634  0.2189 -0.8944
  145SAPE   H9R15924   6.637   0.946   9.696 -2.5627  1.3345 -4.5655
  145SAPE  C21015925   6.450   0.822   9.700  0.4000 -0.3088  0.5838
  145SAPE  H10R15926   6.405   0.766   9.785  0.4159 -1.0178  0.1406
  145SAPE  H10S15927   6.505   0.748   9.638 -1.5115  0.4803 -2.2727
  145SAPE  C21115928   6.332   0.876   9.623 -0.2419 -0.0006 -0.3608
  145SAPE  H11R15929   6.297   0.978   9.645  1.6625  0.5993  0.0176
  145SAPE  C21215930   6.261   0.806   9.532  0.3154 -0.5117  0.4072
  145SAPE  H12R15931   6.176   0.858   9.487 -0.1023  0.8832  2.6407
  145SAPE  C21315932   6.276   0.656   9.492 -0.2808  0.1297  0.0820
  145SAPE  H13R15933   6.361   0.610   9.546 -0.6993 -2.0814 -1.0284
  145SAPE  H13S15934   6.299   0.648   9.383  1.1305  0.9282  0.2910
  145SAPE  C21415935   6.147   0.575   9.511  0.2928 -0.3752  0.6234
  145SAPE  H14R15936   6.134   0.512   9.600 -2.5130 -1.3132 -0.3444
  145SAPE  C21515937   6.036   0.580   9.438 -0.3023 -0.6846 -0.1103
  145SAPE  H15R15938   5.953   0.514   9.468 -0.8983 -0.7934 -1.8542
  145SAPE  C21615939   6.010   0.662   9.315 -0.1928 -0.2410 -0.5608
  145SAPE  H16R15940   6.090   0.739   9.302 -1.9972  1.3196 -3.3438
  145SAPE  H16S15941   5.929   0.735   9.333  1.5393  1.6048  0.2050
  145SAPE  C21715942   5.984   0.572   9.193  0.0732  0.9163  0.7200
  145SAPE  H17R15943   5.924   0.481   9.216  1.7108  0.2556  2.7052
  145SAPE  H17S15944   6.075   0.522   9.154 -0.9438  0.8002 -1.6230
  145SAPE  C21815945   5.924   0.651   9.079  1.0868  0.3876  0.1945
  145SAPE  H18R15946   6.006   0.700   9.024  0.4979  0.2893 -0.7982
  145SAPE  H18S15947   5.852   0.722   9.125  2.0595  0.1532  2.1881
  145SAPE  C21915948   5.848   0.549   8.981  0.4516 -0.4872  0.2513
  145SAPE  H19R15949   5.760   0.504   9.032 -1.6477 -0.5857 -3.1989
  145SAPE  H19S15950   5.917   0.466   8.955 -0.6527 -1.7018  1.0513
  145SAPE  C22015951   5.785   0.601   8.853 -0.4660 -0.0490 -0.5640
  145SAPE  H20R15952   5.698   0.667   8.869  0.5371  1.3553 -0.7382
  145SAPE  H20S15953   5.762   0.522   8.778 -0.5684  0.0132 -0.5979
  145SAPE  H20T15954   5.870   0.660   8.813  0.6044  0.1035  1.7394
  145SAPE   C3315955   7.115   0.658  10.602 -0.0011  0.2212  0.0492
  145SAPE   H3X15956   7.076   0.555  10.588 -0.1447  0.1582  0.8412
  145SAPE   H3Y15957   7.224   0.663  10.580 -0.5110  1.5168 -2.4178
  145SAPE   C3415958   7.044   0.755  10.503 -0.5165  1.2187 -0.1482
  145SAPE   H4X15959   7.075   0.862  10.507  0.3545  1.0225 -1.2562
  145SAPE   H4Y15960   6.935   0.746  10.521 -0.4314 -1.2450 -0.6234
  145SAPE   C3515961   7.065   0.719  10.349 -0.0063 -0.7606  0.7980
  145SAPE   H5X15962   7.043   0.611  10.335  1.5565 -1.0691  0.4998
  145SAPE   H5Y15963   7.174   0.736  10.334 -0.2573  2.1094  1.6800
  145SAPE   C3615964   6.988   0.816  10.259 -0.2440 -0.7030  0.3212
  145SAPE   H6X15965   7.024   0.920  10.270  0.4344 -0.6052 -2.2696
  145SAPE   H6Y15966   6.880   0.812  10.288 -0.2662 -0.6759  0.2406
  145SAPE   C3715967   6.990   0.783  10.106  0.0956 -0.6687 -0.0450
  145SAPE   H7X15968   6.944   0.682  10.099 -2.1236  0.1966  1.2033
  145SAPE   H7Y15969   7.095   0.784  10.069  0.9827  2.8753  2.0951
  145SAPE   C3815970   6.896   0.882  10.027 -0.4555  1.3279 -0.2252
  145SAPE   H8X15971   6.914   0.986  10.060 -0.8562  1.6747 -1.0678
  145SAPE   H8Y15972   6.789   0.851  10.022  0.4624 -2.1200 -1.2081
  145SAPE   C3915973   6.941   0.876   9.875 -0.2828  0.5367  0.0025
  145SAPE   H9X15974   7.052   0.881   9.877 -0.3019  0.8952  1.5255
  145SAPE   H9Y15975   6.898   0.964   9.823 -0.4260  0.3050 -0.2748
  145SAPE  C31015976   6.900   0.740   9.809  0.4592 -0.8178 -0.5199
  145SAPE  H10X15977   6.792   0.715   9.818 -0.0163  1.0669 -0.4963
  145SAPE  H10Y15978   6.945   0.659   9.870 -1.5900 -1.1089  0.7077
  145SAPE  C31115979   6.943   0.727   9.662 -0.1404  0.5651 -0.2699
  145SAPE  H11X15980   6.925   0.624   9.624 -1.1492  0.0846  1.4138
  145SAPE  H11Y15981   7.052   0.747   9.670 -0.1741  1.6966 -2.1434
  145SAPE  C31215982   6.866   0.818   9.571 -0.3039  0.1101 -0.7380
  145SAPE  H12X15983   6.878   0.924   9.603 -1.6491  0.7010 -2.0562
  145SAPE  H12Y15984   6.758   0.799   9.590 -0.1586  0.8662  1.0209
  145SAPE  C31315985   6.890   0.798   9.420 -0.4062 -0.3062 -0.1021
  145SAPE  H13X15986   6.913   0.695   9.386 -3.9237 -1.1596 -0.2824
  145SAPE  H13Y15987   6.973   0.868   9.396 -1.1716  0.0457 -1.8385
  145SAPE  C31415988   6.779   0.866   9.329  0.2351  0.1906  0.3190
  145SAPE  H14X15989   6.821   0.895   9.230 -0.4935 -1.5285 -0.5354
  145SAPE  H14Y15990   6.753   0.964   9.375 -0.1410 -0.1535  0.8491
  145SAPE  C31515991   6.651   0.789   9.293  0.0501 -0.1779  0.3505
  145SAPE  H15X15992   6.594   0.780   9.387 -0.8263 -0.2590 -0.1799
  145SAPE  H15Y15993   6.675   0.688   9.253 -1.2192 -0.4514  0.2568
  145SAPE  C31615994   6.554   0.858   9.188 -0.3843  0.1055  0.2654
  145SAPE  H16X15995   6.477   0.786   9.154 -0.6143  0.7106 -0.5326
  145SAPE  H16Y15996   6.620   0.890   9.104  0.0107  2.3036  1.3365
  145SAPE  C31715997   6.493   0.979   9.254 -0.3016 -0.0778 -0.5683
  145SAPE  H17X15998   6.574   1.053   9.272 -1.1009  0.4803  0.9919
  145SAPE  H17Y15999   6.459   0.953   9.357  0.2898 -0.1768 -0.3990
  145SAPE  C31816000   6.398   1.050   9.165 -0.5740 -0.0117  0.5895
  145SAPE  H18X16001   6.448   1.082   9.071  0.3090 -1.7279  0.4240
  145SAPE  H18Y16002   6.353   1.137   9.217  0.0006 -0.1403  1.3074
  145SAPE  H18Z16003   6.310   0.989   9.133 -2.4619  1.3796  2.8039
  146SAPE     N16004   2.740   2.040  11.114 -0.1045  0.2176  0.5712
  146SAPE   HN116005   2.761   2.136  11.150 -1.9211 -0.2427  3.0937
  146SAPE   HN216006   2.638   2.038  11.095  0.1913  0.7315 -1.2420
  146SAPE   HN316007   2.773   1.978  11.190  0.3121  0.5943  0.7041
  146SAPE   C1216008   2.796   2.016  10.979  0.5957  0.2544  0.4485
  146SAPE  H12A16009   2.907   2.005  10.981  0.5623 -0.0446  2.3087
  146SAPE  H12B16010   2.758   2.099  10.916 -0.2627  1.3948  2.3932
  146SAPE   C1116011   2.740   1.879  10.927 -0.0847  0.1901 -0.7262
  146SAPE  H11A16012   2.789   1.796  10.982 -0.7904 -0.4178 -0.9970
  146SAPE  H11B16013   2.768   1.874  10.820 -1.9774  0.6574 -1.2734
  146SAPE     P16014   2.509   1.781  10.839 -0.2010  0.0339 -0.1004
  146SAPE   O1316015   2.546   1.638  10.852 -0.3648 -0.1221  0.4283
  146SAPE   O1416016   2.372   1.824  10.858  0.5192  0.1212 -0.5244
  146SAPE   O1216017   2.600   1.867  10.934  0.1296 -0.1227  0.5309
  146SAPE   O1116018   2.551   1.835  10.698  0.6982 -0.4212 -0.1771
  146SAPE    C116019   2.515   1.763  10.582 -0.3905  0.8925 -0.1286
  146SAPE    HA16020   2.540   1.654  10.578 -3.9368 -0.1184  1.6373
  146SAPE    HB16021   2.404   1.766  10.573 -0.3993  2.7573  0.2513
  146SAPE    C216022   2.578   1.831  10.456  0.4140 -0.5895 -0.4696
  146SAPE    HS16023   2.684   1.798  10.451  0.3643 -0.8018 -0.1149
  146SAPE   O2116024   2.537   1.970  10.460 -0.6579 -0.5570 -0.3859
  146SAPE   C2116025   2.607   2.052  10.382 -1.0451 -0.3844  0.0542
  146SAPE   O2216026   2.715   2.030  10.333 -0.4021  0.6774 -0.3906
  146SAPE   C2216027   2.518   2.177  10.376 -0.6216  0.7193 -0.5211
  146SAPE   H2R16028   2.418   2.159  10.421 -0.6651  0.7762 -0.5934
  146SAPE   H2S16029   2.555   2.251  10.449 -1.5287 -0.5745  1.3340
  146SAPE    C316030   2.511   1.773  10.333 -0.3470 -0.6086 -0.0934
  146SAPE    HX16031   2.407   1.813  10.334 -0.4549 -0.7548  2.8573
  146SAPE    HY16032   2.499   1.663  10.335 -0.9108 -0.5434  0.4026
  146SAPE   O3116033   2.576   1.820  10.210  0.1753  0.3297  0.1999
  146SAPE   C3116034   2.697   1.788  10.190  0.4217  0.1037  0.8074
  146SAPE   O3216035   2.773   1.715  10.253  0.1919 -0.2588  0.8445
  146SAPE   C3216036   2.751   1.870  10.064  1.6063 -0.6319 -0.8428
  146SAPE   H2X16037   2.856   1.834  10.053  1.3326 -1.3895 -1.0032
  146SAPE   H2Y16038   2.745   1.975  10.100 -0.8185 -1.7537  2.5598
  146SAPE   C2316039   2.519   2.239  10.236  0.5062 -0.0621  0.8842
  146SAPE   H3R16040   2.473   2.163  10.170 -0.2808  0.9075  0.2971
  146SAPE   H3S16041   2.626   2.247  10.205  0.0879 -0.9699 -0.8889
  146SAPE   C2416042   2.450   2.380  10.216 -0.2426  0.2847  0.2251
  146SAPE   H4R16043   2.484   2.416  10.116 -0.5913 -0.7780 -0.2812
  146SAPE   H4S16044   2.500   2.447  10.290 -0.3687  1.1151 -0.4227
  146SAPE   C2516045   2.299   2.379  10.236  0.0807 -0.2796  0.1016
  146SAPE   H5R16046   2.272   2.418  10.335 -0.5691  0.8168 -0.4886
  146SAPE   C2616047   2.203   2.383  10.137  0.1391  0.2727 -0.1074
  146SAPE   H6R16048   2.098   2.359  10.160  0.5971 -0.4823  1.2997
  146SAPE   C2716049   2.229   2.377   9.989  0.1288  0.3664 -0.4243
  146SAPE   H7R16050   2.147   2.323   9.937 -1.3768  2.6588 -0.5486
  146SAPE   H7S16051   2.319   2.321   9.957 -0.6675 -1.2604  0.0555
  146SAPE   C2816052   2.246   2.508   9.913 -0.0061  0.4759 -0.7421
  146SAPE   H8R16053   2.287   2.589   9.976  0.0613 -0.5905  0.6412
  146SAPE   C2916054   2.227   2.529   9.786  0.0873  0.9146  0.4448
  146SAPE   H9R16055   2.245   2.626   9.737  0.5174  1.4382  1.6255
  146SAPE  C21016056   2.189   2.419   9.687  0.2715  0.5631  0.1095
  146SAPE  H10R16057   2.078   2.408   9.679  0.3066  0.9237 -0.9542
  146SAPE  H10S16058   2.235   2.322   9.716  0.2577 -0.8136 -3.8753
  146SAPE  C21116059   2.259   2.430   9.551  0.3071 -0.2963  0.6873
  146SAPE  H11R16060   2.367   2.454   9.551 -0.0944  2.5647 -3.3006
  146SAPE  C21216061   2.188   2.419   9.435 -0.1290 -0.6271 -0.0781
  146SAPE  H12R16062   2.245   2.424   9.341 -0.9485  3.5454 -0.5562
  146SAPE  C21316063   2.043   2.399   9.420 -0.2380 -0.7402  0.3203
  146SAPE  H13R16064   2.000   2.462   9.339  1.7754  0.2044 -0.0774
  146SAPE  H13S16065   1.990   2.431   9.512 -1.7966  1.9903 -1.3923
  146SAPE  C21416066   2.016   2.265   9.367  0.6633 -0.4078 -0.5047
  146SAPE  H14R16067   1.981   2.193   9.443  1.1260  0.7112  0.8234
  146SAPE  C21516068   2.017   2.220   9.239 -0.5611 -0.0542  0.8530
  146SAPE  H15R16069   1.970   2.121   9.224 -0.0684 -0.2859  0.8127
  146SAPE  C21616070   2.052   2.297   9.112 -0.5675  0.1032 -0.0838
  146SAPE  H16R16071   2.138   2.365   9.127 -1.8366  1.5434  0.9695
  146SAPE  H16S16072   1.959   2.351   9.082 -0.5665 -0.1199 -0.4960
  146SAPE  C21716073   2.088   2.221   8.982  0.2828  0.1888 -0.0098
  146SAPE  H17R16074   2.009   2.144   8.967 -0.6358  1.0059  0.5059
  146SAPE  H17S16075   2.192   2.181   8.989  0.4983  0.6207 -0.6914
  146SAPE  C21816076   2.072   2.295   8.850  0.5362  0.1369  0.3427
  146SAPE  H18R16077   1.969   2.336   8.834  0.5837 -0.0219 -0.4342
  146SAPE  H18S16078   2.097   2.234   8.760 -0.0372 -0.0936  0.3308
  146SAPE  C21916079   2.165   2.416   8.834  0.4017  0.2122  0.4886
  146SAPE  H19R16080   2.262   2.361   8.834 -0.6809 -1.8322 -0.6359
  146SAPE  H19S16081   2.149   2.488   8.917 -1.0771 -0.4286  0.7847
  146SAPE  C22016082   2.125   2.485   8.703  0.9337 -0.5446  0.0146
  146SAPE  H20R16083   2.195   2.565   8.668 -0.4839  0.2064 -1.2134
  146SAPE  H20S16084   2.019   2.516   8.698  0.1892 -2.8451  0.3959
  146SAPE  H20T16085   2.130   2.405   8.626 -0.2529 -2.5025  1.8629
  146SAPE   C3316086   2.673   1.850   9.935  0.9258  0.2597 -0.1792
  146SAPE   H3X16087   2.710   1.923   9.860  0.5802  0.3038 -0.3130
  146SAPE   H3Y16088   2.571   1.888   9.958  1.3579  2.4583 -1.6221
  146SAPE   C3416089   2.684   1.710   9.890 -0.6659  0.0944  0.1036
  146SAPE   H4X16090   2.657   1.635   9.968  0.4652 -0.7184 -0.2548
  146SAPE   H4Y16091   2.791   1.704   9.862 -0.6254 -0.1477  0.3032
  146SAPE   C3516092   2.605   1.682   9.762 -0.9829 -0.2004  0.0989
  146SAPE   H5X16093   2.496   1.693   9.774 -0.7130  2.2084  0.8445
  146SAPE   H5Y16094   2.631   1.580   9.727 -0.9290  0.4215 -1.8263
  146SAPE   C3616095   2.664   1.770   9.646 -0.0441  0.4607  0.3805
  146SAPE   H6X16096   2.772   1.744   9.645 -0.4056 -1.1435 -0.1909
  146SAPE   H6Y16097   2.644   1.879   9.650 -0.2172  0.4019  1.5922
  146SAPE   C3716098   2.610   1.733   9.504 -0.4378 -0.6160  0.4925
  146SAPE   H7X16099   2.547   1.642   9.502  2.0184 -2.4523  1.1532
  146SAPE   H7Y16100   2.701   1.713   9.443 -0.8621  0.6201 -0.5867
  146SAPE   C3816101   2.551   1.858   9.438 -0.1999 -0.0995  0.5895
  146SAPE   H8X16102   2.639   1.926   9.428 -1.4266  1.2964 -1.6753
  146SAPE   H8Y16103   2.483   1.914   9.505  1.2043 -0.4355  2.3685
  146SAPE   C3916104   2.483   1.834   9.300  0.3112 -0.8698  0.3379
  146SAPE   H9X16105   2.439   1.930   9.267 -1.2399 -1.2188  1.2738
  146SAPE   H9Y16106   2.397   1.765   9.317  0.7572 -1.4430  0.2924
  146SAPE  C31016107   2.576   1.776   9.192  0.5711  0.1741  0.0797
  146SAPE  H10X16108   2.519   1.741   9.103  2.0875 -1.3526 -0.3274
  146SAPE  H10Y16109   2.627   1.686   9.231  0.0045  0.1024  0.6902
  146SAPE  C31116110   2.677   1.879   9.145  0.9216 -0.9780 -0.4136
  146SAPE  H11X16111   2.764   1.838   9.090 -0.4303 -1.1729 -2.4983
  146SAPE  H11Y16112   2.718   1.928   9.236 -0.9990  1.2279 -0.6273
  146SAPE  C31216113   2.606   1.974   9.048  0.4457 -0.0368  0.2964
  146SAPE  H12X16114   2.595   2.077   9.088 -1.0206 -0.0401 -0.0554
  146SAPE  H12Y16115   2.502   1.941   9.031  0.0421  2.1916 -2.2792
  146SAPE  C31316116   2.669   1.983   8.911 -0.2060 -0.0923 -0.6040
  146SAPE  H13X16117   2.669   1.883   8.863  0.3788 -0.2369 -0.3148
  146SAPE  H13Y16118   2.777   2.007   8.923 -0.4476  1.0835 -0.6719
  146SAPE  C31416119   2.589   2.079   8.820 -0.2543 -0.4057 -0.5882
  146SAPE  H14X16120   2.633   2.071   8.718 -1.4312 -2.4709 -0.9923
  146SAPE  H14Y16121   2.595   2.185   8.851  0.9766 -0.9116  1.0226
  146SAPE  C31516122   2.445   2.037   8.799  0.0195 -0.2695 -0.7399
  146SAPE  H15X16123   2.392   2.068   8.892  0.8570  1.3354 -0.7748
  146SAPE  H15Y16124   2.447   1.926   8.800  1.0234 -0.2562  0.0608
  146SAPE  C31616125   2.366   2.093   8.681  0.2503  0.0675  0.5766
  146SAPE  H16X16126   2.393   2.201   8.680 -0.2056  0.2048  1.6695
  146SAPE  H16Y16127   2.262   2.076   8.715  0.6496 -0.2528  1.6701
  146SAPE  C31716128   2.376   2.035   8.538 -0.0876 -0.0540  0.2782
  146SAPE  H17X16129   2.325   1.937   8.548 -1.8989  0.7188 -0.8498
  146SAPE  H17Y16130   2.482   2.011   8.516  0.4188  1.9718  0.2573
  146SAPE  C31816131   2.306   2.128   8.436 -0.4857 -0.5104  0.2380
  146SAPE  H18X16132   2.359   2.224   8.421 -0.3337 -0.8079 -1.3408
  146SAPE  H18Y16133   2.203   2.156   8.465 -0.6548 -0.2071 -0.6316
  146SAPE  H18Z16134   2.309   2.080   8.336 -0.8648 -0.0002 -0.0187
  147SAPE     N16135   5.380   3.662   6.419  0.2464  0.4691  0.0476
  147SAPE   HN116136   5.302   3.731   6.424  0.1960  0.3620  0.8936
  147SAPE   HN216137   5.439   3.685   6.336  1.0836  1.5418  0.9071
  147SAPE   HN316138   5.359   3.561   6.409  0.4278  0.3807  0.5132
  147SAPE   C1216139   5.474   3.683   6.530 -0.3146  0.7789 -0.1198
  147SAPE  H12A16140   5.533   3.589   6.539  0.7059  1.4439  0.5182
  147SAPE  H12B16141   5.422   3.688   6.628 -1.3406  1.4314 -0.6825
  147SAPE   C1116142   5.556   3.811   6.518  0.1723 -0.0062  0.4944
  147SAPE  H11A16143   5.601   3.808   6.417 -2.4607 -3.0328 -0.7382
  147SAPE  H11B16144   5.632   3.820   6.599 -0.6266  0.0646  1.2546
  147SAPE     P16145   5.529   4.069   6.504 -0.2622 -0.0370  0.5581
  147SAPE   O1316146   5.545   4.076   6.357 -0.5674  0.0087 -1.0971
  147SAPE   O1416147   5.448   4.175   6.557  0.3374 -0.3755 -0.4021
  147SAPE   O1216148   5.472   3.927   6.530 -0.1543  0.0898  0.2008
  147SAPE   O1116149   5.670   4.070   6.586  0.0655  1.1449  0.1961
  147SAPE    C116150   5.691   4.160   6.696  0.1097  0.7683  0.2896
  147SAPE    HA16151   5.765   4.236   6.662 -0.1066  0.3878 -1.1002
  147SAPE    HB16152   5.604   4.226   6.715 -1.1682 -1.0180  0.8952
  147SAPE    C216153   5.723   4.090   6.838  0.2067  1.1045 -0.0320
  147SAPE    HS16154   5.763   4.171   6.902  0.2995  1.2913 -0.3259
  147SAPE   O2116155   5.826   3.988   6.818  0.1857 -0.4651  0.2870
  147SAPE   C2116156   5.937   4.043   6.776 -0.2254 -0.8219 -0.2662
  147SAPE   O2216157   5.969   4.160   6.776 -0.9386 -0.0147 -0.0736
  147SAPE   C2216158   6.044   3.932   6.747  0.1201 -0.8143  0.0934
  147SAPE   H2R16159   5.980   3.842   6.743  0.0181 -0.7522  0.2930
  147SAPE   H2S16160   6.084   3.958   6.647 -1.3829 -0.4713 -0.4424
  147SAPE    C316161   5.602   4.020   6.907 -0.6399 -0.0252  0.6490
  147SAPE    HX16162   5.569   3.939   6.838 -0.0657  0.8821 -0.7363
  147SAPE    HY16163   5.523   4.097   6.917 -0.8783 -0.4036  1.8330
  147SAPE   O3116164   5.655   3.981   7.041  1.0576  0.1794  0.5667
  147SAPE   C3116165   5.671   3.852   7.055  0.1014 -0.2462  0.6710
  147SAPE   O3216166   5.660   3.767   6.967  0.1227  0.2328 -0.2181
  147SAPE   C3216167   5.704   3.833   7.208 -0.0907  0.6259 -0.1053
  147SAPE   H2X16168   5.639   3.893   7.275  1.1402  0.4787  1.2938
  147SAPE   H2Y16169   5.805   3.875   7.228  0.1268  1.9827 -3.4074
  147SAPE   C2316170   6.160   3.919   6.854  0.4248  0.1896 -1.0369
  147SAPE   H3R16171   6.207   4.013   6.891 -0.6197 -0.7198  3.1314
  147SAPE   H3S16172   6.242   3.850   6.825 -1.1889 -4.6039  4.1104
  147SAPE   C2416173   6.114   3.860   6.991  0.3078 -0.3447  0.1506
  147SAPE   H4R16174   6.018   3.911   7.013  0.3586 -0.8090  1.5980
  147SAPE   H4S16175   6.198   3.886   7.059  1.2939  1.3368 -1.6375
  147SAPE   C2516176   6.089   3.706   6.979 -0.2851 -0.5209 -0.5468
  147SAPE   H5R16177   6.033   3.679   6.889  1.2562 -0.6129 -1.5180
  147SAPE   C2616178   6.136   3.616   7.063 -0.3326  0.3449 -0.7885
  147SAPE   H6R16179   6.134   3.512   7.028  0.6608 -0.9985  2.6495
  147SAPE   C2716180   6.221   3.636   7.187 -0.1403 -0.4812  0.1863
  147SAPE   H7R16181   6.185   3.565   7.265  0.3633 -2.4280 -1.2759
  147SAPE   H7S16182   6.207   3.734   7.237  2.3085  0.5609 -1.0021
  147SAPE   C2816183   6.367   3.622   7.169  0.1543  0.2403  0.5431
  147SAPE   H8R16184   6.394   3.620   7.062 -2.9358  2.1942 -0.3784
  147SAPE   C2916185   6.461   3.618   7.266 -0.0974 -0.6688  0.3218
  147SAPE   H9R16186   6.566   3.610   7.235 -0.5606  0.7186 -1.8343
  147SAPE  C21016187   6.418   3.633   7.410 -0.1145 -0.1851  0.4767
  147SAPE  H10R16188   6.318   3.589   7.430  0.0600 -0.9797 -0.3799
  147SAPE  H10S16189   6.402   3.736   7.449 -0.6356 -0.8940  2.2494
  147SAPE  C21116190   6.515   3.562   7.498 -0.1061  0.7387  0.1932
  147SAPE  H11R16191   6.593   3.508   7.443  0.8219 -0.5087  2.5639
  147SAPE  C21216192   6.520   3.546   7.630 -0.1618  0.2568  0.2950
  147SAPE  H12R16193   6.604   3.491   7.673 -0.6665  0.1264  1.1362
  147SAPE  C21316194   6.413   3.603   7.721 -0.5604 -0.4703 -0.0090
  147SAPE  H13R16195   6.329   3.532   7.737 -0.8957  0.1182  0.9816
  147SAPE  H13S16196   6.370   3.695   7.676 -2.2732 -1.7956 -1.1723
  147SAPE  C21416197   6.473   3.626   7.862  0.2867  0.0798 -0.2847
  147SAPE  H14R16198   6.505   3.533   7.912  1.9765 -0.1726 -1.7115
  147SAPE  C21516199   6.469   3.744   7.929  0.4081  0.3323 -0.3847
  147SAPE  H15R16200   6.499   3.745   8.035 -0.6294 -0.5890 -0.0686
  147SAPE  C21616201   6.403   3.873   7.876 -0.4227  0.5570 -0.3121
  147SAPE  H16R16202   6.305   3.853   7.829 -1.2012  0.6363  1.2200
  147SAPE  H16S16203   6.479   3.907   7.803  1.9446 -1.5337  0.9938
  147SAPE  C21716204   6.399   3.984   7.985 -0.2619  0.3799  0.0959
  147SAPE  H17R16205   6.339   3.939   8.066  0.5793 -2.0851 -0.5745
  147SAPE  H17S16206   6.349   4.074   7.942 -2.1263 -1.1395 -1.0391
  147SAPE  C21816207   6.530   4.020   8.050 -0.5413  0.2578 -1.4006
  147SAPE  H18R16208   6.612   4.038   7.977  1.3681 -1.9184  0.0529
  147SAPE  H18S16209   6.573   3.942   8.117 -0.1976 -0.1585 -2.0915
  147SAPE  C21916210   6.505   4.145   8.138  0.1839  0.0145  0.0443
  147SAPE  H19R16211   6.599   4.150   8.197  1.8308 -3.5896 -1.9368
  147SAPE  H19S16212   6.421   4.118   8.206  1.6351  0.4778  2.1384
  147SAPE  C22016213   6.462   4.275   8.069  0.2812 -0.7639  0.1790
  147SAPE  H20R16214   6.523   4.288   7.977 -2.2418  0.2166 -1.4649
  147SAPE  H20S16215   6.474   4.366   8.132  0.6023 -1.2507  0.8244
  147SAPE  H20T16216   6.352   4.274   8.053  0.0923 -0.3733  1.3368
  147SAPE   C3316217   5.694   3.679   7.241 -0.7543  0.1964 -0.4591
  147SAPE   H3X16218   5.765   3.659   7.325 -0.8749 -0.3512 -0.4844
  147SAPE   H3Y16219   5.742   3.619   7.160  0.3660  0.0186  0.3180
  147SAPE   C3416220   5.561   3.625   7.288  0.3263 -0.1101 -0.6022
  147SAPE   H4X16221   5.490   3.609   7.204 -0.4284 -0.9393  0.1695
  147SAPE   H4Y16222   5.504   3.690   7.357 -1.9191 -0.7308 -1.7739
  147SAPE   C3516223   5.563   3.483   7.348 -0.3200  0.1963  0.2656
  147SAPE   H5X16224   5.610   3.408   7.281 -1.3380 -0.1489 -0.0752
  147SAPE   H5Y16225   5.460   3.445   7.364  0.3998 -1.2580  1.7590
  147SAPE   C3616226   5.631   3.472   7.488 -0.3230  0.8810  0.5906
  147SAPE   H6X16227   5.735   3.491   7.456 -0.1318 -2.3843 -1.1127
  147SAPE   H6Y16228   5.615   3.369   7.527 -0.0029  0.5659 -0.0948
  147SAPE   C3716229   5.587   3.570   7.593  0.1958  0.1465 -0.1533
  147SAPE   H7X16230   5.478   3.585   7.614  0.5949  2.0398  0.8597
  147SAPE   H7Y16231   5.625   3.670   7.563  0.8319  0.8378  2.5930
  147SAPE   C3816232   5.661   3.536   7.720  0.1365  0.1974 -0.6666
  147SAPE   H8X16233   5.770   3.543   7.699  0.4157 -3.2892 -1.0425
  147SAPE   H8Y16234   5.643   3.427   7.734 -0.8598  0.4741  0.3588
  147SAPE   C3916235   5.622   3.626   7.842  0.4668  0.7507 -0.1701
  147SAPE   H9X16236   5.511   3.624   7.841  0.3987  2.8285 -1.4740
  147SAPE   H9Y16237   5.655   3.730   7.824  1.3132  0.6100  0.4693
  147SAPE  C31016238   5.686   3.577   7.977 -0.5508  0.5643  0.3373
  147SAPE  H10X16239   5.793   3.600   7.963 -0.6200 -0.6195 -3.3397
  147SAPE  H10Y16240   5.666   3.468   7.980 -0.9436  0.5045 -2.1230
  147SAPE  C31116241   5.637   3.650   8.101  0.1873  0.1030 -0.6656
  147SAPE  H11X16242   5.644   3.761   8.105 -0.2996  0.1119  0.2399
  147SAPE  H11Y16243   5.704   3.622   8.185 -0.9759 -0.5734  0.0642
  147SAPE  C31216244   5.497   3.609   8.141  0.6715  0.2295  0.3282
  147SAPE  H12X16245   5.480   3.506   8.102  1.8455 -0.4478  1.5247
  147SAPE  H12Y16246   5.428   3.675   8.084 -2.0322 -1.7425  1.0819
  147SAPE  C31316247   5.472   3.617   8.286  0.1385  0.3064  0.2439
  147SAPE  H13X16248   5.542   3.552   8.342 -1.5871  0.4489  2.7963
  147SAPE  H13Y16249   5.370   3.583   8.315 -0.7172 -0.0492 -2.8658
  147SAPE  C31416250   5.502   3.762   8.323 -0.4319 -0.7429  0.3134
  147SAPE  H14X16251   5.447   3.833   8.257  1.2031  0.4553  0.1813
  147SAPE  H14Y16252   5.610   3.785   8.317 -0.2554 -1.7823 -1.0918
  147SAPE  C31516253   5.451   3.792   8.464 -0.5895 -0.0958  0.7234
  147SAPE  H15X16254   5.502   3.731   8.542  0.2302  0.5014  0.6740
  147SAPE  H15Y16255   5.346   3.758   8.472 -0.9608  0.4265 -1.3724
  147SAPE  C31616256   5.460   3.938   8.501 -0.2878 -0.5017  0.5889
  147SAPE  H16X16257   5.393   3.995   8.433  0.7131  0.0694  0.0704
  147SAPE  H16Y16258   5.566   3.963   8.480 -0.7132  1.8154  0.9114
  147SAPE  C31716259   5.439   3.967   8.646 -1.0388  0.3733 -1.0521
  147SAPE  H17X16260   5.460   4.076   8.659  1.2710  0.0709 -1.8542
  147SAPE  H17Y16261   5.517   3.908   8.699 -1.3461  0.5569 -0.3769
  147SAPE  C31816262   5.299   3.926   8.696 -0.3335  0.6313  0.0406
  147SAPE  H18X16263   5.224   3.939   8.614  0.0627 -1.8718 -0.7887
  147SAPE  H18Y16264   5.264   3.991   8.779  0.4792  0.8746  0.2060
  147SAPE  H18Z16265   5.295   3.821   8.730  0.3346  0.7708  0.5653
  148SAPE     N16266   6.796   3.246   6.522  0.0432  0.5911 -0.3260
  148SAPE   HN116267   6.694   3.242   6.540  0.2606  0.0067  0.7964
  148SAPE   HN216268   6.848   3.193   6.595  0.2270 -1.3444 -1.7735
  148SAPE   HN316269   6.819   3.345   6.544 -2.3378  0.9492  0.8085
  148SAPE   C1216270   6.838   3.201   6.392 -0.5398 -0.8275  0.0331
  148SAPE  H12A16271   6.762   3.216   6.312 -1.7618 -1.2938  1.0767
  148SAPE  H12B16272   6.852   3.091   6.396 -0.9327 -1.0716 -3.0160
  148SAPE   C1116273   6.976   3.269   6.359 -0.1024  0.1663  0.4605
  148SAPE  H11A16274   7.016   3.207   6.276  0.3200 -0.0554  0.8179
  148SAPE  H11B16275   7.054   3.247   6.436  0.8187  2.6382  0.3364
  148SAPE     P16276   6.992   3.525   6.425 -0.1133  0.3300  0.2261
  148SAPE   O1316277   7.008   3.655   6.357  0.0732  0.0470 -0.0771
  148SAPE   O1416278   6.886   3.505   6.527  0.5853 -0.3372  0.1746
  148SAPE   O1216279   6.970   3.405   6.318 -0.0284 -0.4664 -0.5450
  148SAPE   O1116280   7.137   3.488   6.482 -0.0124 -0.1427  0.8094
  148SAPE    C116281   7.200   3.546   6.601  0.2064 -0.4177  0.0342
  148SAPE    HA16282   7.309   3.562   6.589  0.4434 -1.5425  0.6134
  148SAPE    HB16283   7.144   3.639   6.624 -2.7127 -1.9539 -0.4087
  148SAPE    C216284   7.184   3.455   6.724  0.1042  0.1127  0.7010
  148SAPE    HS16285   7.075   3.448   6.747  0.1848  0.0542  1.0834
  148SAPE   O2116286   7.264   3.503   6.832  0.2327 -0.0590  0.4646
  148SAPE   C2116287   7.205   3.486   6.953 -0.6513  0.8518 -0.2273
  148SAPE   O2216288   7.088   3.453   6.969  0.4793 -0.1588  0.2631
  148SAPE   C2216289   7.296   3.528   7.070  0.5569 -0.1340 -0.7366
  148SAPE   H2R16290   7.402   3.539   7.039  0.3878 -0.2773 -1.3840
  148SAPE   H2S16291   7.249   3.614   7.121  1.5873 -0.0552  0.1223
  148SAPE    C316292   7.247   3.305   6.704 -0.6564 -0.7853  0.4151
  148SAPE    HX16293   7.354   3.333   6.702 -0.9107  0.4007  1.5282
  148SAPE    HY16294   7.221   3.274   6.600  0.8923 -1.5576  0.2318
  148SAPE   O3116295   7.206   3.209   6.803  0.2224 -0.3711  0.0802
  148SAPE   C3116296   7.084   3.160   6.788 -0.5473  1.3264 -0.7922
  148SAPE   O3216297   7.013   3.187   6.690 -0.8408 -0.5070 -0.1656
  148SAPE   C3216298   7.037   3.073   6.905  0.1743  0.4886 -0.4271
  148SAPE   H2X16299   7.049   2.965   6.883 -0.5811  0.4707 -0.7692
  148SAPE   H2Y16300   6.928   3.088   6.916 -0.2349 -1.8979 -0.6970
  148SAPE   C2316301   7.281   3.408   7.170 -0.9622 -0.3812  0.4373
  148SAPE   H3R16302   7.303   3.309   7.126  3.6452  0.6865 -0.1778
  148SAPE   H3S16303   7.174   3.410   7.199 -1.2097  0.6175 -0.4782
  148SAPE   C2416304   7.386   3.405   7.281 -0.2486 -0.1713 -0.1349
  148SAPE   H4R16305   7.482   3.418   7.227 -1.4186  0.4999 -2.1428
  148SAPE   H4S16306   7.398   3.312   7.341  0.2047  0.3899  0.6713
  148SAPE   C2516307   7.368   3.527   7.369 -0.0334 -0.3775 -0.4025
  148SAPE   H5R16308   7.395   3.622   7.321  0.2133 -0.3066 -0.1315
  148SAPE   C2616309   7.332   3.533   7.496  0.1881 -0.5786 -0.8220
  148SAPE   H6R16310   7.325   3.634   7.538 -1.0750 -1.3337  0.9380
  148SAPE   C2716311   7.309   3.403   7.581  0.5974  0.0589  0.4644
  148SAPE   H7R16312   7.367   3.419   7.675  0.9228 -0.5264  0.3713
  148SAPE   H7S16313   7.369   3.322   7.535  3.3265  1.9702  0.4363
  148SAPE   C2816314   7.164   3.373   7.605  0.0336  0.4290  0.3626
  148SAPE   H8R16315   7.109   3.363   7.510  0.3652 -3.2699  0.4160
  148SAPE   C2916316   7.101   3.361   7.720  0.2526 -0.9447  0.7083
  148SAPE   H9R16317   6.995   3.331   7.717  0.5667 -2.1788 -2.8444
  148SAPE  C21016318   7.159   3.371   7.858  0.1083 -0.2984  0.2734
  148SAPE  H10R16319   7.216   3.465   7.872  0.2432 -0.3907  0.3441
  148SAPE  H10S16320   7.229   3.284   7.861  1.1099  0.4378 -0.9525
  148SAPE  C21116321   7.059   3.359   7.969  0.3289  0.4054  0.7991
  148SAPE  H11R16322   6.955   3.357   7.934  0.7317  2.2027 -0.6424
  148SAPE  C21216323   7.095   3.326   8.091 -0.0896 -0.6957 -0.5992
  148SAPE  H12R16324   7.014   3.310   8.163  0.0421  2.6312  0.4726
  148SAPE  C21316325   7.240   3.302   8.143  0.4166 -0.4674  0.0670
  148SAPE  H13R16326   7.246   3.321   8.252 -2.3464  0.5064  0.1132
  148SAPE  H13S16327   7.315   3.372   8.099  0.3050  0.1363  0.8224
  148SAPE  C21416328   7.279   3.159   8.116  0.3438 -0.5280  0.8722
  148SAPE  H14R16329   7.194   3.088   8.119  1.4770 -1.9368  4.1689
  148SAPE  C21516330   7.402   3.111   8.101  0.0464 -0.7701  0.3607
  148SAPE  H15R16331   7.405   3.002   8.088 -0.5863 -1.1725  3.0966
  148SAPE  C21616332   7.536   3.186   8.110 -0.9985 -0.1532 -0.3426
  148SAPE  H16R16333   7.589   3.138   8.195 -2.8053  1.7499  2.0194
  148SAPE  H16S16334   7.530   3.293   8.138 -1.8197  0.3794 -2.3248
  148SAPE  C21716335   7.631   3.183   7.991  0.8245  0.0613 -0.1057
  148SAPE  H17R16336   7.570   3.137   7.910  0.8202 -0.1733  0.0294
  148SAPE  H17S16337   7.717   3.117   8.016  0.3689  0.2895  2.2116
  148SAPE  C21816338   7.685   3.320   7.960  0.4178 -0.5881  0.0936
  148SAPE  H18R16339   7.732   3.371   8.047  1.4133  0.4984 -1.0344
  148SAPE  H18S16340   7.604   3.390   7.932  1.1436  0.2241 -0.0468
  148SAPE  C21916341   7.782   3.318   7.836  0.3261  0.4807  0.2131
  148SAPE  H19R16342   7.853   3.233   7.844  0.1692  0.3517  0.2593
  148SAPE  H19S16343   7.838   3.413   7.828  0.9286 -0.0208 -2.3259
  148SAPE  C22016344   7.695   3.294   7.713 -0.1289  0.9840  0.8327
  148SAPE  H20R16345   7.748   3.325   7.621  1.1593  0.6433  1.4245
  148SAPE  H20S16346   7.599   3.349   7.715 -1.3850 -0.6931 -3.2969
  148SAPE  H20T16347   7.662   3.189   7.706 -1.9588  1.5615  0.3444
  148SAPE   C3316348   7.105   3.095   7.042  0.0202  0.4850 -1.1999
  148SAPE   H3X16349   7.102   3.205   7.059  0.8100  0.2870  0.5048
  148SAPE   H3Y16350   7.212   3.066   7.034  0.4440  2.0768 -1.6678
  148SAPE   C3416351   7.050   3.009   7.159 -0.6129  0.5178  0.4686
  148SAPE   H4X16352   7.075   2.903   7.141 -0.7662  0.5957 -0.2413
  148SAPE   H4Y16353   6.939   3.005   7.166 -0.6152  0.2326  0.2859
  148SAPE   C3516354   7.113   3.038   7.287 -0.4103  0.2544 -0.1913
  148SAPE   H5X16355   7.079   3.135   7.327 -0.0330 -0.4712  2.0581
  148SAPE   H5Y16356   7.224   3.043   7.291 -0.3521 -1.1456  1.0516
  148SAPE   C3616357   7.068   2.937   7.405  0.2781  0.0509  0.7829
  148SAPE   H6X16358   7.110   2.837   7.383 -0.3137 -0.2705  1.1013
  148SAPE   H6Y16359   6.962   2.908   7.388  0.2936 -0.3915  1.4291
  148SAPE   C3716360   7.099   2.998   7.540 -0.3648 -0.7506 -0.9040
  148SAPE   H7X16361   7.052   3.098   7.543  0.1288 -0.5267 -0.4703
  148SAPE   H7Y16362   7.208   3.011   7.560 -0.2895 -1.5488 -0.7450
  148SAPE   C3816363   7.035   2.916   7.659  0.2616 -0.4868 -0.1847
  148SAPE   H8X16364   7.097   2.824   7.667 -1.5157 -1.6804  0.4587
  148SAPE   H8Y16365   6.934   2.883   7.628  0.3102 -3.0007  1.9219
  148SAPE   C3916366   7.037   2.981   7.802  0.3519  0.5817 -0.0091
  148SAPE   H9X16367   6.993   3.083   7.803 -0.0738  0.4029  0.7881
  148SAPE   H9Y16368   7.140   2.981   7.844  1.2688 -0.6100 -2.1209
  148SAPE  C31016369   6.947   2.900   7.896 -0.0922 -0.1558  0.3415
  148SAPE  H10X16370   6.940   2.790   7.888 -3.1167 -0.1397  1.1974
  148SAPE  H10Y16371   6.845   2.939   7.873  0.0981 -0.1814 -0.5436
  148SAPE  C31116372   6.968   2.936   8.041 -0.3663  0.6172 -0.6305
  148SAPE  H11X16373   6.961   3.043   8.068 -0.0183  0.0640  1.9513
  148SAPE  H11Y16374   7.069   2.895   8.064 -0.8572 -0.7003 -0.7347
  148SAPE  C31216375   6.855   2.862   8.125  0.0935 -0.6592 -0.0072
  148SAPE  H12X16376   6.848   2.758   8.086  2.4861 -0.8040 -0.2303
  148SAPE  H12Y16377   6.757   2.909   8.102 -0.0356 -1.7500 -1.9283
  148SAPE  C31316378   6.878   2.855   8.281  0.3411  0.3038 -1.3164
  148SAPE  H13X16379   6.973   2.801   8.303 -0.4478 -0.4140  0.6315
  148SAPE  H13Y16380   6.800   2.793   8.330  0.1713  0.5728 -1.2449
  148SAPE  C31416381   6.885   2.989   8.339 -0.4919  0.5901 -0.0388
  148SAPE  H14X16382   6.785   3.038   8.339  0.1953  2.2632 -3.0855
  148SAPE  H14Y16383   6.941   3.063   8.278  0.2940 -3.3748 -4.7162
  148SAPE  C31516384   6.929   2.979   8.485 -0.2490  0.2664 -0.6661
  148SAPE  H15X16385   6.864   2.908   8.541 -0.1021  2.0858  2.0448
  148SAPE  H15Y16386   6.902   3.069   8.544  0.9672 -0.9030  1.8306
  148SAPE  C31616387   7.078   2.953   8.500  0.1084  0.1421 -0.1783
  148SAPE  H16X16388   7.138   3.023   8.436 -0.0814 -2.0400 -2.9458
  148SAPE  H16Y16389   7.106   2.850   8.470  0.3451 -0.2108  1.1771
  148SAPE  C31716390   7.122   2.955   8.648  0.0481  0.1395 -0.1836
  148SAPE  H17X16391   7.070   2.872   8.700  1.1626 -1.3100 -1.3313
  148SAPE  H17Y16392   7.078   3.048   8.691 -1.5692 -1.4866  1.8693
  148SAPE  C31816393   7.264   2.939   8.661 -0.5378  0.6243 -0.0211
  148SAPE  H18X16394   7.306   2.940   8.764  0.7434  1.0711 -0.5208
  148SAPE  H18Y16395   7.309   3.026   8.608 -3.4453  1.8614 -0.6327
  148SAPE  H18Z16396   7.284   2.840   8.615 -1.1781 -0.8529  2.6764
  149SAPE     N16397   1.163   0.649   6.340  0.1365 -0.3176  0.2261
  149SAPE   HN116398   1.081   0.611   6.392 -0.7379  1.2513  0.0561
  149SAPE   HN216399   1.189   0.569   6.279  0.1085  0.2165 -0.4880
  149SAPE   HN316400   1.229   0.659   6.420  0.2651 -4.1381  0.7939
  149SAPE   C1216401   1.131   0.779   6.272 -0.1754 -0.4865  0.1774
  149SAPE  H12A16402   1.021   0.773   6.260 -0.0921 -2.5318  0.1827
  149SAPE  H12B16403   1.180   0.784   6.172 -2.3456  0.0256 -0.9305
  149SAPE   C1116404   1.170   0.898   6.369  0.4001  0.0684  0.7506
  149SAPE  H11A16405   1.119   0.880   6.465  0.8638  0.8821  1.1602
  149SAPE  H11B16406   1.132   0.996   6.331 -2.1976 -0.9804  0.4033
  149SAPE     P16407   1.385   1.039   6.388 -0.4337  0.0716 -0.5594
  149SAPE   O1316408   1.532   1.024   6.405 -0.2431  0.2797 -0.1497
  149SAPE   O1416409   1.342   1.111   6.266  1.1003 -0.0613  0.3892
  149SAPE   O1216410   1.310   0.897   6.395  0.2123  0.2582 -0.0967
  149SAPE   O1116411   1.335   1.113   6.516 -0.9655  0.1031 -0.1219
  149SAPE    C116412   1.331   1.049   6.643 -0.7106 -0.7271 -0.0188
  149SAPE    HA16413   1.227   1.044   6.682  0.0973  0.2612  2.5004
  149SAPE    HB16414   1.374   0.946   6.638  0.1015 -0.3616 -0.8708
  149SAPE    C216415   1.404   1.143   6.743 -0.1981 -0.6348  0.0796
  149SAPE    HS16416   1.406   1.088   6.840  1.2517  1.8930  1.5857
  149SAPE   O2116417   1.334   1.267   6.766 -0.4882  0.3456  0.0265
  149SAPE   C2116418   1.231   1.264   6.836 -0.8603  0.2998 -0.1023
  149SAPE   O2216419   1.176   1.167   6.886  0.0344  0.5496  0.2415
  149SAPE   C2216420   1.187   1.414   6.857 -0.0629  0.0152 -0.3649
  149SAPE   H2R16421   1.270   1.482   6.887  0.3866 -0.1931 -1.1008
  149SAPE   H2S16422   1.150   1.448   6.758 -2.4089  0.0002  0.4323
  149SAPE    C316423   1.552   1.177   6.701 -0.1522 -0.5330 -0.1726
  149SAPE    HX16424   1.566   1.228   6.604 -1.1346  0.1780  0.0425
  149SAPE    HY16425   1.603   1.079   6.689  0.0563 -0.5757  0.9465
  149SAPE   O3116426   1.627   1.245   6.808  0.3085  0.6170  0.1787
  149SAPE   C3116427   1.591   1.369   6.823  0.0079 -0.0305  0.2178
  149SAPE   O3216428   1.533   1.443   6.741  0.4280  0.1729  0.1063
  149SAPE   C3216429   1.670   1.417   6.953  0.4380 -0.5358  0.8519
  149SAPE   H2X16430   1.736   1.500   6.922  0.2478 -0.1971  1.3333
  149SAPE   H2Y16431   1.732   1.335   6.996  0.0493  0.0329  2.5841
  149SAPE   C2316432   1.064   1.415   6.956 -0.1378 -0.0241  0.7454
  149SAPE   H3R16433   1.093   1.355   7.044  0.0894  1.1357  1.4793
  149SAPE   H3S16434   0.988   1.350   6.907  0.4714  0.4578 -0.9161
  149SAPE   C2416435   1.006   1.554   6.989 -0.4573  0.1811 -0.1859
  149SAPE   H4R16436   0.919   1.560   7.059 -0.4382  2.5236 -0.2861
  149SAPE   H4S16437   0.954   1.582   6.895 -4.0641 -2.7011  0.7085
  149SAPE   C2516438   1.123   1.645   7.025  0.2166 -0.3599 -0.2224
  149SAPE   H5R16439   1.190   1.684   6.947 -1.5801 -0.6439 -2.0166
  149SAPE   C2616440   1.149   1.663   7.154  0.3485 -0.0381  0.1969
  149SAPE   H6R16441   1.242   1.718   7.177 -0.1697 -0.3169  3.2858
  149SAPE   C2716442   1.081   1.609   7.281  0.2983 -1.1117  0.2913
  149SAPE   H7R16443   0.972   1.590   7.266  0.3945 -0.3110 -1.6423
  149SAPE   H7S16444   1.102   1.691   7.353  3.1753 -0.5661 -1.0534
  149SAPE   C2816445   1.159   1.496   7.342 -0.2407  0.2169 -0.3312
  149SAPE   H8R16446   1.266   1.477   7.322  0.6832  0.8654  3.2467
  149SAPE   C2916447   1.106   1.411   7.431  0.6403  0.1191 -0.4344
  149SAPE   H9R16448   1.170   1.333   7.476  1.0013 -0.7058 -2.2763
  149SAPE  C21016449   0.963   1.393   7.487 -0.4891  0.2058 -0.1820
  149SAPE  H10R16450   0.928   1.287   7.486  1.2162 -0.4488  1.8868
  149SAPE  H10S16451   0.888   1.441   7.421  0.6064  0.6519 -1.1112
  149SAPE  C21116452   0.961   1.446   7.625  0.3666  0.2339 -0.4157
  149SAPE  H11R16453   1.015   1.540   7.640 -0.4244  0.4140  1.5126
  149SAPE  C21216454   0.885   1.400   7.729  0.5589  0.0268  0.0843
  149SAPE  H12R16455   0.900   1.454   7.824  1.8242 -1.3625  0.7060
  149SAPE  C21316456   0.784   1.285   7.729  0.0889  0.4254 -0.2568
  149SAPE  H13R16457   0.830   1.218   7.804  1.2281  0.3811 -0.9548
  149SAPE  H13S16458   0.783   1.212   7.645 -1.1290  0.6885 -0.4956
  149SAPE  C21416459   0.649   1.347   7.756 -0.4358  0.2786 -0.0891
  149SAPE  H14R16460   0.611   1.408   7.673 -0.0578 -0.1536 -0.5853
  149SAPE  C21516461   0.581   1.352   7.870  0.1544  0.2593  0.1594
  149SAPE  H15R16462   0.480   1.394   7.872 -1.0836 -2.5255  1.3173
  149SAPE  C21616463   0.622   1.298   8.001  0.3442 -0.8190 -0.2038
  149SAPE  H16R16464   0.717   1.241   8.004  0.6809 -0.3417 -1.3762
  149SAPE  H16S16465   0.544   1.222   8.025 -0.9795  0.2742 -0.9150
  149SAPE  C21716466   0.605   1.391   8.122 -0.0375  0.1557 -0.0889
  149SAPE  H17R16467   0.527   1.461   8.086  0.8140 -0.4627 -3.5466
  149SAPE  H17S16468   0.697   1.454   8.122  0.8032 -0.8391 -3.3710
  149SAPE  C21816469   0.578   1.323   8.256  0.1415 -0.2068  0.9029
  149SAPE  H18R16470   0.669   1.269   8.288  1.5198  0.9139 -0.9057
  149SAPE  H18S16471   0.494   1.249   8.254  0.9847 -1.2132  1.8551
  149SAPE  C21916472   0.543   1.425   8.371 -0.4792 -0.7227  0.3001
  149SAPE  H19R16473   0.622   1.502   8.383 -1.6311  0.6694 -0.6735
  149SAPE  H19S16474   0.542   1.372   8.469  1.0919 -0.9911  0.1924
  149SAPE  C22016475   0.418   1.505   8.347  0.3125  0.3549 -0.0971
  149SAPE  H20R16476   0.408   1.597   8.409  0.9177  0.4165 -0.0846
  149SAPE  H20S16477   0.338   1.436   8.382 -0.3561  1.4485  0.5994
  149SAPE  H20T16478   0.414   1.524   8.238 -1.9466 -1.4851 -0.4112
  149SAPE   C3316479   1.564   1.474   7.053 -0.6987  0.0523  0.5346
  149SAPE   H3X16480   1.513   1.564   7.010  1.0094  1.0353  0.4945
  149SAPE   H3Y16481   1.618   1.516   7.140 -0.3928  0.4377  0.1593
  149SAPE   C3416482   1.464   1.372   7.112 -0.3515  0.1975 -0.7186
  149SAPE   H4X16483   1.395   1.317   7.045 -0.9870 -1.2856  1.0845
  149SAPE   H4Y16484   1.399   1.429   7.183  1.2976 -1.5245  2.3766
  149SAPE   C3516485   1.535   1.270   7.206 -0.0105  0.6566 -0.2610
  149SAPE   H5X16486   1.593   1.196   7.147  0.2246  1.3608 -0.9198
  149SAPE   H5Y16487   1.455   1.202   7.244 -0.8175  0.1198 -2.7426
  149SAPE   C3616488   1.613   1.320   7.325 -0.6797 -0.2337  0.4372
  149SAPE   H6X16489   1.545   1.390   7.378 -0.6615  2.0641 -2.2966
  149SAPE   H6Y16490   1.695   1.377   7.275 -1.1191  0.4506  0.4869
  149SAPE   C3716491   1.667   1.211   7.414  0.2393 -0.1321  0.9118
  149SAPE   H7X16492   1.773   1.197   7.384  0.0212  0.6685 -0.3357
  149SAPE   H7Y16493   1.619   1.114   7.392  1.2730 -0.5371  0.3839
  149SAPE   C3816494   1.658   1.254   7.559 -0.5939  0.4626 -0.5968
  149SAPE   H8X16495   1.672   1.364   7.555 -0.8205  0.4957 -0.5000
  149SAPE   H8Y16496   1.738   1.211   7.622  0.8458  3.4976 -0.1672
  149SAPE   C3916497   1.517   1.228   7.613 -0.4885 -0.5028  0.3916
  149SAPE   H9X16498   1.493   1.121   7.601 -2.3987 -0.0151 -0.6080
  149SAPE   H9Y16499   1.455   1.288   7.543  0.2464  1.2784  1.1897
  149SAPE  C31016500   1.505   1.297   7.749 -0.1884 -0.6120 -0.9216
  149SAPE  H10X16501   1.398   1.285   7.773  0.0935 -0.1698  0.6876
  149SAPE  H10Y16502   1.524   1.406   7.736 -0.5463 -0.6927 -2.3103
  149SAPE  C31116503   1.587   1.241   7.868 -0.2034 -0.4240  1.1196
  149SAPE  H11X16504   1.580   1.305   7.958 -2.6032  4.1022 -1.8762
  149SAPE  H11Y16505   1.694   1.257   7.842 -0.2655  1.7070  1.9452
  149SAPE  C31216506   1.539   1.095   7.897  0.1190  0.3830 -0.3815
  149SAPE  H12X16507   1.544   1.047   7.797  1.9610  3.5305 -1.9547
  149SAPE  H12Y16508   1.430   1.096   7.917  0.2688 -0.0303  0.5077
  149SAPE  C31316509   1.635   1.029   8.000 -0.0079 -0.3939  0.3175
  149SAPE  H13X16510   1.738   1.040   7.961 -1.2894 -0.4375 -3.4434
  149SAPE  H13Y16511   1.630   0.919   8.011  0.3046 -0.3316  1.1781
  149SAPE  C31416512   1.618   1.078   8.147  0.5589 -0.5463  0.2235
  149SAPE  H14X16513   1.636   0.988   8.209  0.5456 -0.6139  0.1297
  149SAPE  H14Y16514   1.520   1.126   8.170 -1.0151 -2.3754 -2.1023
  149SAPE  C31516515   1.734   1.161   8.199 -0.0371  0.3391  0.9449
  149SAPE  H15X16516   1.731   1.261   8.150  0.2747  0.3510  0.9484
  149SAPE  H15Y16517   1.828   1.105   8.182 -0.0010  0.6827 -0.0645
  149SAPE  C31616518   1.718   1.194   8.349 -0.1215 -0.4090 -0.2210
  149SAPE  H16X16519   1.812   1.239   8.387  0.0048 -1.9072  1.3662
  149SAPE  H16Y16520   1.716   1.110   8.421 -1.2845  0.3175  0.6276
  149SAPE  C31716521   1.596   1.292   8.378 -1.0666 -0.7712 -0.1638
  149SAPE  H17X16522   1.505   1.230   8.366 -0.7066 -1.3116 -0.1488
  149SAPE  H17Y16523   1.597   1.373   8.303 -3.0654  0.5290  1.1224
  149SAPE  C31816524   1.602   1.351   8.524  1.1496  1.2230  0.7466
  149SAPE  H18X16525   1.517   1.411   8.560  1.6467  1.2842  1.8584
  149SAPE  H18Y16526   1.698   1.407   8.526  1.3624  1.0488 -1.6645
  149SAPE  H18Z16527   1.599   1.256   8.582 -0.8819 -1.9840 -3.9374
  150SAPE     N16528   4.295   0.781   6.403 -0.1366 -0.9121 -0.2717
  150SAPE   HN116529   4.301   0.688   6.450  0.2421  0.3440  2.3691
  150SAPE   HN216530   4.202   0.784   6.358  0.3875 -2.9981 -1.6019
  150SAPE   HN316531   4.358   0.791   6.321  0.2498  2.5695  0.2840
  150SAPE   C1216532   4.311   0.903   6.500 -0.8523  0.7728  0.1380
  150SAPE  H12A16533   4.403   0.881   6.558 -1.3511  1.7268  1.3328
  150SAPE  H12B16534   4.220   0.918   6.562 -1.3825  0.2917 -0.5078
  150SAPE   C1116535   4.323   1.029   6.411  0.1191  0.2342  0.1409
  150SAPE  H11A16536   4.412   1.012   6.348 -0.0110  3.8836 -1.2408
  150SAPE  H11B16537   4.339   1.118   6.477 -0.9949 -0.6841  1.7357
  150SAPE     P16538   4.200   1.163   6.229 -0.3532  0.4676  0.0105
  150SAPE   O1316539   4.339   1.219   6.218  0.0451 -0.6072  0.1507
  150SAPE   O1416540   4.132   1.124   6.103  0.2425  0.1690 -0.4840
  150SAPE   O1216541   4.209   1.032   6.322 -0.3861 -0.3078  0.5187
  150SAPE   O1116542   4.111   1.265   6.304  0.0934  0.2402 -0.0310
  150SAPE    C116543   4.163   1.377   6.388 -0.1422  0.7641 -0.0279
  150SAPE    HA16544   4.268   1.405   6.362 -0.9943  2.7023 -1.6632
  150SAPE    HB16545   4.103   1.467   6.362 -1.0268  0.7044  1.6502
  150SAPE    C216546   4.143   1.347   6.541  0.3067 -0.3516 -0.4762
  150SAPE    HS16547   4.210   1.266   6.577 -0.0725  0.2670  1.8018
  150SAPE   O2116548   4.004   1.316   6.564 -0.2129 -0.1823 -0.0283
  150SAPE   C2116549   3.972   1.201   6.628 -0.4524 -0.6704 -0.9019
  150SAPE   O2216550   4.057   1.127   6.673  0.0447  0.9618 -0.3365
  150SAPE   C2216551   3.822   1.182   6.651 -0.4452 -0.4497  0.8534
  150SAPE   H2R16552   3.789   1.272   6.707  1.4087  0.8098  0.0172
  150SAPE   H2S16553   3.779   1.189   6.549 -1.2441 -1.5033  1.0993
  150SAPE    C316554   4.205   1.464   6.630  0.9546  0.1979 -0.4460
  150SAPE    HX16555   4.149   1.558   6.617  0.2441  0.0473  1.2516
  150SAPE    HY16556   4.307   1.488   6.595  0.9642 -0.1697 -0.6829
  150SAPE   O3116557   4.209   1.445   6.773  0.1774  0.6798 -0.6901
  150SAPE   C3116558   4.291   1.354   6.826 -0.2504  0.6113  0.3168
  150SAPE   O3216559   4.375   1.290   6.769 -0.0343  0.3271  0.3732
  150SAPE   C3216560   4.266   1.344   6.979 -0.4323 -0.0839  0.0139
  150SAPE   H2X16561   4.168   1.390   7.003 -0.3825 -0.8873  1.9969
  150SAPE   H2Y16562   4.347   1.395   7.035  0.9070  0.2082 -2.1145
  150SAPE   C2316563   3.775   1.050   6.718 -0.7627 -0.0327 -0.5384
  150SAPE   H3R16564   3.839   1.043   6.808  2.0876 -0.4201 -2.4374
  150SAPE   H3S16565   3.800   0.966   6.650 -0.6871  1.1545 -2.0482
  150SAPE   C2416566   3.627   1.037   6.741  0.3334 -0.2238  0.0438
  150SAPE   H4R16567   3.594   0.938   6.781  1.7200 -0.3217  1.0171
  150SAPE   H4S16568   3.572   1.049   6.645  0.5789  1.7187  0.1019
  150SAPE   C2516569   3.586   1.141   6.837  0.0584 -0.0973 -0.6699
  150SAPE   H5R16570   3.552   1.233   6.789  2.5433  1.6570  0.7249
  150SAPE   C2616571   3.583   1.140   6.975  0.0759  0.2154 -0.0863
  150SAPE   H6R16572   3.549   1.231   7.027 -2.7691  0.3507 -1.9393
  150SAPE   C2716573   3.602   1.021   7.066 -0.5172 -0.5184  0.1206
  150SAPE   H7R16574   3.686   1.033   7.138  1.9140 -2.7783 -2.1499
  150SAPE   H7S16575   3.626   0.936   6.999  0.5308 -1.3382  1.4904
  150SAPE   C2816576   3.480   0.983   7.144  0.6887 -0.0707 -0.0576
  150SAPE   H8R16577   3.421   0.909   7.088  0.8981 -0.7927  0.6559
  150SAPE   C2916578   3.437   1.017   7.270 -0.1042  0.5016 -0.5580
  150SAPE   H9R16579   3.337   0.985   7.301 -0.3085  1.6572  0.0398
  150SAPE  C21016580   3.509   1.096   7.376 -0.5796 -0.7432 -0.4486
  150SAPE  H10R16581   3.520   1.190   7.319 -1.8719  0.6258  1.4142
  150SAPE  H10S16582   3.607   1.053   7.403  0.0117  0.6361 -0.3224
  150SAPE  C21116583   3.421   1.128   7.492 -0.2192 -0.4350  0.4922
  150SAPE  H11R16584   3.355   1.215   7.474 -1.0700 -1.0836  0.4064
  150SAPE  C21216585   3.409   1.060   7.612 -0.7705  0.4193 -0.5549
  150SAPE  H12R16586   3.344   1.103   7.690 -0.5355  0.4599 -0.3820
  150SAPE  C21316587   3.483   0.932   7.652 -0.0169 -0.2879  0.2707
  150SAPE  H13R16588   3.559   0.947   7.732 -0.7926  0.1375  0.9479
  150SAPE  H13S16589   3.534   0.898   7.559 -0.2327  0.6902 -0.2208
  150SAPE  C21416590   3.382   0.836   7.693 -0.3230  0.6194 -0.1825
  150SAPE  H14R16591   3.322   0.786   7.616  0.0731 -1.3945  0.7658
  150SAPE  C21516592   3.368   0.779   7.812  0.1574 -0.2482 -0.6948
  150SAPE  H15R16593   3.295   0.698   7.825 -0.2139  0.3705  1.4917
  150SAPE  C21616594   3.449   0.797   7.934 -0.3602 -1.0236  0.0673
  150SAPE  H16R16595   3.553   0.822   7.906 -0.5649  1.1913  1.0959
  150SAPE  H16S16596   3.452   0.705   7.997  0.2265 -1.2365 -0.2675
  150SAPE  C21716597   3.407   0.914   8.028 -0.4462  0.1252  1.3746
  150SAPE  H17R16598   3.409   1.009   7.972  0.3458  0.0974  1.3510
  150SAPE  H17S16599   3.478   0.936   8.110  0.9340  3.0070 -0.4419
  150SAPE  C21816600   3.267   0.886   8.100 -0.1954  0.3793 -0.3704
  150SAPE  H18R16601   3.288   0.789   8.149  2.1788  1.0471  0.0694
  150SAPE  H18S16602   3.177   0.883   8.035 -1.0127 -1.3449  0.7592
  150SAPE  C21916603   3.237   0.985   8.215 -0.1668 -0.2415  0.0469
  150SAPE  H19R16604   3.214   1.082   8.167  1.9126 -0.2892 -1.1968
  150SAPE  H19S16605   3.325   1.002   8.280 -1.6416  1.9559  1.5938
  150SAPE  C22016606   3.118   0.929   8.293 -0.3035 -0.5326  0.2121
  150SAPE  H20R16607   3.040   0.894   8.222 -0.4273 -1.5179  0.8073
  150SAPE  H20S16608   3.079   1.000   8.369 -1.6180 -1.3712  0.3574
  150SAPE  H20T16609   3.146   0.833   8.342 -0.1909 -0.0952  1.0302
  150SAPE   C3316610   4.266   1.192   7.024  0.6925  0.1577  0.1815
  150SAPE   H3X16611   4.328   1.176   7.115 -1.5063  1.2936  1.9639
  150SAPE   H3Y16612   4.321   1.125   6.953  0.2311 -1.6013  1.4098
  150SAPE   C3416613   4.123   1.140   7.043 -0.2664 -0.2453 -0.9952
  150SAPE   H4X16614   4.125   1.029   7.048  5.2897 -0.5363 -2.3837
  150SAPE   H4Y16615   4.068   1.150   6.947 -1.2562 -1.7748 -0.6160
  150SAPE   C3516616   4.056   1.204   7.165  0.2719 -0.4902  0.6047
  150SAPE   H5X16617   4.050   1.314   7.152 -0.5199 -0.5267  0.5940
  150SAPE   H5Y16618   4.117   1.179   7.254  1.4313 -0.6290 -0.2012
  150SAPE   C3616619   3.918   1.152   7.192  0.0889  0.1323  0.0805
  150SAPE   H6X16620   3.920   1.041   7.204  1.4318  0.0382 -0.7159
  150SAPE   H6Y16621   3.868   1.163   7.094  1.4488 -1.3382 -0.8313
  150SAPE   C3716622   3.847   1.218   7.310 -0.9668 -0.1473 -0.0864
  150SAPE   H7X16623   3.741   1.185   7.319 -1.0616  0.6027  2.5638
  150SAPE   H7Y16624   3.846   1.326   7.283 -1.3431  0.2552  1.4250
  150SAPE   C3816625   3.900   1.183   7.448  0.1576  0.3936 -0.7528
  150SAPE   H8X16626   4.002   1.225   7.464 -0.6568  1.8791  0.7968
  150SAPE   H8Y16627   3.906   1.072   7.452  4.1647  0.5009  0.9920
  150SAPE   C3916628   3.802   1.231   7.560  0.0788  0.5811  0.3436
  150SAPE   H9X16629   3.704   1.178   7.557  0.6261 -0.6143  2.0259
  150SAPE   H9Y16630   3.792   1.342   7.563  1.9884  0.8529 -1.4536
  150SAPE  C31016631   3.857   1.186   7.703 -0.0364  0.7870  0.3861
  150SAPE  H10X16632   3.941   1.252   7.734  1.8856 -1.6301  0.6065
  150SAPE  H10Y16633   3.889   1.080   7.696 -1.3090  0.3426  0.8468
  150SAPE  C31116634   3.756   1.200   7.823 -0.0555 -0.2048 -0.1282
  150SAPE  H11X16635   3.687   1.115   7.808  1.2909 -1.5781  1.0651
  150SAPE  H11Y16636   3.707   1.299   7.814 -1.6604 -1.0695 -1.4354
  150SAPE  C31216637   3.827   1.181   7.957  1.1654  0.0489 -0.1464
  150SAPE  H12X16638   3.877   1.280   7.966  1.7154  0.1558 -3.2878
  150SAPE  H12Y16639   3.894   1.092   7.953 -0.2254 -1.0784  0.7105
  150SAPE  C31316640   3.724   1.147   8.076 -0.0115 -0.6967  0.5960
  150SAPE  H13X16641   3.676   1.053   8.041 -0.7793 -0.2784  0.5000
  150SAPE  H13Y16642   3.644   1.224   8.079  1.2114  0.6445 -0.0244
  150SAPE  C31416643   3.781   1.143   8.216  0.0010  0.0718  0.3516
  150SAPE  H14X16644   3.705   1.136   8.297  0.9294  0.5325  1.2943
  150SAPE  H14Y16645   3.825   1.243   8.239  1.2977  0.0045 -1.6682
  150SAPE  C31516646   3.895   1.048   8.247 -0.1004 -0.2548 -0.7460
  150SAPE  H15X16647   3.972   1.083   8.176  0.0271  1.8198  0.3429
  150SAPE  H15Y16648   3.859   0.945   8.223 -1.8915  0.4005 -1.0554
  150SAPE  C31616649   3.957   1.034   8.385  0.2355 -0.4735 -0.7200
  150SAPE  H16X16650   4.016   0.940   8.384 -0.0389 -0.8007  2.5942
  150SAPE  H16Y16651   3.883   1.022   8.467 -1.4566 -0.4423 -2.1758
  150SAPE  C31716652   4.053   1.142   8.427 -0.7529 -0.6416  0.7588
  150SAPE  H17X16653   4.095   1.116   8.527  1.2759  0.5918  0.2703
  150SAPE  H17Y16654   4.003   1.238   8.454  1.2104  0.2349  1.4244
  150SAPE  C31816655   4.186   1.156   8.340  0.8410 -0.1209  0.3326
  150SAPE  H18X16656   4.245   1.062   8.345  1.1730  0.1240  1.1082
  150SAPE  H18Y16657   4.244   1.236   8.391 -1.5311  1.8213  0.2041
  150SAPE  H18Z16658   4.161   1.178   8.234  2.2966  0.6010  0.1197
  151SAPE     N16659   2.353   0.998   6.223  0.7040  0.2681  0.7190
  151SAPE   HN116660   2.263   1.050   6.218 -0.0544 -1.0589 -0.4378
  151SAPE   HN216661   2.426   1.072   6.232 -0.5202  1.6916 -0.5470
  151SAPE   HN316662   2.376   0.953   6.133 -2.2155  1.6190 -0.8367
  151SAPE   C1216663   2.345   0.901   6.338  0.1764 -0.1698  0.4464
  151SAPE  H12A16664   2.253   0.842   6.323  0.5486 -0.8390  0.7349
  151SAPE  H12B16665   2.343   0.958   6.434  0.8397 -2.2865  1.7831
  151SAPE   C1116666   2.463   0.799   6.345 -0.3307  0.1786 -0.6082
  151SAPE  H11A16667   2.474   0.755   6.243  1.5116  0.2196 -0.4655
  151SAPE  H11B16668   2.438   0.717   6.416  0.5323 -1.2135 -1.8421
  151SAPE     P16669   2.726   0.799   6.371 -0.3115  0.0967 -0.1615
  151SAPE   O1316670   2.719   0.706   6.254 -0.1089  0.7493 -0.7921
  151SAPE   O1416671   2.833   0.893   6.355 -0.1190 -0.6310 -0.1027
  151SAPE   O1216672   2.584   0.864   6.387 -0.9213 -0.0932  0.0582
  151SAPE   O1116673   2.757   0.709   6.504 -0.1711 -0.0898  0.1218
  151SAPE    C116674   2.720   0.752   6.633 -0.5888 -0.5415  0.3951
  151SAPE    HA16675   2.638   0.827   6.635 -0.0907  0.0136  0.4545
  151SAPE    HB16676   2.688   0.665   6.693 -0.9602 -1.7254 -1.4330
  151SAPE    C216677   2.826   0.836   6.699  0.6545 -0.1289 -0.4472
  151SAPE    HS16678   2.849   0.927   6.639  4.0980 -0.4520  0.1603
  151SAPE   O2116679   2.946   0.762   6.718 -0.3705  0.2910  0.0656
  151SAPE   C2116680   3.060   0.838   6.714  0.2689 -0.1021 -0.1517
  151SAPE   O2216681   3.064   0.946   6.659 -0.3244 -0.3289  0.3936
  151SAPE   C2216682   3.175   0.754   6.780  0.7090 -0.7882  0.2375
  151SAPE   H2R16683   3.171   0.785   6.886 -0.8455 -0.6628  0.1537
  151SAPE   H2S16684   3.131   0.652   6.771 -2.5827  0.5674 -0.3831
  151SAPE    C316685   2.770   0.889   6.837 -0.1093  0.0976  0.4214
  151SAPE    HX16686   2.676   0.943   6.811  0.1900  0.2511 -0.3622
  151SAPE    HY16687   2.842   0.960   6.884 -0.3094 -1.4053  3.2416
  151SAPE   O3116688   2.733   0.777   6.920  0.0912  0.3500 -0.2181
  151SAPE   C3116689   2.830   0.729   7.005  0.1817 -0.0260 -0.0211
  151SAPE   O3216690   2.939   0.780   7.023  0.1758  0.2666 -0.4281
  151SAPE   C3216691   2.767   0.606   7.068  0.2630  0.3909 -0.4325
  151SAPE   H2X16692   2.722   0.540   6.990 -1.9294  2.5098 -1.0795
  151SAPE   H2Y16693   2.683   0.652   7.124  0.7051  1.5368 -0.6892
  151SAPE   C2316694   3.310   0.786   6.711  0.4332  0.6931 -0.1755
  151SAPE   H3R16695   3.344   0.892   6.708  5.3946 -0.6030 -0.0245
  151SAPE   H3S16696   3.311   0.746   6.607 -0.1747  1.1429 -0.3535
  151SAPE   C2416697   3.421   0.712   6.798 -0.4653  0.3812 -0.3312
  151SAPE   H4R16698   3.413   0.759   6.899  0.9314 -0.7328  0.3299
  151SAPE   H4S16699   3.522   0.742   6.764 -0.1322  2.4963  2.2166
  151SAPE   C2516700   3.393   0.562   6.806 -0.2463 -0.6456 -0.4294
  151SAPE   H5R16701   3.358   0.517   6.711  1.0973 -0.5400 -1.0049
  151SAPE   C2616702   3.372   0.504   6.927 -0.5873  0.1640  0.7024
  151SAPE   H6R16703   3.347   0.398   6.937  1.2069 -0.2390  1.0816
  151SAPE   C2716704   3.384   0.566   7.068 -1.0656 -0.5722 -0.3230
  151SAPE   H7R16705   3.457   0.649   7.055 -0.5234 -1.2979 -2.0889
  151SAPE   H7S16706   3.430   0.492   7.137 -0.8969 -0.3760 -0.2213
  151SAPE   C2816707   3.259   0.625   7.132  0.4690  0.1117 -0.0739
  151SAPE   H8R16708   3.179   0.642   7.059  1.0173  1.8804 -0.3333
  151SAPE   C2916709   3.218   0.619   7.252  0.3101  0.0487 -0.3216
  151SAPE   H9R16710   3.119   0.661   7.274  0.9356  0.2677  2.5055
  151SAPE  C21016711   3.281   0.557   7.376 -0.0100 -0.0871 -0.9860
  151SAPE  H10R16712   3.225   0.608   7.457  0.7635  1.6613 -1.5033
  151SAPE  H10S16713   3.387   0.590   7.380 -0.0049  0.0063 -1.8117
  151SAPE  C21116714   3.251   0.415   7.386  0.1848  0.8038  1.1665
  151SAPE  H11R16715   3.170   0.385   7.318 -0.6679  0.2980  2.3617
  151SAPE  C21216716   3.319   0.326   7.460  0.7416 -0.0861 -0.2426
  151SAPE  H12R16717   3.295   0.219   7.452  1.1846 -0.2953  1.1193
  151SAPE  C21316718   3.440   0.358   7.552  1.2591 -0.1266  0.2510
  151SAPE  H13R16719   3.424   0.448   7.616  1.7569 -1.3129  2.1052
  151SAPE  H13S16720   3.529   0.392   7.496  2.1716  0.6234  2.0636
  151SAPE  C21416721   3.458   0.244   7.645  0.2223 -0.2358  0.7194
  151SAPE  H14R16722   3.539   0.169   7.635 -0.2432 -1.1285  3.0271
  151SAPE  C21516723   3.376   0.217   7.744  0.9377  0.1456  0.5166
  151SAPE  H15R16724   3.399   0.138   7.817  0.1076  1.3933  2.2021
  151SAPE  C21616725   3.250   0.291   7.791  0.5640  0.3030 -0.0179
  151SAPE  H16R16726   3.163   0.259   7.731  1.5996  0.1405 -1.4690
  151SAPE  H16S16727   3.268   0.401   7.782  0.4222  0.5626  2.1840
  151SAPE  C21716728   3.225   0.262   7.936  0.3731 -0.5280  0.2050
  151SAPE  H17R16729   3.242   0.156   7.966 -0.4297 -0.8801 -0.5376
  151SAPE  H17S16730   3.118   0.290   7.953 -0.7815 -3.5675 -1.2340
  151SAPE  C21816731   3.300   0.355   8.036  0.9922 -0.2591  0.6472
  151SAPE  H18R16732   3.285   0.462   8.009  0.4941 -0.1766  1.2399
  151SAPE  H18S16733   3.406   0.337   8.008  0.8064  1.5629 -1.5390
  151SAPE  C21916734   3.266   0.329   8.183  0.5604 -0.2380 -0.0248
  151SAPE  H19R16735   3.272   0.218   8.195 -0.5599 -0.2545  0.5141
  151SAPE  H19S16736   3.157   0.347   8.178  0.6857  0.2624 -1.5530
  151SAPE  C22016737   3.335   0.412   8.289 -0.6204 -0.2395 -0.2380
  151SAPE  H20R16738   3.444   0.392   8.293  0.0451  2.7411 -0.7840
  151SAPE  H20S16739   3.329   0.522   8.276 -2.5364  0.0802  2.3759
  151SAPE  H20T16740   3.291   0.394   8.390  0.3756  1.7691  0.6091
  151SAPE   C3316741   2.851   0.512   7.165 -0.1468 -0.8943  0.0124
  151SAPE   H3X16742   2.947   0.563   7.190  0.5481 -1.2340 -1.8099
  151SAPE   H3Y16743   2.878   0.413   7.122  0.3438 -0.8513  0.2132
  151SAPE   C3416744   2.774   0.467   7.295 -1.2221  0.1207  0.4239
  151SAPE   H4X16745   2.673   0.439   7.258 -0.2963  0.0958 -2.3427
  151SAPE   H4Y16746   2.766   0.549   7.369  0.7446  1.3765 -0.6858
  151SAPE   C3516747   2.841   0.346   7.365  0.0357 -0.0220  0.0690
  151SAPE   H5X16748   2.951   0.364   7.369  0.2291 -0.0311 -2.7957
  151SAPE   H5Y16749   2.839   0.248   7.313  4.6214 -2.7608  4.1765
  151SAPE   C3616750   2.777   0.316   7.504 -0.2474  0.0865  0.0882
  151SAPE   H6X16751   2.669   0.293   7.489 -0.3527 -0.4601  1.5510
  151SAPE   H6Y16752   2.792   0.408   7.565  1.2079 -1.7858  2.7387
  151SAPE   C3716753   2.853   0.203   7.567 -0.0260  1.3299 -0.1444
  151SAPE   H7X16754   2.962   0.205   7.547  0.2829  0.4664  1.3030
  151SAPE   H7Y16755   2.829   0.097   7.543  1.0233  0.9581  0.4152
  151SAPE   C3816756   2.840   0.211   7.719 -0.2358  0.2690 -0.6470
  151SAPE   H8X16757   2.910   0.279   7.772 -1.1700  0.0716  0.9056
  151SAPE   H8Y16758   2.860   0.110   7.759  0.1449  0.0174 -1.4517
  151SAPE   C3916759   2.691   0.233   7.764 -1.0983 -0.1230  0.4788
  151SAPE   H9X16760   2.640   0.155   7.704 -0.4286 -0.6037  0.5283
  151SAPE   H9Y16761   2.664   0.336   7.730 -0.7963 -0.0363  0.5049
  151SAPE  C31016762   2.652   0.219   7.912 -0.1639 -0.7107 -0.2014
  151SAPE  H10X16763   2.651   0.110   7.931 -1.1778 -1.2383 -2.8606
  151SAPE  H10Y16764   2.546   0.249   7.931 -0.2876 -1.9419  1.2598
  151SAPE  C31116765   2.735   0.312   8.005 -0.4912  0.5820 -0.0717
  151SAPE  H11X16766   2.730   0.417   7.970  1.5984  0.7198 -0.1027
  151SAPE  H11Y16767   2.838   0.270   7.993 -1.6202 -2.2796 -0.7731
  151SAPE  C31216768   2.669   0.302   8.145  0.0020 -0.1010 -0.3238
  151SAPE  H12X16769   2.620   0.202   8.148  0.3435 -0.2594  0.0200
  151SAPE  H12Y16770   2.580   0.367   8.164 -0.5441 -0.9268 -0.0157
  151SAPE  C31316771   2.760   0.307   8.279 -0.3540  0.2561  0.2844
  151SAPE  H13X16772   2.773   0.413   8.312 -0.7197  0.4516 -0.1912
  151SAPE  H13Y16773   2.863   0.271   8.258  0.9199  2.0134  2.8095
  151SAPE  C31416774   2.694   0.227   8.390  0.7150 -0.2109 -0.2289
  151SAPE  H14X16775   2.682   0.122   8.355 -0.5639 -0.4766  0.8988
  151SAPE  H14Y16776   2.598   0.278   8.413  2.3815  4.2933 -2.1864
  151SAPE  C31516777   2.774   0.206   8.520  0.9605 -0.0029 -0.3305
  151SAPE  H15X16778   2.799   0.305   8.565 -0.1868  0.3012 -0.3328
  151SAPE  H15Y16779   2.871   0.159   8.494 -0.1610 -3.1450  0.7268
  151SAPE  C31616780   2.697   0.134   8.624  0.3552 -0.2476  0.3776
  151SAPE  H16X16781   2.599   0.179   8.652 -0.4659 -0.3908 -2.1042
  151SAPE  H16Y16782   2.766   0.153   8.710  1.8990 -1.5995 -0.5057
  151SAPE  C31716783   2.670  -0.017   8.597  0.1650  0.5331  0.5629
  151SAPE  H17X16784   2.762  -0.068   8.561  1.1261  0.9329  2.3303
  151SAPE  H17Y16785   2.597  -0.032   8.514 -0.0171 -0.1214  0.8326
  151SAPE  C31816786   2.609  -0.094   8.719  0.3149 -0.0218 -0.3368
  151SAPE  H18X16787   2.511  -0.052   8.752  0.9299  1.7810 -0.6891
  151SAPE  H18Y16788   2.677  -0.087   8.807  0.0376  0.2647 -0.1427
  151SAPE  H18Z16789   2.604  -0.202   8.694  1.1055  0.4683 -2.8847
  152SAPE     N16790   4.563   1.169   6.032 -0.0113 -0.2678 -0.6276
  152SAPE   HN116791   4.630   1.232   6.081 -2.0939  0.6709  1.2150
  152SAPE   HN216792   4.481   1.152   6.094 -0.5289 -2.2996 -1.7912
  152SAPE   HN316793   4.611   1.080   6.009 -0.2986 -0.3544 -0.8933
  152SAPE   C1216794   4.532   1.237   5.899  0.7915  0.5750  0.0670
  152SAPE  H12A16795   4.484   1.152   5.846  2.5514 -1.5491  1.7127
  152SAPE  H12B16796   4.628   1.257   5.847  0.7535 -1.0415 -0.6906
  152SAPE   C1116797   4.440   1.354   5.913  0.8761 -0.3386 -0.3927
  152SAPE  H11A16798   4.332   1.327   5.914  0.2800  1.8096 -1.1081
  152SAPE  H11B16799   4.460   1.408   5.819  1.4380 -0.2580 -0.2307
  152SAPE     P16800   4.446   1.594   6.027 -0.4512  0.0053 -0.0879
  152SAPE   O1316801   4.556   1.662   5.950  0.0575 -0.0131 -0.6722
  152SAPE   O1416802   4.312   1.634   5.993  0.6332  0.1301 -0.4739
  152SAPE   O1216803   4.467   1.440   6.023 -0.2822 -0.4094  0.2674
  152SAPE   O1116804   4.478   1.618   6.182 -0.1664  0.2604 -0.1211
  152SAPE    C116805   4.550   1.725   6.239  0.2026  0.6955 -0.4510
  152SAPE    HA16806   4.640   1.678   6.286 -0.8140  0.8525  1.7560
  152SAPE    HB16807   4.576   1.804   6.166  0.8421 -0.5056 -1.5599
  152SAPE    C216808   4.466   1.786   6.357 -0.0801 -0.7917  0.0875
  152SAPE    HS16809   4.498   1.892   6.371 -0.3282 -0.9560  2.2502
  152SAPE   O2116810   4.488   1.708   6.471 -0.2819  0.2077  0.2377
  152SAPE   C2116811   4.614   1.718   6.519 -0.6747  0.7939 -0.1168
  152SAPE   O2216812   4.698   1.798   6.484  0.0526 -0.0420 -0.1033
  152SAPE   C2216813   4.618   1.619   6.635 -0.0968 -0.7357 -0.2431
  152SAPE   H2R16814   4.516   1.624   6.679  0.3039 -2.8507  1.0945
  152SAPE   H2S16815   4.623   1.517   6.593 -1.0608 -1.4098  1.1881
  152SAPE    C316816   4.317   1.787   6.321 -0.1907 -0.4305 -0.8392
  152SAPE    HX16817   4.281   1.682   6.321  0.4177 -0.6485 -0.4705
  152SAPE    HY16818   4.316   1.823   6.216  1.9170  2.1331 -0.1003
  152SAPE   O3116819   4.235   1.871   6.408  0.1438 -0.0818 -0.2921
  152SAPE   C3116820   4.130   1.807   6.462  0.2805 -0.5405 -0.2558
  152SAPE   O3216821   4.095   1.694   6.434  0.5443 -0.4158  0.0240
  152SAPE   C3216822   4.049   1.900   6.556 -0.0771  0.1806  0.9388
  152SAPE   H2X16823   3.964   1.937   6.494 -0.1873 -0.7832  0.5050
  152SAPE   H2Y16824   4.112   1.986   6.589  0.4928  0.2123 -0.1847
  152SAPE   C2316825   4.727   1.637   6.743 -0.0288 -0.2580 -0.4151
  152SAPE   H3R16826   4.711   1.737   6.789 -0.6260 -1.9186  3.3483
  152SAPE   H3S16827   4.832   1.652   6.708  0.8684  2.2208  2.7858
  152SAPE   C2416828   4.712   1.539   6.863  0.3543  0.4576 -1.1988
  152SAPE   H4R16829   4.691   1.440   6.818  3.0988 -1.7729  1.9909
  152SAPE   H4S16830   4.613   1.569   6.905  0.4365 -0.3568 -0.4025
  152SAPE   C2516831   4.821   1.527   6.966  0.2407  0.7764  0.2034
  152SAPE   H5R16832   4.874   1.622   6.982  1.2336  0.0158  1.5802
  152SAPE   C2616833   4.858   1.412   7.026 -0.7905 -0.7302  0.5266
  152SAPE   H6R16834   4.947   1.406   7.090  1.9629  1.8082 -2.7135
  152SAPE   C2716835   4.795   1.275   7.009 -0.4788  0.5730 -0.7640
  152SAPE   H7R16836   4.880   1.203   7.005 -0.3086  0.7371 -0.2241
  152SAPE   H7S16837   4.728   1.265   6.921 -1.4373 -1.3448  0.1064
  152SAPE   C2816838   4.712   1.232   7.127  0.0723 -0.0163 -0.2221
  152SAPE   H8R16839   4.619   1.286   7.146  0.5787  0.2467  1.7309
  152SAPE   C2916840   4.735   1.125   7.202  0.1458 -0.4796  0.1861
  152SAPE   H9R16841   4.661   1.113   7.282  0.8891 -2.9057  0.5848
  152SAPE  C21016842   4.838   1.021   7.190 -0.9875  0.0008 -0.1820
  152SAPE  H10R16843   4.940   1.061   7.204 -0.3468 -1.1567 -1.2882
  152SAPE  H10S16844   4.834   0.971   7.090 -0.8469 -3.2135  1.3108
  152SAPE  C21116845   4.805   0.916   7.291 -0.1193 -0.0077 -0.7860
  152SAPE  H11R16846   4.734   0.839   7.258 -0.5239 -0.3096  0.6970
  152SAPE  C21216847   4.849   0.909   7.420 -0.7670  0.2354 -0.0755
  152SAPE  H12R16848   4.823   0.818   7.478  1.8972  1.0674  2.6540
  152SAPE  C21316849   4.952   0.996   7.483 -0.5139  0.0823  0.2669
  152SAPE  H13R16850   4.992   1.064   7.405 -1.3221  0.7872  0.4528
  152SAPE  H13S16851   5.035   0.935   7.525 -1.1936 -0.2723  1.1250
  152SAPE  C21416852   4.902   1.089   7.584  0.1940  0.1905 -1.2873
  152SAPE  H14R16853   4.886   1.189   7.541 -0.5769  0.1844 -1.0282
  152SAPE  C21516854   4.869   1.067   7.712  0.0923 -0.0533 -0.2523
  152SAPE  H15R16855   4.842   1.149   7.781  0.3626 -0.0736 -0.1216
  152SAPE  C21616856   4.882   0.940   7.792  0.0977 -0.0199  0.5978
  152SAPE  H16R16857   4.982   0.936   7.841  0.4488 -3.2081 -0.1978
  152SAPE  H16S16858   4.876   0.854   7.723 -0.7900  0.1779  0.4218
  152SAPE  C21716859   4.767   0.935   7.897  0.4098 -0.4230 -0.4176
  152SAPE  H17R16860   4.759   0.831   7.936 -1.8697  0.6534  2.2585
  152SAPE  H17S16861   4.667   0.948   7.852  0.4115  1.0970 -0.0463
  152SAPE  C21816862   4.785   1.025   8.023  0.4908  0.0310 -0.1506
  152SAPE  H18R16863   4.787   1.133   7.999  1.2526  0.1909  0.6063
  152SAPE  H18S16864   4.887   0.996   8.054  0.0758 -1.6943 -0.2911
  152SAPE  C21916865   4.689   1.001   8.140  0.3724 -0.3788 -0.5841
  152SAPE  H19R16866   4.584   1.009   8.107  0.7428  0.8708 -1.5427
  152SAPE  H19S16867   4.704   1.075   8.222 -1.2060  0.0796 -0.6836
  152SAPE  C22016868   4.705   0.862   8.203 -0.1420  0.2392 -0.3236
  152SAPE  H20R16869   4.806   0.847   8.248 -0.8435 -2.7933  0.4898
  152SAPE  H20S16870   4.692   0.790   8.120  0.6833  2.2438 -2.2869
  152SAPE  H20T16871   4.641   0.844   8.292  0.5371 -0.8710 -0.0371
  152SAPE   C3316872   3.991   1.832   6.683  1.0230 -0.1934  0.5629
  152SAPE   H3X16873   3.942   1.736   6.655 -2.5300  1.3315  1.0315
  152SAPE   H3Y16874   3.902   1.887   6.720  0.0404 -0.5152 -1.2201
  152SAPE   C3416875   4.087   1.809   6.795  0.3759  0.1952 -0.0309
  152SAPE   H4X16876   4.121   1.904   6.839  1.3776  0.6380 -1.6866
  152SAPE   H4Y16877   4.168   1.746   6.751 -0.5689 -0.5592 -0.7420
  152SAPE   C3516878   4.025   1.719   6.913 -0.4806 -0.7651  1.0744
  152SAPE   H5X16879   3.994   1.621   6.870 -2.7090  0.9952 -1.7747
  152SAPE   H5Y16880   3.924   1.756   6.940  0.1805  0.3867  2.0903
  152SAPE   C3616881   4.121   1.699   7.036  0.1987  0.3397  0.4105
  152SAPE   H6X16882   4.162   1.795   7.072  1.1196 -1.1280  3.5924
  152SAPE   H6Y16883   4.210   1.642   7.000  1.1856  2.7613 -1.2574
  152SAPE   C3716884   4.043   1.632   7.151 -0.1455  0.0826  0.3616
  152SAPE   H7X16885   4.030   1.524   7.126 -2.1599  1.0727 -3.7739
  152SAPE   H7Y16886   3.940   1.674   7.140 -0.4935 -1.1387 -1.7369
  152SAPE   C3816887   4.098   1.648   7.296 -0.4012 -0.0735  0.8852
  152SAPE   H8X16888   4.151   1.745   7.304 -1.1370  0.4326 -0.0839
  152SAPE   H8Y16889   4.189   1.584   7.305  1.6198  2.7703  2.3593
  152SAPE   C3916890   4.021   1.605   7.424  0.3571  0.0203  0.8664
  152SAPE   H9X16891   4.003   1.496   7.410 -0.7627  0.3529 -0.4829
  152SAPE   H9Y16892   3.925   1.661   7.420  0.3456 -0.0895 -0.8641
  152SAPE  C31016893   4.104   1.611   7.557  0.2379  0.0112 -0.0558
  152SAPE  H10X16894   4.138   1.715   7.577  2.5826 -1.0310  1.8997
  152SAPE  H10Y16895   4.195   1.552   7.533 -0.7897 -0.5093 -3.1824
  152SAPE  C31116896   4.045   1.536   7.670 -0.1572 -0.3519  0.1044
  152SAPE  H11X16897   4.068   1.431   7.640 -0.9272 -0.7630  0.9095
  152SAPE  H11Y16898   3.936   1.550   7.685 -1.1154 -2.4531 -3.6693
  152SAPE  C31216899   4.137   1.568   7.789 -0.2458 -0.4470 -0.0743
  152SAPE  H12X16900   4.134   1.676   7.811  1.9124 -0.3951  0.1400
  152SAPE  H12Y16901   4.240   1.530   7.777  0.1245  0.4675  0.1548
  152SAPE  C31316902   4.077   1.506   7.920  0.3347  0.0662 -0.1692
  152SAPE  H13X16903   4.163   1.510   7.989 -0.9095  1.1381  1.3950
  152SAPE  H13Y16904   4.047   1.401   7.897  0.6162  0.3151 -1.7985
  152SAPE  C31416905   3.955   1.570   7.989  0.3715  0.1337  0.2291
  152SAPE  H14X16906   3.876   1.574   7.911  1.2965  3.1302 -0.7112
  152SAPE  H14Y16907   3.979   1.678   7.999 -2.5619  1.1434 -2.1493
  152SAPE  C31516908   3.904   1.507   8.121  0.5466 -0.5714  0.4131
  152SAPE  H15X16909   3.989   1.479   8.187 -0.0357 -0.9773  1.0016
  152SAPE  H15Y16910   3.841   1.416   8.113  1.0653 -1.0309  1.3366
  152SAPE  C31616911   3.830   1.610   8.202  0.6501 -0.0299  0.1188
  152SAPE  H16X16912   3.736   1.647   8.156 -1.1100 -0.8711  2.7952
  152SAPE  H16Y16913   3.897   1.698   8.212 -0.1530  0.5123  0.8680
  152SAPE  C31716914   3.807   1.560   8.348 -0.0906  0.3720  0.0186
  152SAPE  H17X16915   3.765   1.458   8.339  2.1349 -0.5354 -0.9024
  152SAPE  H17Y16916   3.733   1.632   8.389  1.5090  2.7687 -1.1008
  152SAPE  C31816917   3.929   1.541   8.439  0.4567  0.2717 -0.0659
  152SAPE  H18X16918   3.994   1.631   8.436  0.4082  0.2882 -1.4661
  152SAPE  H18Y16919   3.991   1.458   8.400  3.1663  0.8472  2.6106
  152SAPE  H18Z16920   3.913   1.527   8.548 -0.0451  2.5761  0.2202
  153SAPE     N16921   6.110   1.376   6.792  0.4978 -0.4561 -0.2360
  153SAPE   HN116922   6.162   1.394   6.880 -2.7239  2.6751  1.2998
  153SAPE   HN216923   6.075   1.464   6.751 -1.1377 -1.4631 -1.1371
  153SAPE   HN316924   6.023   1.324   6.817 -0.4432 -0.2811 -2.8300
  153SAPE   C1216925   6.202   1.309   6.698  0.2833  0.7575 -0.2080
  153SAPE  H12A16926   6.176   1.201   6.702 -1.5138  1.1891  0.7144
  153SAPE  H12B16927   6.305   1.329   6.736  0.6957 -0.2566 -0.7547
  153SAPE   C1116928   6.184   1.369   6.564  0.7219 -0.6501 -0.5483
  153SAPE  H11A16929   6.074   1.364   6.547  0.5478 -2.8935  0.8989
  153SAPE  H11B16930   6.222   1.306   6.481 -1.0659  0.7152 -2.5350
  153SAPE     P16931   6.263   1.562   6.409  0.0020  0.0110  0.1431
  153SAPE   O1316932   6.397   1.566   6.353 -0.4317 -0.2998 -0.3280
  153SAPE   O1416933   6.160   1.506   6.323 -0.1164  0.3028  0.8730
  153SAPE   O1216934   6.254   1.492   6.552 -0.1230 -0.5840 -0.0043
  153SAPE   O1116935   6.220   1.714   6.442  0.0808 -0.6354  0.1524
  153SAPE    C116936   6.275   1.798   6.536  0.0951  0.9166  0.3563
  153SAPE    HA16937   6.380   1.769   6.555  0.2916  0.0703 -1.7710
  153SAPE    HB16938   6.276   1.906   6.513  2.4476  0.9952  0.6513
  153SAPE    C216939   6.205   1.769   6.674  0.3854 -0.2172  1.2291
  153SAPE    HS16940   6.206   1.660   6.696  2.5485 -0.7584 -1.1251
  153SAPE   O2116941   6.074   1.827   6.658 -0.5318  0.2148  0.4973
  153SAPE   C2116942   5.974   1.744   6.664 -0.1518 -0.3345  0.0055
  153SAPE   O2216943   5.974   1.622   6.691 -0.1878 -0.0889 -0.8677
  153SAPE   C2216944   5.843   1.814   6.630 -0.1888 -0.7464  0.5683
  153SAPE   H2R16945   5.855   1.923   6.645 -0.5358 -0.5730 -0.3508
  153SAPE   H2S16946   5.830   1.800   6.521  0.6190  0.5256  0.3020
  153SAPE    C316947   6.287   1.827   6.795 -0.4170  0.0546 -0.4604
  153SAPE    HX16948   6.328   1.924   6.758 -0.5940 -0.7830 -3.0400
  153SAPE    HY16949   6.372   1.756   6.806  1.0208  2.0969  4.0376
  153SAPE   O3116950   6.202   1.846   6.913  0.6053  0.4478  0.1287
  153SAPE   C3116951   6.150   1.742   6.975 -0.0874 -0.2009  0.7964
  153SAPE   O3216952   6.179   1.624   6.950  0.0938 -0.0987 -0.1687
  153SAPE   C3216953   6.065   1.778   7.089 -0.1995 -0.1798 -0.5142
  153SAPE   H2X16954   5.956   1.771   7.064 -0.5210  1.9829  0.1119
  153SAPE   H2Y16955   6.072   1.889   7.095 -3.4239  0.2154 -1.6896
  153SAPE   C2316956   5.714   1.761   6.692 -0.3268 -0.4674  0.6869
  153SAPE   H3R16957   5.715   1.649   6.695  0.7646 -0.4522  1.3313
  153SAPE   H3S16958   5.629   1.793   6.628 -0.2866 -1.2050  0.2385
  153SAPE   C2416959   5.692   1.823   6.835 -0.1007  0.1547  0.2230
  153SAPE   H4R16960   5.688   1.934   6.825 -1.4340  0.0178 -1.1977
  153SAPE   H4S16961   5.779   1.802   6.901 -0.9015 -0.4982  1.0992
  153SAPE   C2516962   5.558   1.776   6.877 -0.0807 -0.6222 -0.4307
  153SAPE   H5R16963   5.477   1.801   6.806  1.8972  3.5905 -1.4663
  153SAPE   C2616964   5.547   1.686   6.979  0.2189 -0.0404  0.5157
  153SAPE   H6R16965   5.447   1.645   6.998  0.5384 -0.2079  1.9865
  153SAPE   C2716966   5.655   1.626   7.067  0.9900  0.4362 -0.2358
  153SAPE   H7R16967   5.603   1.575   7.151 -1.7154  0.6707 -1.6730
  153SAPE   H7S16968   5.707   1.708   7.121 -0.5178  1.0935  0.2566
  153SAPE   C2816969   5.748   1.528   6.993 -0.7282 -0.1783  0.3949
  153SAPE   H8R16970   5.803   1.558   6.903 -1.1562  1.0765  0.5320
  153SAPE   C2916971   5.772   1.401   7.028 -0.7869  0.4979  0.3739
  153SAPE   H9R16972   5.831   1.338   6.961  0.5494 -0.1367  2.0530
  153SAPE  C21016973   5.723   1.316   7.141 -0.1095 -0.9225 -0.3723
  153SAPE  H10R16974   5.724   1.212   7.104  0.0890 -1.4050  0.9566
  153SAPE  H10S16975   5.618   1.341   7.168  0.3668  1.1058 -0.1799
  153SAPE  C21116976   5.823   1.323   7.258  0.1276 -0.1317 -0.4572
  153SAPE  H11R16977   5.904   1.396   7.242  0.9206 -0.3967  1.9358
  153SAPE  C21216978   5.814   1.258   7.375  0.3931  0.8429  0.2483
  153SAPE  H12R16979   5.887   1.279   7.456 -0.3202 -0.1611  1.1733
  153SAPE  C21316980   5.705   1.162   7.417 -0.2268  0.1357 -0.3151
  153SAPE  H13R16981   5.645   1.127   7.330 -2.9739 -2.1918  2.2815
  153SAPE  H13S16982   5.641   1.212   7.492  1.9492  2.5955  0.0213
  153SAPE  C21416983   5.763   1.035   7.481 -0.0226  0.9903 -0.1286
  153SAPE  H14R16984   5.779   0.958   7.404 -2.6000 -1.1353  1.2708
  153SAPE  C21516985   5.785   1.000   7.611  0.0194  0.0591  0.1409
  153SAPE  H15R16986   5.821   0.898   7.633  6.1015  1.3174 -2.0700
  153SAPE  C21616987   5.768   1.094   7.731 -0.1597  0.5310  0.4182
  153SAPE  H16R16988   5.739   1.194   7.692 -1.7738  0.0230  0.2422
  153SAPE  H16S16989   5.869   1.098   7.779 -0.0742  0.0909  0.2786
  153SAPE  C21716990   5.663   1.055   7.837  0.3145 -0.8273  0.0318
  153SAPE  H17R16991   5.681   0.954   7.880 -0.2231 -1.7912 -1.9320
  153SAPE  H17S16992   5.566   1.051   7.783  0.1337  1.3016  0.0783
  153SAPE  C21816993   5.650   1.148   7.960  0.2313  0.2580  0.0867
  153SAPE  H18R16994   5.575   1.230   7.948 -2.1330 -1.7231  0.4613
  153SAPE  H18S16995   5.745   1.205   7.962  0.0420  0.6331 -1.0801
  153SAPE  C21916996   5.642   1.073   8.096  1.1004  0.0797  0.2732
  153SAPE  H19R16997   5.743   1.032   8.119  1.5250 -0.2640 -2.0386
  153SAPE  H19S16998   5.575   0.986   8.080  1.4127 -0.5553  2.1398
  153SAPE  C22016999   5.601   1.162   8.212 -0.2093 -0.2245 -0.5608
  153SAPE  H20R17000   5.577   1.265   8.176 -0.1749  0.1851  0.5722
  153SAPE  H20S17001   5.681   1.177   8.287 -2.0181  1.9792  1.0633
  153SAPE  H20T17002   5.522   1.109   8.268  0.3038 -2.0316 -1.4591
  153SAPE   C3317003   6.080   1.704   7.222  0.0535 -0.1732 -0.5712
  153SAPE   H3X17004   6.177   1.730   7.271  0.3695 -1.9118 -0.2001
  153SAPE   H3Y17005   6.089   1.594   7.204 -0.0489 -0.1926 -0.5004
  153SAPE   C3417006   5.957   1.727   7.314  0.5899 -0.0773  0.8077
  153SAPE   H4X17007   5.871   1.696   7.250  0.9790  2.1589 -0.9390
  153SAPE   H4Y17008   5.945   1.836   7.330 -1.2713 -0.2503  0.8337
  153SAPE   C3517009   5.970   1.653   7.445  0.1611 -0.0510  0.6409
  153SAPE   H5X17010   6.056   1.696   7.501  0.2418  2.0040 -0.9200
  153SAPE   H5Y17011   5.990   1.546   7.424  1.3145 -0.0182  1.4645
  153SAPE   C3617012   5.845   1.664   7.529  0.0470 -1.1377 -0.1674
  153SAPE   H6X17013   5.751   1.650   7.473  0.3135  2.2044 -1.6333
  153SAPE   H6Y17014   5.830   1.769   7.561  0.3029 -0.9358 -0.7025
  153SAPE   C3717015   5.857   1.579   7.656  0.0489  0.0358 -0.1877
  153SAPE   H7X17016   5.950   1.610   7.709 -0.3859 -0.0249  0.6227
  153SAPE   H7Y17017   5.866   1.475   7.618 -3.5646 -0.3290 -0.3163
  153SAPE   C3817018   5.744   1.599   7.759 -0.0180 -0.3788 -0.6183
  153SAPE   H8X17019   5.646   1.565   7.718  0.6803 -1.5853 -1.3704
  153SAPE   H8Y17020   5.741   1.706   7.787  0.4871 -0.5508  0.1054
  153SAPE   C3917021   5.769   1.534   7.897  1.1260  0.6798  0.1234
  153SAPE   H9X17022   5.866   1.564   7.942  1.8807 -1.1406 -0.2130
  153SAPE   H9Y17023   5.781   1.430   7.859 -0.1727  0.3365  0.6014
  153SAPE  C31017024   5.649   1.538   7.985  0.1252 -0.8216 -0.0958
  153SAPE  H10X17025   5.669   1.465   8.067  1.1333  0.2423  0.6473
  153SAPE  H10Y17026   5.565   1.497   7.926 -1.0055  4.8900 -3.2485
  153SAPE  C31117027   5.613   1.676   8.038 -0.4295 -0.3418 -0.4648
  153SAPE  H11X17028   5.524   1.712   7.982 -1.5230 -1.1505  0.6877
  153SAPE  H11Y17029   5.702   1.742   8.035 -1.2114  0.7675  0.1296
  153SAPE  C31217030   5.555   1.674   8.188 -0.7685 -0.1255 -0.6856
  153SAPE  H12X17031   5.629   1.641   8.263  0.3034  0.1758 -1.5876
  153SAPE  H12Y17032   5.476   1.597   8.194 -1.9846  1.1686  0.8099
  153SAPE  C31317033   5.514   1.819   8.221  0.3038  0.1358 -0.1474
  153SAPE  H13X17034   5.422   1.839   8.161 -0.1994 -1.6994 -0.0351
  153SAPE  H13Y17035   5.597   1.892   8.207  1.8001 -1.6113 -0.7589
  153SAPE  C31417036   5.481   1.826   8.372  0.1996  0.0362  0.0312
  153SAPE  H14X17037   5.484   1.931   8.409 -2.6101  0.7764 -1.4939
  153SAPE  H14Y17038   5.553   1.759   8.424  0.2306 -0.3450 -0.4927
  153SAPE  C31517039   5.334   1.783   8.395 -0.5882  0.6433 -0.5512
  153SAPE  H15X17040   5.328   1.675   8.373  1.4041  0.7365 -1.8394
  153SAPE  H15Y17041   5.253   1.834   8.339  0.4014  1.9439 -0.8454
  153SAPE  C31617042   5.290   1.795   8.547  0.2379  0.5229 -0.3258
  153SAPE  H16X17043   5.360   1.738   8.612 -3.8319 -0.9397  3.2868
  153SAPE  H16Y17044   5.199   1.730   8.553  0.4663  0.3505  2.5444
  153SAPE  C31717045   5.236   1.929   8.600  0.7980  0.0618  0.7113
  153SAPE  H17X17046   5.163   1.942   8.517  1.5104  0.4963  0.1333
  153SAPE  H17Y17047   5.321   1.998   8.579  0.5845 -0.0733 -0.6577
  153SAPE  C31817048   5.194   1.932   8.747  0.0117 -0.0913 -0.1063
  153SAPE  H18X17049   5.091   1.890   8.761  0.2415 -0.4845  0.4449
  153SAPE  H18Y17050   5.194   2.036   8.785  2.1548 -0.0921 -0.0317
  153SAPE  H18Z17051   5.260   1.872   8.813 -1.9666 -1.0927  1.0918
  154SAPE     N17052   4.988   3.104   6.295 -0.0180 -0.2182 -0.5136
  154SAPE   HN117053   4.962   3.180   6.228 -2.7261  1.1896  1.9099
  154SAPE   HN217054   4.999   3.019   6.237  2.7988  0.2584 -0.8288
  154SAPE   HN317055   4.904   3.102   6.356 -1.7967  3.0880 -2.5462
  154SAPE   C1217056   5.111   3.158   6.365  0.4919  0.5413 -0.5699
  154SAPE  H12A17057   5.127   3.085   6.448  0.7433  0.0757 -1.0248
  154SAPE  H12B17058   5.088   3.254   6.416 -0.6016 -1.1858  2.4378
  154SAPE   C1117059   5.232   3.172   6.264 -0.5143 -0.2346 -0.4216
  154SAPE  H11A17060   5.313   3.212   6.329 -0.0975 -1.1700 -0.3631
  154SAPE  H11B17061   5.216   3.255   6.191  0.2056 -1.5098 -2.0680
  154SAPE     P17062   5.385   3.021   6.122  0.0183 -0.6068 -0.3750
  154SAPE   O1317063   5.390   2.878   6.078  0.3329 -0.8964  0.5306
  154SAPE   O1417064   5.397   3.132   6.028 -0.0133 -0.2078 -0.1538
  154SAPE   O1217065   5.254   3.046   6.205 -0.4783 -0.9282  0.3956
  154SAPE   O1117066   5.497   3.034   6.236  1.1563  0.3007 -0.4157
  154SAPE    C117067   5.552   2.917   6.299 -0.0595  0.2580 -0.3868
  154SAPE    HA17068   5.533   2.825   6.241  0.5962  0.5875 -1.1530
  154SAPE    HB17069   5.663   2.928   6.307  0.1811  0.9295 -3.2954
  154SAPE    C217070   5.499   2.903   6.449 -0.3043  0.4936  0.3612
  154SAPE    HS17071   5.545   2.809   6.490 -1.9775  0.2468  1.7794
  154SAPE   O2117072   5.359   2.885   6.449  0.1515 -0.2748 -0.3035
  154SAPE   C2117073   5.309   2.768   6.428 -0.1518 -0.4780  1.0205
  154SAPE   O2217074   5.375   2.669   6.399 -0.4243 -0.2639  0.1325
  154SAPE   C2217075   5.163   2.770   6.431 -0.7701  0.3464  0.0976
  154SAPE   H2R17076   5.124   2.850   6.364  1.5458  0.6396 -1.0120
  154SAPE   H2S17077   5.121   2.673   6.397 -0.4518  0.5320 -0.8850
  154SAPE    C317078   5.535   3.025   6.534  0.3383 -0.5027 -0.1396
  154SAPE    HX17079   5.484   3.113   6.490  0.9016  0.3612  0.8983
  154SAPE    HY17080   5.644   3.043   6.541  0.2169  0.2695 -0.1775
  154SAPE   O3117081   5.487   2.992   6.663  0.0869  0.0983  0.1083
  154SAPE   C3117082   5.386   3.065   6.712 -1.0065 -0.6368 -0.5841
  154SAPE   O3217083   5.320   3.157   6.658 -0.0097 -0.6481  0.2661
  154SAPE   C3217084   5.374   3.031   6.859  0.3879 -0.4619 -0.6460
  154SAPE   H2X17085   5.440   2.941   6.869  3.1386  1.2399 -2.2698
  154SAPE   H2Y17086   5.266   3.003   6.860  0.1357  0.4901 -0.4987
  154SAPE   C2317087   5.102   2.807   6.568  0.0611  0.1372 -0.3715
  154SAPE   H3R17088   4.992   2.791   6.566  0.4441 -3.3537  0.1293
  154SAPE   H3S17089   5.127   2.913   6.587  0.1781 -0.0448  0.5189
  154SAPE   C2417090   5.160   2.720   6.692 -0.5763  0.5585  0.6091
  154SAPE   H4R17091   5.271   2.734   6.694 -0.6470  1.6996 -1.4679
  154SAPE   H4S17092   5.143   2.613   6.670  0.7624  0.5179 -0.3367
  154SAPE   C2517093   5.091   2.761   6.817 -0.6281  0.2167 -0.3105
  154SAPE   H5R17094   5.009   2.834   6.810 -0.2492  0.6397 -0.3766
  154SAPE   C2617095   5.133   2.714   6.938 -0.2938  0.1373 -0.7314
  154SAPE   H6R17096   5.069   2.729   7.027 -1.3264 -0.7984 -1.2843
  154SAPE   C2717097   5.259   2.631   6.955 -0.5445  0.6769 -0.3449
  154SAPE   H7R17098   5.333   2.640   6.873  0.2442  2.2850  0.5124
  154SAPE   H7S17099   5.232   2.523   6.959 -0.2782  0.6429  0.7403
  154SAPE   C2817100   5.337   2.658   7.086  0.2919  0.4264 -0.1220
  154SAPE   H8R17101   5.442   2.684   7.068  0.2535  0.3371 -0.4883
  154SAPE   C2917102   5.289   2.651   7.211 -0.6621  0.4822  0.7029
  154SAPE   H9R17103   5.365   2.645   7.290  0.6445  2.5569 -0.3344
  154SAPE  C21017104   5.151   2.617   7.269 -0.0392  0.9567  0.1785
  154SAPE  H10R17105   5.163   2.537   7.346 -2.3410  0.9153  0.5701
  154SAPE  H10S17106   5.085   2.584   7.186  0.5575 -0.6201  0.2831
  154SAPE  C21117107   5.095   2.742   7.324  0.0035  0.0389 -0.3295
  154SAPE  H11R17108   5.090   2.829   7.257 -2.5040  2.3738  2.5477
  154SAPE  C21217109   5.042   2.773   7.448 -0.0478  0.1313 -0.0702
  154SAPE  H12R17110   5.018   2.877   7.475 -0.3900 -0.4783  2.1775
  154SAPE  C21317111   5.036   2.672   7.555  0.4173  0.3248  0.2711
  154SAPE  H13R17112   5.011   2.569   7.521  1.4937 -0.5451  2.0210
  154SAPE  H13S17113   4.952   2.709   7.618 -0.5711  0.4338 -1.0658
  154SAPE  C21417114   5.171   2.676   7.625  0.6230  0.2560  0.7555
  154SAPE  H14R17115   5.252   2.638   7.561  1.4761 -0.0506  1.9839
  154SAPE  C21517116   5.198   2.710   7.750  0.1317 -0.9687 -0.2905
  154SAPE  H15R17117   5.303   2.717   7.782 -0.0258  0.3216 -0.0069
  154SAPE  C21617118   5.097   2.760   7.852  0.1724 -0.3407  0.6073
  154SAPE  H16R17119   4.993   2.722   7.843 -0.1500  0.6879 -0.2449
  154SAPE  H16S17120   5.106   2.871   7.851 -0.5469 -0.2761 -0.4057
  154SAPE  C21717121   5.150   2.711   7.990 -0.1466  0.3717  0.3198
  154SAPE  H17R17122   5.147   2.600   7.985  1.1611  0.3349 -0.3568
  154SAPE  H17S17123   5.068   2.727   8.063 -0.5651  1.0107 -0.2800
  154SAPE  C21817124   5.285   2.778   8.042  0.1649 -0.1121  0.5342
  154SAPE  H18R17125   5.280   2.887   8.022  1.0926 -0.2439 -0.5085
  154SAPE  H18S17126   5.379   2.743   7.995  0.7187  1.0813  0.7258
  154SAPE  C21917127   5.313   2.771   8.193 -0.5030  0.2062 -0.1982
  154SAPE  H19R17128   5.238   2.824   8.255 -1.3813 -3.1523  1.8381
  154SAPE  H19S17129   5.407   2.829   8.201  0.8566 -1.7471 -1.2255
  154SAPE  C22017130   5.333   2.632   8.244  0.3221  1.4797  0.1503
  154SAPE  H20R17131   5.398   2.624   8.334 -2.0693  2.8233  2.1194
  154SAPE  H20S17132   5.373   2.561   8.168  3.1978  2.0148  1.0504
  154SAPE  H20T17133   5.236   2.585   8.273  0.9497  0.6876  1.0169
  154SAPE   C3317134   5.433   3.148   6.947 -0.0660  0.1790  0.0039
  154SAPE   H3X17135   5.379   3.244   6.932  2.0101  1.3856 -0.0954
  154SAPE   H3Y17136   5.540   3.155   6.919  0.2718  1.0478  1.3962
  154SAPE   C3417137   5.428   3.123   7.103 -0.0701  0.1665 -0.0127
  154SAPE   H4X17138   5.321   3.108   7.129 -1.0063  2.4116 -2.2226
  154SAPE   H4Y17139   5.460   3.211   7.163  1.3998  0.5956 -1.3659
  154SAPE   C3517140   5.522   3.011   7.151 -0.2730  0.6530  0.1416
  154SAPE   H5X17141   5.624   3.021   7.108 -0.3480  1.1269  0.0634
  154SAPE   H5Y17142   5.478   2.913   7.123  3.1164 -0.9950  0.0918
  154SAPE   C3617143   5.519   3.009   7.303 -0.0797 -0.3198 -0.3981
  154SAPE   H6X17144   5.413   3.004   7.336 -0.1903 -0.1323 -0.7097
  154SAPE   H6Y17145   5.550   3.109   7.341 -1.1309 -0.9937  2.5069
  154SAPE   C3717146   5.585   2.886   7.376 -0.5774  0.5993 -0.5326
  154SAPE   H7X17147   5.695   2.894   7.385 -0.5470  0.1897 -0.5115
  154SAPE   H7Y17148   5.551   2.807   7.306  0.7445  0.8574 -1.5144
  154SAPE   C3817149   5.527   2.853   7.518  0.4964  0.4824  1.2096
  154SAPE   H8X17150   5.576   2.758   7.550 -1.3302 -0.1516  2.2404
  154SAPE   H8Y17151   5.418   2.835   7.520  0.5946 -0.1586  0.9218
  154SAPE   C3917152   5.566   2.937   7.638 -0.2822 -0.1976  0.3846
  154SAPE   H9X17153   5.670   2.968   7.614 -0.2920 -1.2933 -1.2147
  154SAPE   H9Y17154   5.561   2.878   7.732  0.4724  0.5647  0.9123
  154SAPE  C31017155   5.478   3.065   7.664  0.0099  0.7206 -0.0808
  154SAPE  H10X17156   5.374   3.027   7.658  1.0827 -2.2602 -2.0762
  154SAPE  H10Y17157   5.504   3.119   7.570  1.0844 -1.1119 -0.8922
  154SAPE  C31117158   5.519   3.147   7.784  0.0703  0.3666 -0.2929
  154SAPE  H11X17159   5.454   3.236   7.791 -1.2240 -0.6827  2.2022
  154SAPE  H11Y17160   5.625   3.181   7.779  0.5800 -0.8905  1.1428
  154SAPE  C31217161   5.496   3.075   7.925  0.1194  0.4376  1.3117
  154SAPE  H12X17162   5.557   2.983   7.939 -1.1885 -0.6110  0.3355
  154SAPE  H12Y17163   5.391   3.040   7.926  0.8622 -2.1606 -0.7256
  154SAPE  C31317164   5.507   3.192   8.030  0.0863 -0.0059 -0.0954
  154SAPE  H13X17165   5.423   3.264   8.019 -0.7848 -0.8144  0.9855
  154SAPE  H13Y17166   5.606   3.242   8.023 -0.6104  1.6526  1.1574
  154SAPE  C31417167   5.492   3.149   8.177 -0.3406 -0.7497  0.0223
  154SAPE  H14X17168   5.389   3.107   8.182 -0.6186  0.0132  1.0552
  154SAPE  H14Y17169   5.487   3.235   8.247 -1.4148 -1.4827  0.8972
  154SAPE  C31517170   5.586   3.043   8.235 -1.0173 -0.5988  0.6888
  154SAPE  H15X17171   5.687   3.088   8.246 -1.1084 -0.1800 -0.1040
  154SAPE  H15Y17172   5.595   2.956   8.166 -0.5931  1.3159 -1.8099
  154SAPE  C31617173   5.555   2.998   8.375  0.4739  0.1755  0.0139
  154SAPE  H16X17174   5.449   2.966   8.388 -0.2479  1.0136 -2.9480
  154SAPE  H16Y17175   5.553   3.084   8.444  0.3141 -1.2281  1.8503
  154SAPE  C31717176   5.645   2.884   8.434 -0.0362 -1.0015  0.1987
  154SAPE  H17X17177   5.752   2.900   8.409 -0.6431  0.5090 -1.6396
  154SAPE  H17Y17178   5.626   2.794   8.372  1.4197  1.4795 -4.2252
  154SAPE  C31817179   5.625   2.867   8.582  0.2138  0.0006  0.1275
  154SAPE  H18X17180   5.530   2.813   8.600 -0.1201  1.0766  1.7684
  154SAPE  H18Y17181   5.621   2.965   8.633 -1.3001  0.1220 -0.1700
  154SAPE  H18Z17182   5.710   2.809   8.624 -0.7539 -0.3708  1.6517
  155SAPE     N17183   6.124   4.327   6.579  0.1103  0.9801  0.2056
  155SAPE   HN117184   6.094   4.262   6.654 -0.1405  0.1911 -0.5616
  155SAPE   HN217185   6.143   4.277   6.490  1.0092 -1.6617  1.7793
  155SAPE   HN317186   6.213   4.371   6.608 -0.5191  2.1080  0.5003
  155SAPE   C1217187   6.028   4.436   6.536  1.2638 -0.5397  0.2015
  155SAPE  H12A17188   5.962   4.462   6.622 -0.9991 -0.3987 -1.4844
  155SAPE  H12B17189   5.962   4.401   6.454 -1.5442  1.7648  1.2735
  155SAPE   C1117190   6.095   4.567   6.498  0.5971 -0.1546  0.1726
  155SAPE  H11A17191   6.111   4.633   6.586  0.4697  3.3301 -2.2128
  155SAPE  H11B17192   6.024   4.622   6.431  0.9990  0.4189  0.2040
  155SAPE     P17193   6.305   4.664   6.377 -0.0045  0.0557  0.0425
  155SAPE   O1317194   6.302   4.657   6.233 -0.5595 -0.0825  0.3877
  155SAPE   O1417195   6.260   4.786   6.439 -0.2755 -0.8016 -0.0629
  155SAPE   O1217196   6.217   4.538   6.433 -0.4955 -0.3376 -0.1112
  155SAPE   O1117197   6.459   4.656   6.433  0.2905 -0.0847 -0.1643
  155SAPE    C117198   6.504   4.525   6.404 -0.0499 -0.1555  0.7794
  155SAPE    HA17199   6.470   4.484   6.306 -1.4027 -0.4433  1.3542
  155SAPE    HB17200   6.614   4.531   6.387 -0.1405 -1.7901 -0.6709
  155SAPE    C217201   6.494   4.414   6.516  0.4808  0.1884  0.1042
  155SAPE    HS17202   6.386   4.386   6.517  0.5419 -0.0458  0.5071
  155SAPE   O2117203   6.540   4.460   6.645 -0.1439  0.4774  0.3505
  155SAPE   C2117204   6.445   4.464   6.734  0.2921 -0.1872 -0.4803
  155SAPE   O2217205   6.326   4.439   6.715 -0.2218  0.5163 -0.4110
  155SAPE   C2217206   6.510   4.497   6.868  0.1072  0.3918 -0.2827
  155SAPE   H2R17207   6.617   4.514   6.846 -0.0974 -0.6614 -2.3430
  155SAPE   H2S17208   6.471   4.599   6.891 -0.8105 -0.4383  2.1208
  155SAPE    C317209   6.571   4.276   6.490  0.5994 -0.0505  0.3419
  155SAPE    HX17210   6.677   4.307   6.475  0.3294  0.0389 -1.5951
  155SAPE    HY17211   6.546   4.246   6.386 -0.3522  5.3761 -1.3126
  155SAPE   O3117212   6.539   4.172   6.589 -0.0342 -0.0857 -0.0640
  155SAPE   C3117213   6.652   4.128   6.643  0.4130 -0.0695 -0.0791
  155SAPE   O3217214   6.763   4.158   6.605 -0.1353 -0.1183  0.1097
  155SAPE   C3217215   6.622   4.031   6.757  0.9095  0.1235  1.0326
  155SAPE   H2X17216   6.547   3.957   6.721 -0.2886  0.8796  1.9156
  155SAPE   H2Y17217   6.562   4.091   6.828  0.3625  0.9010 -0.0457
  155SAPE   C2317218   6.480   4.391   6.979  0.1936 -0.0516  0.8517
  155SAPE   H3R17219   6.517   4.287   6.961  1.0429  0.3857  0.0193
  155SAPE   H3S17220   6.370   4.374   6.983  0.4555 -1.7556  1.8625
  155SAPE   C2417221   6.543   4.449   7.107 -0.2567 -0.5414  0.2568
  155SAPE   H4R17222   6.512   4.395   7.199  1.6757  0.0414  1.3106
  155SAPE   H4S17223   6.501   4.552   7.113 -1.3172 -1.0335  2.3879
  155SAPE   C2517224   6.693   4.448   7.107 -0.0299 -0.1216  0.7766
  155SAPE   H5R17225   6.753   4.494   7.027  1.3602 -2.6041  0.2792
  155SAPE   C2617226   6.772   4.382   7.193 -0.1725 -0.4147 -0.6748
  155SAPE   H6R17227   6.880   4.375   7.173 -0.4307 -1.9811 -1.7376
  155SAPE   C2717228   6.729   4.301   7.311  0.3666 -0.1791  0.0927
  155SAPE   H7R17229   6.691   4.366   7.393  1.0920  1.8237 -1.0817
  155SAPE   H7S17230   6.821   4.251   7.347  0.2045  0.5465  1.6241
  155SAPE   C2817231   6.641   4.181   7.290  0.4459 -0.3114 -0.2663
  155SAPE   H8R17232   6.605   4.166   7.187 -1.7219  2.8608 -0.1247
  155SAPE   C2917233   6.605   4.093   7.383  0.2234 -0.4314 -0.5178
  155SAPE   H9R17234   6.542   4.008   7.352  2.0412 -1.5882 -1.1546
  155SAPE  C21017235   6.625   4.103   7.532  0.0253  0.3178  0.6025
  155SAPE  H10R17236   6.725   4.146   7.555 -0.3604  0.7332  1.5463
  155SAPE  H10S17237   6.633   4.002   7.576  2.0515 -0.8085 -2.0513
  155SAPE  C21117238   6.525   4.191   7.593  0.1058  0.4460 -0.9969
  155SAPE  H11R17239   6.420   4.161   7.587  0.2725 -0.2720 -0.4584
  155SAPE  C21217240   6.540   4.312   7.646  0.3775 -0.0171 -0.5452
  155SAPE  H12R17241   6.452   4.356   7.695  0.8662  1.2709 -0.7792
  155SAPE  C21317242   6.668   4.395   7.657 -0.0368 -0.7191  0.5275
  155SAPE  H13R17243   6.742   4.358   7.583 -1.0814 -1.2796 -0.2466
  155SAPE  H13S17244   6.704   4.371   7.759  0.0477 -0.9760  0.4362
  155SAPE  C21417245   6.654   4.545   7.632 -0.0703  0.5311  0.3786
  155SAPE  H14R17246   6.654   4.568   7.525  1.2595 -1.2763 -0.0556
  155SAPE  C21517247   6.627   4.639   7.720  0.9005 -0.0620  0.1007
  155SAPE  H15R17248   6.620   4.742   7.682  2.5613 -0.0041 -0.1163
  155SAPE  C21617249   6.608   4.613   7.867 -0.0276 -0.3824 -0.5889
  155SAPE  H16R17250   6.608   4.504   7.887  0.0345 -0.0020  1.7411
  155SAPE  H16S17251   6.515   4.660   7.905  0.2733 -0.0835 -0.2108
  155SAPE  C21717252   6.727   4.667   7.946 -0.0867  0.1513  0.6965
  155SAPE  H17R17253   6.753   4.766   7.903 -3.3543  0.3553 -1.1655
  155SAPE  H17S17254   6.820   4.608   7.928 -0.5647 -0.5306  0.4158
  155SAPE  C21817255   6.716   4.675   8.098 -0.1455  0.5970  0.6776
  155SAPE  H18R17256   6.620   4.724   8.122 -0.2722  1.3856 -1.2314
  155SAPE  H18S17257   6.802   4.739   8.130 -1.8708  3.8206 -0.6040
  155SAPE  C21917258   6.728   4.548   8.178  0.7104 -0.4032  0.4405
  155SAPE  H19R17259   6.838   4.533   8.181  0.6442 -1.4866 -1.1912
  155SAPE  H19S17260   6.680   4.456   8.136  1.0605 -1.3370  1.9892
  155SAPE  C22017261   6.697   4.561   8.327  0.3190 -0.3504  0.1005
  155SAPE  H20R17262   6.729   4.471   8.384  1.7684  1.1370  1.7895
  155SAPE  H20S17263   6.589   4.581   8.345 -0.0455 -1.6353 -0.5245
  155SAPE  H20T17264   6.744   4.654   8.365 -0.6306 -0.1778  0.9072
  155SAPE   C3317265   6.746   3.956   6.822 -0.0238 -0.2580 -0.5944
  155SAPE   H3X17266   6.792   4.037   6.883 -1.6059 -0.8031  1.4241
  155SAPE   H3Y17267   6.822   3.927   6.746 -0.5333  0.5007 -1.4171
  155SAPE   C3417268   6.713   3.838   6.915 -0.1371  0.4433 -0.1771
  155SAPE   H4X17269   6.646   3.774   6.853 -0.9882  2.2251 -1.1842
  155SAPE   H4Y17270   6.657   3.872   7.005  1.1453  3.4166 -0.3961
  155SAPE   C3517271   6.842   3.764   6.955 -0.4842  0.0511  0.4137
  155SAPE   H5X17272   6.921   3.777   6.877 -1.1229 -1.3109 -0.4860
  155SAPE   H5Y17273   6.834   3.654   6.963  1.1115 -0.1044  0.2971
  155SAPE   C3617274   6.888   3.818   7.091 -0.0485 -0.3004 -0.6031
  155SAPE   H6X17275   6.810   3.799   7.168  0.5566  1.9462  0.6682
  155SAPE   H6Y17276   6.903   3.928   7.086 -1.7053  0.0891  1.5360
  155SAPE   C3717277   7.015   3.748   7.132 -0.5005 -0.1791  0.2833
  155SAPE   H7X17278   7.098   3.782   7.066 -0.0274 -0.4323  0.7469
  155SAPE   H7Y17279   6.986   3.641   7.123  0.2667 -0.3921  0.2845
  155SAPE   C3817280   7.070   3.771   7.273  0.3139 -0.1752  0.1482
  155SAPE   H8X17281   7.076   3.881   7.285 -1.8294  0.0594 -0.5790
  155SAPE   H8Y17282   7.175   3.734   7.279  1.3734  2.4166 -0.8311
  155SAPE   C3917283   6.982   3.716   7.384 -0.0297 -0.3142  0.0227
  155SAPE   H9X17284   6.987   3.606   7.370  2.7377 -0.2511 -0.0017
  155SAPE   H9Y17285   6.878   3.747   7.359  0.9954  2.1208 -1.5164
  155SAPE  C31017286   7.025   3.765   7.530  0.5985 -0.5387  0.7096
  155SAPE  H10X17287   7.002   3.874   7.534  0.3281 -0.5485 -0.2967
  155SAPE  H10Y17288   7.134   3.744   7.538  0.5468 -0.9211  0.4251
  155SAPE  C31117289   6.937   3.703   7.641  0.4060  0.3363  0.1235
  155SAPE  H11X17290   6.943   3.593   7.625  2.5991  0.5405 -0.7784
  155SAPE  H11Y17291   6.832   3.739   7.630  0.1891 -0.5994 -1.2408
  155SAPE  C31217292   6.992   3.744   7.774 -0.5634 -0.0027 -0.1302
  155SAPE  H12X17293   7.005   3.854   7.765 -2.1952  0.1762 -0.6141
  155SAPE  H12Y17294   7.097   3.706   7.774  0.6342  2.9902 -0.6052
  155SAPE  C31317295   6.900   3.705   7.889 -0.0555 -0.2167 -0.1738
  155SAPE  H13X17296   6.885   3.596   7.899 -1.6817  0.1330  2.0713
  155SAPE  H13Y17297   6.801   3.751   7.871  0.6273  0.7151 -1.8402
  155SAPE  C31417298   6.968   3.745   8.023 -0.7807 -0.5213  0.2841
  155SAPE  H14X17299   6.994   3.853   8.023 -1.0966 -0.4460  0.6937
  155SAPE  H14Y17300   7.067   3.695   8.034 -0.6080 -0.2574 -0.0308
  155SAPE  C31517301   6.878   3.709   8.146  0.1256 -0.3294 -0.0994
  155SAPE  H15X17302   6.857   3.600   8.152 -0.1851 -0.2614  0.0622
  155SAPE  H15Y17303   6.785   3.768   8.132 -0.1139 -0.8034 -0.5462
  155SAPE  C31617304   6.960   3.728   8.274  0.0144  0.0262  0.3446
  155SAPE  H16X17305   7.054   3.671   8.259 -0.2266 -0.7202  1.5827
  155SAPE  H16Y17306   6.903   3.689   8.361 -1.5744  0.1884 -0.5920
  155SAPE  C31717307   6.979   3.879   8.316  0.9643  0.4133 -0.2341
  155SAPE  H17X17308   6.887   3.939   8.335  1.9614  1.9240  0.0137
  155SAPE  H17Y17309   7.032   3.933   8.234 -1.2310  2.3625 -0.4612
  155SAPE  C31817310   7.070   3.881   8.447 -0.0037 -0.1721  0.3845
  155SAPE  H18X17311   7.019   3.823   8.527 -1.1288  2.6135  1.8238
  155SAPE  H18Y17312   7.088   3.985   8.482 -0.2881 -0.1099  0.3470
  155SAPE  H18Z17313   7.166   3.833   8.417 -1.1454 -0.9694 -2.3703
  156SAPE     N17314   5.394   4.303   6.239 -0.4131 -0.2448  0.4359
  156SAPE   HN117315   5.449   4.216   6.252 -0.4975 -0.1530  1.4905
  156SAPE   HN217316   5.404   4.327   6.138  0.7164  5.1367  1.5140
  156SAPE   HN317317   5.446   4.376   6.292  2.3991 -1.2182 -0.7705
  156SAPE   C1217318   5.252   4.303   6.285  0.3377 -0.3437  0.4989
  156SAPE  H12A17319   5.211   4.405   6.270  0.0181 -0.3337  1.4107
  156SAPE  H12B17320   5.248   4.283   6.394 -2.7062  1.8062  0.9169
  156SAPE   C1117321   5.169   4.184   6.215  0.5568 -0.8251 -0.5785
  156SAPE  H11A17322   5.162   4.200   6.106  0.2693  1.7267 -0.2509
  156SAPE  H11B17323   5.067   4.201   6.255  0.6439 -0.6828 -0.4130
  156SAPE     P17324   5.111   3.943   6.281  0.0728  0.1607 -0.2570
  156SAPE   O1317325   5.011   3.927   6.172  0.0158 -0.4994  0.2521
  156SAPE   O1417326   5.184   3.818   6.315 -0.3470 -0.1696 -0.4687
  156SAPE   O1217327   5.217   4.054   6.247  0.4142 -0.7632 -0.5397
  156SAPE   O1117328   5.051   3.994   6.409  0.1482 -0.0035 -0.2500
  156SAPE    C117329   5.142   4.033   6.514  0.5373 -0.1521 -0.6390
  156SAPE    HA17330   5.247   4.007   6.489  0.2188 -2.3424  0.0767
  156SAPE    HB17331   5.145   4.143   6.528 -0.7349 -0.2318  0.4113
  156SAPE    C217332   5.105   3.981   6.657  0.3137 -0.2886 -0.0020
  156SAPE    HS17333   5.124   3.871   6.653 -0.1018 -0.3802  0.5290
  156SAPE   O2117334   4.978   4.017   6.707  0.0129  0.0339  0.1503
  156SAPE   C2117335   4.879   3.941   6.681  0.6012  0.2455  1.0619
  156SAPE   O2217336   4.885   3.835   6.618  0.0017  0.0421  0.0431
  156SAPE   C2217337   4.743   4.007   6.724 -0.0230 -0.4043  0.2534
  156SAPE   H2R17338   4.767   4.101   6.778  0.1552 -1.4299  2.0421
  156SAPE   H2S17339   4.688   4.030   6.630  1.7559  0.2172 -0.6859
  156SAPE    C317340   5.207   4.037   6.758  0.0634  0.2466 -0.3968
  156SAPE    HX17341   5.194   4.147   6.760 -0.8066  0.1393  0.3336
  156SAPE    HY17342   5.311   4.023   6.721 -1.3431 -0.5432 -4.5136
  156SAPE   O3117343   5.187   3.999   6.895  0.0232 -0.5770 -0.5802
  156SAPE   C3117344   5.225   3.882   6.924  0.0025 -0.6025  0.5519
  156SAPE   O3217345   5.286   3.804   6.848  0.0109 -0.3980 -0.4938
  156SAPE   C3217346   5.175   3.851   7.062  0.3586  0.9302  0.5579
  156SAPE   H2X17347   5.178   3.741   7.081  0.1980  0.2463 -2.8307
  156SAPE   H2Y17348   5.070   3.887   7.067 -0.1891 -0.6969  1.7778
  156SAPE   C2317349   4.660   3.908   6.811  0.4061  0.7992 -0.1367
  156SAPE   H3R17350   4.620   3.821   6.754  0.0084  0.6429  0.3756
  156SAPE   H3S17351   4.575   3.962   6.857 -1.0097 -1.0609 -0.4951
  156SAPE   C2417352   4.750   3.856   6.921 -0.1903 -0.0573 -0.1033
  156SAPE   H4R17353   4.793   3.946   6.969 -0.8642 -1.2462  2.9913
  156SAPE   H4S17354   4.831   3.790   6.883 -1.4532 -0.2524 -2.6321
  156SAPE   C2517355   4.662   3.782   7.017 -0.2897  0.2250 -0.6107
  156SAPE   H5R17356   4.618   3.689   6.977  1.9155 -1.7159  1.1989
  156SAPE   C2617357   4.648   3.814   7.148 -0.1649  0.0324 -0.4270
  156SAPE   H6R17358   4.575   3.755   7.205  1.4816  0.5920  2.4761
  156SAPE   C2717359   4.707   3.931   7.223  1.0992  0.2642  0.2946
  156SAPE   H7R17360   4.634   3.971   7.297 -1.0356 -2.8167  0.0852
  156SAPE   H7S17361   4.720   4.017   7.154  2.6746 -0.8509 -0.8777
  156SAPE   C2817362   4.827   3.880   7.312 -0.1770 -1.0257 -0.0410
  156SAPE   H8R17363   4.915   3.841   7.260  0.0994 -1.3512  0.6483
  156SAPE   C2917364   4.820   3.864   7.445  0.2973 -0.5800  0.1513
  156SAPE   H9R17365   4.914   3.839   7.496  0.3054  0.6654  0.8080
  156SAPE  C21017366   4.697   3.890   7.531 -0.1796  0.3893  0.3120
  156SAPE  H10R17367   4.680   3.802   7.598  0.9375 -1.4318 -1.6742
  156SAPE  H10S17368   4.610   3.873   7.464  0.6859 -1.8001 -0.3547
  156SAPE  C21117369   4.693   4.021   7.602 -0.3824 -0.5889  0.4128
  156SAPE  H11R17370   4.652   4.111   7.554  3.0270  1.0313  0.2585
  156SAPE  C21217371   4.732   4.036   7.732  0.3172 -0.8816 -0.3357
  156SAPE  H12R17372   4.708   4.132   7.780 -0.2265 -1.9102  1.5453
  156SAPE  C21317373   4.804   3.937   7.813  0.0269  0.4231  0.1305
  156SAPE  H13R17374   4.913   3.943   7.795  0.1605 -1.9429 -0.2332
  156SAPE  H13S17375   4.769   3.834   7.789 -0.5795  1.0964 -2.1547
  156SAPE  C21417376   4.780   3.954   7.959  0.0975  0.4550 -0.2799
  156SAPE  H14R17377   4.794   4.054   8.003  0.1719 -0.0192  0.7935
  156SAPE  C21517378   4.756   3.856   8.052 -0.3401 -0.0716  0.4589
  156SAPE  H15R17379   4.738   3.882   8.158  0.6353 -0.7171  0.7985
  156SAPE  C21617380   4.754   3.702   8.037  0.0665  0.2870 -0.1430
  156SAPE  H16R17381   4.815   3.653   8.116 -0.0563 -2.0246 -1.3953
  156SAPE  H16S17382   4.813   3.669   7.949 -1.0275 -3.6855  0.4188
  156SAPE  C21717383   4.615   3.649   8.013  0.4060  0.8165 -0.4164
  156SAPE  H17R17384   4.601   3.657   7.903 -2.2619  2.5272 -0.0508
  156SAPE  H17S17385   4.527   3.699   8.059  0.6395  0.9725 -0.1385
  156SAPE  C21817386   4.603   3.501   8.049  0.0962 -0.7896 -0.1007
  156SAPE  H18R17387   4.674   3.449   7.981 -0.4683 -0.4346 -0.9788
  156SAPE  H18S17388   4.505   3.461   8.017 -0.2651  0.6866 -0.9440
  156SAPE  C21917389   4.626   3.471   8.199  0.3092  0.4036 -0.2881
  156SAPE  H19R17390   4.554   3.530   8.260  0.6045 -2.7017  3.4630
  156SAPE  H19S17391   4.723   3.516   8.232  0.6405 -0.2955 -0.2947
  156SAPE  C22017392   4.608   3.325   8.241  0.1944 -0.0765 -0.4675
  156SAPE  H20R17393   4.509   3.282   8.215  0.1423  0.0670 -0.5044
  156SAPE  H20S17394   4.615   3.316   8.352  1.8613 -1.7763 -0.6474
  156SAPE  H20T17395   4.694   3.266   8.202  1.4445 -0.2632  2.2973
  156SAPE   C3317396   5.264   3.915   7.169 -0.8340  0.1406 -0.1645
  156SAPE   H3X17397   5.292   4.019   7.144  0.9268 -0.5227 -1.0888
  156SAPE   H3Y17398   5.360   3.859   7.166 -0.9603 -0.0348 -1.0977
  156SAPE   C3417399   5.205   3.898   7.307 -0.1614 -0.5692 -0.1279
  156SAPE   H4X17400   5.135   3.812   7.297 -1.2722  0.3760 -0.6787
  156SAPE   H4Y17401   5.141   3.988   7.320  1.4710  0.9865 -2.1426
  156SAPE   C3517402   5.293   3.883   7.431  0.8320  0.0698  0.0886
  156SAPE   H5X17403   5.376   3.956   7.413  0.8248 -0.2754 -1.5076
  156SAPE   H5Y17404   5.335   3.780   7.435  0.4993 -0.1148 -0.9224
  156SAPE   C3617405   5.208   3.906   7.555 -0.0371  0.0831 -0.0412
  156SAPE   H6X17406   5.132   3.826   7.563 -0.1293  0.2270  0.4952
  156SAPE   H6Y17407   5.157   4.003   7.538 -2.0717 -1.2952 -2.4636
  156SAPE   C3717408   5.281   3.903   7.690  0.1870 -0.1602 -0.0866
  156SAPE   H7X17409   5.316   4.008   7.694 -3.8166  1.5842 -3.1204
  156SAPE   H7Y17410   5.366   3.832   7.692  1.3239  1.1753  0.6520
  156SAPE   C3817411   5.185   3.884   7.815  0.2137 -0.0904  0.9334
  156SAPE   H8X17412   5.093   3.837   7.775 -0.7078  0.5550  2.2265
  156SAPE   H8Y17413   5.162   3.980   7.866  0.6802 -0.7288  2.4163
  156SAPE   C3917414   5.246   3.784   7.911 -0.2891 -0.3700 -0.3164
  156SAPE   H9X17415   5.342   3.820   7.954 -0.3802 -1.0976  0.5286
  156SAPE   H9Y17416   5.261   3.682   7.870 -0.8455 -1.3613  1.7921
  156SAPE  C31017417   5.155   3.762   8.033  0.4708  0.3719 -0.6588
  156SAPE  H10X17418   5.199   3.672   8.081  1.4812 -0.1753 -2.4991
  156SAPE  H10Y17419   5.054   3.722   8.013  1.2438 -0.9108 -2.1994
  156SAPE  C31117420   5.144   3.869   8.141  0.2045 -0.1125  0.3178
  156SAPE  H11X17421   5.075   3.936   8.086 -0.9143 -1.4267  0.0672
  156SAPE  H11Y17422   5.240   3.923   8.155  0.0797  0.5272 -1.1870
  156SAPE  C31217423   5.077   3.811   8.267 -0.3070  0.0811 -0.4522
  156SAPE  H12X17424   5.145   3.729   8.297  0.3724  0.8437  0.1471
  156SAPE  H12Y17425   4.978   3.766   8.242  0.3228 -1.0947 -0.8738
  156SAPE  C31317426   5.058   3.919   8.375 -0.6733  0.1594 -0.5548
  156SAPE  H13X17427   5.152   3.976   8.389 -0.2082 -0.9339  1.2019
  156SAPE  H13Y17428   5.045   3.866   8.472 -0.4933  0.6687 -0.2489
  156SAPE  C31417429   4.935   4.013   8.341 -0.3755 -0.5884 -0.3732
  156SAPE  H14X17430   4.857   3.944   8.304 -0.7589 -0.5255  0.3020
  156SAPE  H14Y17431   4.962   4.077   8.254 -0.3575 -1.6543 -1.1748
  156SAPE  C31517432   4.898   4.110   8.449 -0.5313 -0.1007 -1.0907
  156SAPE  H15X17433   4.984   4.166   8.492 -2.2446  0.5107  1.7869
  156SAPE  H15Y17434   4.852   4.049   8.529 -0.3848 -1.7413 -2.2097
  156SAPE  C31617435   4.795   4.220   8.400 -0.3701  0.1303  0.1630
  156SAPE  H16X17436   4.834   4.283   8.317 -1.4764 -0.4948 -0.8736
  156SAPE  H16Y17437   4.775   4.292   8.482  0.6478  1.2951 -0.5691
  156SAPE  C31717438   4.672   4.155   8.339  0.8540 -0.1506 -0.4645
  156SAPE  H17X17439   4.623   4.085   8.410 -1.8319  1.3812 -0.6719
  156SAPE  H17Y17440   4.707   4.100   8.249  4.0520  0.3975  0.3432
  156SAPE  C31817441   4.557   4.251   8.304 -0.5814 -0.2911 -0.0203
  156SAPE  H18X17442   4.458   4.203   8.317 -0.5591 -0.9496 -2.0067
  156SAPE  H18Y17443   4.557   4.291   8.200 -0.6782 -0.0800  0.0622
  156SAPE  H18Z17444   4.552   4.332   8.380 -3.7041 -1.2623  0.9142
  157SAPE     N17445   2.810   5.931   6.140  0.1114  0.7985 -0.4832
  157SAPE   HN117446   2.820   5.911   6.039 -0.3351 -2.6932  0.0276
  157SAPE   HN217447   2.741   5.859   6.170  3.4270 -2.8682 -0.7894
  157SAPE   HN317448   2.771   6.026   6.158 -2.1470  0.1178 -1.3996
  157SAPE   C1217449   2.942   5.914   6.207  0.4264 -1.0044 -0.7080
  157SAPE  H12A17450   2.935   5.938   6.315  0.9249 -1.7780 -0.4972
  157SAPE  H12B17451   3.009   5.990   6.160  0.1206 -0.1414  0.2107
  157SAPE   C1117452   3.010   5.776   6.187 -0.4877 -0.0980 -0.2406
  157SAPE  H11A17453   3.107   5.780   6.240 -0.5499  1.4765 -0.1798
  157SAPE  H11B17454   3.013   5.764   6.077 -2.0532 -0.7816 -0.2413
  157SAPE     P17455   2.952   5.525   6.202 -0.2622  0.0343  0.0822
  157SAPE   O1317456   2.858   5.490   6.092  0.1258  0.4375 -0.3540
  157SAPE   O1417457   3.098   5.516   6.171  0.4275  0.0974 -0.7348
  157SAPE   O1217458   2.927   5.675   6.234 -0.3765  0.7599 -0.6490
  157SAPE   O1117459   2.917   5.440   6.333  0.0470 -0.1984  0.2972
  157SAPE    C117460   2.848   5.504   6.441 -0.0163  0.5000 -0.3772
  157SAPE    HA17461   2.773   5.577   6.404 -1.6292 -1.2157 -0.7098
  157SAPE    HB17462   2.794   5.420   6.491 -3.5361  0.1624 -4.2174
  157SAPE    C217463   2.937   5.553   6.556 -0.8192 -0.3437 -0.0063
  157SAPE    HS17464   2.997   5.626   6.498 -1.8276 -0.7808 -1.6530
  157SAPE   O2117465   3.010   5.447   6.607  0.2633  0.3729 -0.1382
  157SAPE   C2117466   3.141   5.459   6.645  0.8223 -0.5437 -0.0580
  157SAPE   O2217467   3.211   5.556   6.619  0.5302  0.4392 -0.4279
  157SAPE   C2217468   3.193   5.348   6.730 -0.1937 -0.1944 -0.2867
  157SAPE   H2R17469   3.197   5.254   6.670 -1.6804 -1.0326  0.8713
  157SAPE   H2S17470   3.302   5.371   6.739 -0.1594 -0.6527  0.4885
  157SAPE    C317471   2.859   5.628   6.664 -0.7840 -0.4325 -0.3095
  157SAPE    HX17472   2.803   5.555   6.725 -0.0174  0.0800  1.0538
  157SAPE    HY17473   2.783   5.703   6.630 -0.5694  0.8803  1.8939
  157SAPE   O3117474   2.952   5.698   6.757 -0.4377  0.1559 -0.1252
  157SAPE   C3117475   2.997   5.813   6.713  0.3865 -0.0524 -1.0502
  157SAPE   O3217476   2.939   5.873   6.632  0.3369 -0.4823  0.1937
  157SAPE   C3217477   3.127   5.864   6.783  0.3754 -0.3716 -0.5010
  157SAPE   H2X17478   3.216   5.808   6.746  1.2308 -0.8209  2.0259
  157SAPE   H2Y17479   3.099   5.832   6.886 -0.2701 -0.1865 -0.6106
  157SAPE   C2317480   3.120   5.332   6.862  1.0061  0.5039  0.4967
  157SAPE   H3R17481   3.155   5.241   6.915  1.6996  0.3929 -0.1298
  157SAPE   H3S17482   3.014   5.324   6.831  1.1057 -0.6841  0.4328
  157SAPE   C2417483   3.121   5.452   6.952  0.4293  0.0275  0.2841
  157SAPE   H4R17484   3.032   5.431   7.015 -1.1705 -0.3103 -1.9806
  157SAPE   H4S17485   3.096   5.542   6.892  0.7431 -0.0137  0.0893
  157SAPE   C2517486   3.246   5.465   7.040  0.6320 -0.1247  0.3828
  157SAPE   H5R17487   3.327   5.512   6.982  0.3208  1.0606  0.8786
  157SAPE   C2617488   3.259   5.429   7.163  0.8427 -0.1573  0.0531
  157SAPE   H6R17489   3.356   5.455   7.207  0.2382 -0.1574  1.4679
  157SAPE   C2717490   3.152   5.353   7.251 -0.1400  0.3390  0.2454
  157SAPE   H7R17491   3.191   5.250   7.260  3.9976  1.3170 -3.3454
  157SAPE   H7S17492   3.061   5.329   7.192  0.6384 -1.2814 -0.3277
  157SAPE   C2817493   3.118   5.416   7.379 -1.0207 -0.9240  0.1565
  157SAPE   H8R17494   3.017   5.457   7.375 -0.9686 -0.7278  0.7787
  157SAPE   C2917495   3.194   5.397   7.489  0.0781 -0.5622  0.3729
  157SAPE   H9R17496   3.176   5.447   7.585  0.7143 -1.4746  0.9806
  157SAPE  C21017497   3.325   5.324   7.500 -0.1919 -0.0210  0.5251
  157SAPE  H10R17498   3.405   5.393   7.533  0.1539 -0.3797  0.4409
  157SAPE  H10S17499   3.362   5.283   7.404 -2.3620 -2.5009  0.6219
  157SAPE  C21117500   3.314   5.204   7.588 -0.1434  0.3336  0.2325
  157SAPE  H11R17501   3.258   5.124   7.536 -0.8969  1.0140 -0.0234
  157SAPE  C21217502   3.366   5.179   7.709 -0.1314 -0.1904 -0.1361
  157SAPE  H12R17503   3.351   5.081   7.756 -2.8897  0.2622  0.1042
  157SAPE  C21317504   3.459   5.271   7.782 -0.4279 -0.7286 -0.4782
  157SAPE  H13R17505   3.458   5.370   7.733 -0.5522  0.2941  1.4799
  157SAPE  H13S17506   3.557   5.220   7.791 -1.3293 -2.3793  0.4959
  157SAPE  C21417507   3.408   5.300   7.926 -0.1145  0.6014 -0.4561
  157SAPE  H14R17508   3.324   5.371   7.931 -0.4901  0.0653  2.7719
  157SAPE  C21517509   3.440   5.236   8.042  0.3268 -0.2254  0.0971
  157SAPE  H15R17510   3.376   5.266   8.127 -1.6994 -1.8598 -0.7590
  157SAPE  C21617511   3.538   5.125   8.066  0.2629 -0.5254  0.3010
  157SAPE  H16R17512   3.617   5.130   7.988 -1.1851  1.1961 -1.1711
  157SAPE  H16S17513   3.490   5.025   8.058  1.1854 -1.3876  3.9021
  157SAPE  C21717514   3.608   5.147   8.203  0.4269  0.5977  0.2742
  157SAPE  H17R17515   3.675   5.058   8.215  0.0480  0.0936 -1.1553
  157SAPE  H17S17516   3.529   5.144   8.281 -1.8646 -3.4081 -1.8738
  157SAPE  C21817517   3.677   5.285   8.212 -0.3356 -0.2606  0.9034
  157SAPE  H18R17518   3.603   5.368   8.207 -2.1877 -1.8556  0.6905
  157SAPE  H18S17519   3.748   5.300   8.129  0.2841 -0.6618  1.3518
  157SAPE  C21917520   3.744   5.314   8.350 -0.3307 -0.4138 -0.2720
  157SAPE  H19R17521   3.656   5.325   8.416  0.5198  3.1933  0.5070
  157SAPE  H19S17522   3.775   5.420   8.359 -2.6729  0.2972 -0.0289
  157SAPE  C22017523   3.835   5.209   8.420  1.2543 -0.0101 -0.0997
  157SAPE  H20R17524   3.789   5.110   8.397 -1.5280  1.5166 -1.5966
  157SAPE  H20S17525   3.849   5.223   8.529  2.0358 -1.9115  0.0945
  157SAPE  H20T17526   3.932   5.204   8.366  2.5245 -2.7319  2.1463
  157SAPE   C3317527   3.141   6.012   6.756  0.7535 -0.1147 -0.1538
  157SAPE   H3X17528   3.052   6.064   6.797 -0.3276  1.2749 -3.8262
  157SAPE   H3Y17529   3.139   6.029   6.646  1.0330 -0.6951 -0.2496
  157SAPE   C3417530   3.273   6.069   6.809 -0.2031  0.3079  0.3868
  157SAPE   H4X17531   3.274   6.180   6.809 -1.3581  0.3749  2.4268
  157SAPE   H4Y17532   3.367   6.040   6.759  0.4544  2.1700  0.4687
  157SAPE   C3517533   3.288   6.018   6.946 -0.2687 -0.3443  0.0752
  157SAPE   H5X17534   3.326   5.913   6.942  0.6110 -0.1179  1.5066
  157SAPE   H5Y17535   3.190   6.019   6.999 -0.1794  0.0524  0.2396
  157SAPE   C3617536   3.387   6.101   7.027  0.2365 -0.3210 -0.2125
  157SAPE   H6X17537   3.360   6.208   7.024  2.0154  0.1431 -1.2892
  157SAPE   H6Y17538   3.492   6.088   6.993  0.9048  1.6700  0.9660
  157SAPE   C3717539   3.392   6.066   7.173 -0.5838 -0.0156  0.1159
  157SAPE   H7X17540   3.308   6.112   7.229 -1.5045  0.6602 -1.7278
  157SAPE   H7Y17541   3.486   6.094   7.226 -0.4765 -0.4742  0.1750
  157SAPE   C3817542   3.388   5.914   7.202  0.7430 -0.2389  0.1825
  157SAPE   H8X17543   3.464   5.860   7.142 -0.2385  0.1937 -1.5186
  157SAPE   H8Y17544   3.289   5.875   7.172  0.7222  0.1333 -0.2534
  157SAPE   C3917545   3.391   5.879   7.347 -0.2931 -0.4912 -0.1590
  157SAPE   H9X17546   3.298   5.913   7.398 -0.4814 -0.2255 -0.6700
  157SAPE   H9Y17547   3.478   5.925   7.397  0.7060  0.1202 -2.3710
  157SAPE  C31017548   3.417   5.727   7.365 -0.0656  0.2368  0.7554
  157SAPE  H10X17549   3.482   5.690   7.284 -0.3719 -2.5573  1.6977
  157SAPE  H10Y17550   3.323   5.668   7.356 -0.5205  0.7852  1.6798
  157SAPE  C31117551   3.492   5.707   7.494 -0.7120 -0.0111  0.1724
  157SAPE  H11X17552   3.572   5.782   7.509 -1.0363  0.2740  0.5122
  157SAPE  H11Y17553   3.540   5.607   7.488 -1.8426 -0.5550 -0.1969
  157SAPE  C31217554   3.407   5.724   7.619 -0.2938  0.3895  0.3145
  157SAPE  H12X17555   3.326   5.648   7.620 -0.1684  0.2582  0.6760
  157SAPE  H12Y17556   3.351   5.819   7.631 -0.2861  0.4910 -0.4234
  157SAPE  C31317557   3.488   5.708   7.746 -0.4732 -0.8935 -0.1819
  157SAPE  H13X17558   3.568   5.784   7.750 -0.5263 -0.8394 -0.1358
  157SAPE  H13Y17559   3.531   5.606   7.734  0.5202 -0.7047  1.4369
  157SAPE  C31417560   3.406   5.703   7.875 -0.4709 -0.8824 -0.6911
  157SAPE  H14X17561   3.348   5.608   7.871 -0.8808 -0.7522  1.2989
  157SAPE  H14Y17562   3.341   5.791   7.895  1.3552  0.0166  1.8290
  157SAPE  C31517563   3.511   5.705   7.990  0.2317  0.0212 -0.0850
  157SAPE  H15X17564   3.550   5.808   8.001  0.1949  0.0100  0.1563
  157SAPE  H15Y17565   3.595   5.638   7.960  2.9699  2.7094  1.1460
  157SAPE  C31617566   3.463   5.666   8.134 -0.0908 -0.9296  0.2260
  157SAPE  H16X17567   3.457   5.556   8.146  1.7749 -1.3076 -1.7852
  157SAPE  H16Y17568   3.362   5.707   8.159  1.0883  3.5395 -1.3704
  157SAPE  C31717569   3.557   5.712   8.238  0.2309  0.0453  0.1310
  157SAPE  H17X17570   3.573   5.820   8.216  0.0062 -0.1280 -0.9361
  157SAPE  H17Y17571   3.661   5.676   8.222 -0.3590 -1.3567 -0.7322
  157SAPE  C31817572   3.519   5.685   8.389  0.8907 -0.9283  0.2927
  157SAPE  H18X17573   3.516   5.577   8.417  1.5481 -0.8403  0.7427
  157SAPE  H18Y17574   3.424   5.737   8.414  1.5529  0.2504  0.4245
  157SAPE  H18Z17575   3.598   5.730   8.453  0.8372 -0.3744 -0.0256
  158SAPE     N17576   4.210   5.140   6.168 -0.4783  0.1341 -0.2658
  158SAPE   HN117577   4.132   5.075   6.191 -1.1877  0.7888 -0.7273
  158SAPE   HN217578   4.241   5.182   6.258 -0.0541 -0.1638 -0.2732
  158SAPE   HN317579   4.173   5.212   6.101  2.6659  0.6186 -1.6736
  158SAPE   C1217580   4.313   5.054   6.101 -1.0189  0.2782  0.6653
  158SAPE  H12A17581   4.409   5.063   6.156 -0.6142 -3.5867  0.8516
  158SAPE  H12B17582   4.324   5.091   5.997 -0.7536 -0.9220  0.2490
  158SAPE   C1117583   4.277   4.906   6.107 -0.0937  0.1178  0.0547
  158SAPE  H11A17584   4.194   4.894   6.034  1.9185  1.3226 -2.6311
  158SAPE  H11B17585   4.258   4.880   6.213  2.6328  1.1503  0.8921
  158SAPE     P17586   4.389   4.665   6.098  0.2942  0.0919 -0.2046
  158SAPE   O1317587   4.270   4.592   6.051 -0.3300 -0.2503 -0.4693
  158SAPE   O1417588   4.520   4.617   6.044 -0.3759  0.6859 -1.0873
  158SAPE   O1217589   4.378   4.817   6.055  0.1930 -0.3118  0.1082
  158SAPE   O1117590   4.389   4.668   6.254  0.1976  0.4718  0.9057
  158SAPE    C117591   4.493   4.739   6.320 -0.8825  0.5743 -0.5285
  158SAPE    HA17592   4.578   4.668   6.327 -0.8685  0.3030 -2.7712
  158SAPE    HB17593   4.521   4.831   6.264  1.5772  1.6443  2.1421
  158SAPE    C217594   4.448   4.773   6.467 -0.2333  0.2089 -0.4026
  158SAPE    HS17595   4.422   4.680   6.522 -1.5337  0.6950 -0.1771
  158SAPE   O2117596   4.351   4.870   6.473  0.3138 -0.4765 -0.9854
  158SAPE   C2117597   4.229   4.821   6.493 -0.1770 -0.4242  0.5238
  158SAPE   O2217598   4.197   4.707   6.508  0.3246  0.1654  0.6153
  158SAPE   C2217599   4.124   4.939   6.486  0.2378 -0.3441  0.5055
  158SAPE   H2R17600   4.139   5.015   6.565  0.4576  0.5000 -0.3234
  158SAPE   H2S17601   4.133   4.988   6.386  0.2015 -0.5171  0.4170
  158SAPE    C317602   4.571   4.830   6.546 -0.1045  0.8527  0.5214
  158SAPE    HX17603   4.587   4.935   6.512  2.4387 -0.0972 -1.5398
  158SAPE    HY17604   4.662   4.773   6.516  0.7018  2.5410 -0.3809
  158SAPE   O3117605   4.540   4.824   6.683 -0.2107 -0.4550  0.5763
  158SAPE   C3117606   4.563   4.711   6.749 -0.5491  0.3801  1.3000
  158SAPE   O3217607   4.601   4.606   6.696  0.2291 -0.2701 -0.5144
  158SAPE   C3217608   4.540   4.731   6.894  0.2973 -0.6716 -0.0695
  158SAPE   H2X17609   4.490   4.640   6.935 -0.6797 -0.4663 -0.7793
  158SAPE   H2Y17610   4.476   4.820   6.909  3.7092  1.4625  3.7746
  158SAPE   C2317611   3.973   4.904   6.516 -0.4045 -0.2273  0.4524
  158SAPE   H3R17612   3.931   4.837   6.438 -0.5824  1.5704 -1.0575
  158SAPE   H3S17613   3.910   4.994   6.503 -1.3705 -0.6458  1.9974
  158SAPE   C2417614   3.948   4.833   6.649  1.1374  0.1492  0.7326
  158SAPE   H4R17615   3.992   4.731   6.655  2.4736  0.6957  0.7043
  158SAPE   H4S17616   3.841   4.807   6.660  0.6553  1.9928  0.7193
  158SAPE   C2517617   3.999   4.913   6.766 -0.2957 -0.1004  0.0758
  158SAPE   H5R17618   3.940   5.006   6.766  0.6984  0.5707  1.6167
  158SAPE   C2617619   4.077   4.875   6.870  0.3166  0.0324  0.5408
  158SAPE   H6R17620   4.128   4.955   6.925  1.4477  0.6747 -1.3274
  158SAPE   C2717621   4.144   4.743   6.894  0.0512 -0.1188 -0.8794
  158SAPE   H7R17622   4.253   4.756   6.915  0.5171 -0.0624 -3.0921
  158SAPE   H7S17623   4.132   4.686   6.799  1.2585  0.8816 -1.6677
  158SAPE   C2817624   4.087   4.658   7.003 -0.3274  0.0758  0.0243
  158SAPE   H8R17625   4.009   4.586   6.972 -0.0449 -1.3751  2.4016
  158SAPE   C2917626   4.124   4.657   7.131 -0.5776 -0.0301  0.1247
  158SAPE   H9R17627   4.076   4.587   7.201 -1.0695 -0.0544 -0.2305
  158SAPE  C21017628   4.217   4.756   7.194 -0.1148 -0.0257  0.1318
  158SAPE  H10R17629   4.163   4.817   7.270  0.5771 -0.8446  1.3318
  158SAPE  H10S17630   4.255   4.840   7.132  1.3174  1.9969  3.4324
  158SAPE  C21117631   4.343   4.701   7.253  0.4193  0.5094  0.3018
  158SAPE  H11R17632   4.400   4.639   7.182  0.2431  1.0394 -0.3108
  158SAPE  C21217633   4.392   4.719   7.378 -0.0879  0.5621 -0.7174
  158SAPE  H12R17634   4.484   4.662   7.397 -0.8948 -0.3267  0.6686
  158SAPE  C21317635   4.345   4.809   7.485  0.4662  0.3736  0.7539
  158SAPE  H13R17636   4.288   4.890   7.434  2.1548 -0.2305 -2.2895
  158SAPE  H13S17637   4.427   4.864   7.537  0.8480  0.5571 -0.0403
  158SAPE  C21417638   4.247   4.748   7.586 -0.8285 -0.4933  0.1332
  158SAPE  H14R17639   4.192   4.660   7.549 -0.0597 -1.4935  1.2983
  158SAPE  C21517640   4.216   4.815   7.697 -0.5425 -0.3789  0.4240
  158SAPE  H15R17641   4.142   4.770   7.766 -1.4598  1.5570  0.7672
  158SAPE  C21617642   4.265   4.948   7.752 -0.3456 -0.0211  0.1723
  158SAPE  H16R17643   4.267   5.027   7.674 -5.0542 -1.9570 -2.3230
  158SAPE  H16S17644   4.364   4.927   7.798  0.5541 -0.5984 -1.9054
  158SAPE  C21717645   4.184   5.006   7.867 -0.1018 -0.4115 -0.9393
  158SAPE  H17R17646   4.226   5.105   7.895 -2.1973  0.2993 -0.1325
  158SAPE  H17S17647   4.190   4.945   7.960  0.6241 -1.1594 -1.4573
  158SAPE  C21817648   4.031   5.027   7.847  0.2239 -0.1109  0.5008
  158SAPE  H18R17649   3.983   4.937   7.802  0.4906 -0.4008  0.7858
  158SAPE  H18S17650   4.028   5.095   7.760  2.6764 -1.2628 -0.5737
  158SAPE  C21917651   3.953   5.069   7.974 -0.1395  0.5442  0.3538
  158SAPE  H19R17652   3.945   4.980   8.040 -0.3943 -0.7254 -1.3266
  158SAPE  H19S17653   3.847   5.090   7.947 -0.0100 -1.9826 -2.8171
  158SAPE  C22017654   4.002   5.188   8.038  0.2818 -1.0866 -1.4263
  158SAPE  H20R17655   4.100   5.170   8.088 -0.5428 -0.8508  0.3405
  158SAPE  H20S17656   3.925   5.218   8.112  0.1338 -0.2142 -1.9130
  158SAPE  H20T17657   4.013   5.270   7.963  0.9743 -0.5305 -0.7418
  158SAPE   C3317658   4.674   4.759   6.966 -0.0866  0.1518 -0.2785
  158SAPE   H3X17659   4.716   4.854   6.926  1.7335 -0.3507  0.3444
  158SAPE   H3Y17660   4.748   4.678   6.949  0.3744  0.9090 -2.1169
  158SAPE   C3417661   4.663   4.769   7.118 -0.2320 -0.1511 -1.1297
  158SAPE   H4X17662   4.630   4.671   7.159 -0.4264  0.1788 -0.4914
  158SAPE   H4Y17663   4.593   4.849   7.149  0.1037  0.2685 -1.4404
  158SAPE   C3517664   4.802   4.799   7.175  0.5349 -0.3338  0.1646
  158SAPE   H5X17665   4.825   4.907   7.157 -2.2939  0.4464  0.7714
  158SAPE   H5Y17666   4.880   4.736   7.127  1.3431 -0.8277  2.0341
  158SAPE   C3617667   4.827   4.768   7.323  0.0900  0.0899  0.8539
  158SAPE   H6X17668   4.843   4.660   7.342  3.4012  0.2436 -0.4118
  158SAPE   H6Y17669   4.738   4.809   7.376 -0.8457  0.9177 -1.2372
  158SAPE   C3717670   4.952   4.831   7.379  0.2441 -0.3013 -0.2684
  158SAPE   H7X17671   5.044   4.796   7.327  1.0658 -1.4773  1.8590
  158SAPE   H7Y17672   4.959   4.942   7.374  0.1941 -0.2764  0.1599
  158SAPE   C3817673   4.997   4.780   7.515  0.9205 -0.4798  0.5215
  158SAPE   H8X17674   5.035   4.676   7.517  0.8567 -0.5890 -1.4812
  158SAPE   H8Y17675   4.922   4.785   7.597 -0.6078  1.7237 -0.8879
  158SAPE   C3917676   5.105   4.876   7.566  0.2048 -0.4069 -0.0522
  158SAPE   H9X17677   5.070   4.982   7.559 -0.8936 -0.7310  0.3118
  158SAPE   H9Y17678   5.205   4.872   7.518 -0.1462 -0.5749 -0.7793
  158SAPE  C31017679   5.129   4.873   7.719 -0.2221  0.2495 -0.4488
  158SAPE  H10X17680   5.032   4.867   7.774 -0.9919  1.2638 -1.6350
  158SAPE  H10Y17681   5.179   4.969   7.743  0.2512 -0.7255  3.1336
  158SAPE  C31117682   5.232   4.765   7.767  0.4690 -1.0905 -0.2673
  158SAPE  H11X17683   5.330   4.788   7.722  1.3539 -0.9854  1.6022
  158SAPE  H11Y17684   5.192   4.669   7.728  0.0611 -1.5782  1.2536
  158SAPE  C31217685   5.269   4.782   7.918  0.5035  0.1776  0.3552
  158SAPE  H12X17686   5.257   4.889   7.943  1.7500  0.7017 -1.1252
  158SAPE  H12Y17687   5.372   4.749   7.940 -0.1959 -2.1245  0.4600
  158SAPE  C31317688   5.174   4.713   8.022 -0.4795 -0.1853  0.2658
  158SAPE  H13X17689   5.181   4.605   7.997 -1.6669  0.1960 -2.0763
  158SAPE  H13Y17690   5.073   4.754   8.001  0.6880  2.0887 -1.3775
  158SAPE  C31417691   5.208   4.749   8.166  0.2960 -0.0915 -0.6870
  158SAPE  H14X17692   5.196   4.858   8.180 -0.9641  0.3099 -3.9484
  158SAPE  H14Y17693   5.316   4.734   8.182  0.4632  1.6057 -0.0890
  158SAPE  C31517694   5.117   4.685   8.277  0.6232 -0.6319  0.0018
  158SAPE  H15X17695   5.150   4.719   8.378  0.8587  0.8402 -0.5381
  158SAPE  H15Y17696   5.132   4.575   8.273  1.4668 -0.4961 -0.8203
  158SAPE  C31617697   4.958   4.721   8.269 -0.1810 -0.4503  0.2919
  158SAPE  H16X17698   4.922   4.703   8.166  0.0185  1.8185 -0.2270
  158SAPE  H16Y17699   4.940   4.828   8.294 -1.3942 -1.0849  2.3596
  158SAPE  C31717700   4.886   4.631   8.379  0.1122  0.3300 -0.1896
  158SAPE  H17X17701   4.914   4.525   8.364  1.8009  0.7618 -0.2239
  158SAPE  H17Y17702   4.782   4.642   8.340  0.4041  0.4854 -0.9402
  158SAPE  C31817703   4.906   4.685   8.517 -0.1553 -0.1947 -0.6004
  158SAPE  H18X17704   4.846   4.624   8.588 -0.6297 -0.0645 -0.8839
  158SAPE  H18Y17705   4.875   4.791   8.529 -2.4335 -0.5857 -2.3544
  158SAPE  H18Z17706   5.005   4.683   8.568 -1.8855 -0.6896  3.0617
  159SAPE     N17707   4.100   6.415   5.916  0.1824 -0.1499  0.4393
  159SAPE   HN117708   4.150   6.506   5.918  1.8985 -0.9937 -1.0734
  159SAPE   HN217709   4.131   6.353   5.839  0.4191 -1.9698  1.9339
  159SAPE   HN317710   3.997   6.423   5.901  0.1906  0.3546  0.6116
  159SAPE   C1217711   4.126   6.331   6.038 -0.1975 -0.6957 -0.1004
  159SAPE  H12A17712   4.232   6.353   6.062 -0.8702  1.3829  1.3009
  159SAPE  H12B17713   4.102   6.225   6.016  0.2622 -0.8057 -0.0727
  159SAPE   C1117714   4.042   6.375   6.158 -0.0768  0.6946  0.6245
  159SAPE  H11A17715   4.067   6.482   6.176  1.4494  0.2101  1.6409
  159SAPE  H11B17716   4.080   6.312   6.242  0.8133  0.9118  0.3996
  159SAPE     P17717   3.794   6.424   6.080 -0.1231 -0.1762  0.3665
  159SAPE   O1317718   3.822   6.421   5.937 -0.9240  0.3678 -0.1727
  159SAPE   O1417719   3.661   6.380   6.127 -0.0803  0.2952  0.1671
  159SAPE   O1217720   3.904   6.338   6.140 -0.0771 -0.2333  0.2974
  159SAPE   O1117721   3.830   6.564   6.134  0.1562 -0.0857 -0.3917
  159SAPE    C117722   3.782   6.630   6.249 -0.0062 -0.2224 -0.1197
  159SAPE    HA17723   3.793   6.740   6.236  2.5230 -0.4346 -0.3474
  159SAPE    HB17724   3.673   6.617   6.266  0.0108  1.1480  1.3301
  159SAPE    C217725   3.858   6.615   6.388 -0.1412  0.2092  0.7909
  159SAPE    HS17726   3.958   6.649   6.355 -1.1156  1.1233 -1.4019
  159SAPE   O2117727   3.873   6.476   6.418  0.7662  0.3513  0.4701
  159SAPE   C2117728   3.954   6.434   6.516  0.5933  0.2918  0.4677
  159SAPE   O2217729   4.038   6.506   6.563 -0.2458 -0.0404 -0.1003
  159SAPE   C2217730   3.922   6.294   6.560 -0.2780  0.6143 -0.1058
  159SAPE   H2R17731   3.883   6.231   6.478 -3.4606 -1.3791  2.6449
  159SAPE   H2S17732   4.014   6.250   6.603  0.3459 -0.0567 -2.0366
  159SAPE    C317733   3.801   6.693   6.508  0.3466 -0.8724 -0.1825
  159SAPE    HX17734   3.773   6.795   6.475  0.1257 -1.2870 -1.3034
  159SAPE    HY17735   3.879   6.698   6.587  1.5409 -0.2623 -1.3574
  159SAPE   O3117736   3.686   6.622   6.558 -0.4810 -0.3680 -0.0417
  159SAPE   C3117737   3.626   6.678   6.663 -0.4701  0.3538 -0.0288
  159SAPE   O3217738   3.656   6.787   6.708 -0.4700  0.2568 -0.0974
  159SAPE   C3217739   3.523   6.578   6.706 -0.8743  0.7655  0.0938
  159SAPE   H2X17740   3.567   6.479   6.679 -2.0550  0.0166  0.8197
  159SAPE   H2Y17741   3.441   6.605   6.636  0.0122  2.0950 -0.4671
  159SAPE   C2317742   3.820   6.290   6.680 -0.3428  0.7893  0.7678
  159SAPE   H3R17743   3.723   6.323   6.638 -0.9733 -4.0420 -2.4969
  159SAPE   H3S17744   3.863   6.353   6.760  0.2211  0.3777  0.8009
  159SAPE   C2417745   3.806   6.151   6.743 -0.0836 -0.5862  0.7116
  159SAPE   H4R17746   3.803   6.084   6.654 -0.5328  0.0962  0.2067
  159SAPE   H4S17747   3.709   6.145   6.796 -0.7074 -0.2106 -0.3587
  159SAPE   C2517748   3.922   6.114   6.828  0.3827  0.4393  0.6659
  159SAPE   H5R17749   4.018   6.103   6.775  0.9907  2.2640  1.3208
  159SAPE   C2617750   3.922   6.099   6.959 -0.4004  1.1018  0.0146
  159SAPE   H6R17751   4.014   6.065   7.008 -0.9312 -0.2813  0.1082
  159SAPE   C2717752   3.809   6.114   7.058  0.5467  0.3555 -0.3849
  159SAPE   H7R17753   3.713   6.071   7.021  0.6769  1.5486 -2.3035
  159SAPE   H7S17754   3.781   6.220   7.077 -0.6563  0.2217 -1.2641
  159SAPE   C2817755   3.842   6.041   7.190  0.1845  0.0332 -0.2513
  159SAPE   H8R17756   3.890   5.943   7.182  0.2327 -0.0449  0.8007
  159SAPE   C2917757   3.819   6.070   7.313 -0.8953 -0.1623 -0.5774
  159SAPE   H9R17758   3.852   6.002   7.392 -0.1411 -0.7189 -1.3461
  159SAPE  C21017759   3.746   6.195   7.369 -0.4500 -0.6076  0.1983
  159SAPE  H10R17760   3.679   6.248   7.297  0.0976 -0.0665  0.0824
  159SAPE  H10S17761   3.813   6.281   7.391 -0.2980 -0.6271 -0.1843
  159SAPE  C21117762   3.661   6.185   7.493 -0.4276  0.1672 -0.4104
  159SAPE  H11R17763   3.563   6.156   7.453 -0.3156  0.3289 -0.8071
  159SAPE  C21217764   3.695   6.191   7.622  0.2528  0.2902 -0.4235
  159SAPE  H12R17765   3.612   6.178   7.693  1.0873 -2.2317  0.1739
  159SAPE  C21317766   3.829   6.215   7.684 -0.2627  0.0868 -0.5971
  159SAPE  H13R17767   3.816   6.309   7.741  1.8758  0.4351 -0.5877
  159SAPE  H13S17768   3.902   6.229   7.601 -1.1798 -0.3469 -1.4940
  159SAPE  C21417769   3.878   6.104   7.764 -0.0344  0.2708 -0.5465
  159SAPE  H14R17770   3.871   6.006   7.714 -0.7847  0.2164 -0.3505
  159SAPE  C21517771   3.901   6.102   7.893 -0.3832  0.2776  0.3678
  159SAPE  H15R17772   3.939   6.011   7.942 -0.5080  0.1595  0.2453
  159SAPE  C21617773   3.886   6.226   7.978 -0.4238 -0.6762 -0.3410
  159SAPE  H16R17774   3.805   6.296   7.948 -0.0456 -0.3154 -0.5316
  159SAPE  H16S17775   3.973   6.287   7.943 -1.5075  0.0067 -1.9575
  159SAPE  C21717776   3.879   6.202   8.127 -0.9282  0.7720 -0.7830
  159SAPE  H17R17777   3.909   6.293   8.184  0.8956  0.1650 -0.6846
  159SAPE  H17S17778   3.949   6.119   8.155 -1.6262  0.6792  0.8089
  159SAPE  C21817779   3.739   6.155   8.184 -0.7525 -0.1587  0.0828
  159SAPE  H18R17780   3.706   6.057   8.144  0.3932  0.4742 -2.6415
  159SAPE  H18S17781   3.653   6.221   8.158 -1.3634 -0.6843  0.7217
  159SAPE  C21917782   3.744   6.156   8.337 -0.2385 -0.5635 -0.3018
  159SAPE  H19R17783   3.639   6.160   8.372  0.6233  0.0269  2.4064
  159SAPE  H19S17784   3.793   6.249   8.374 -1.4395 -0.3582  0.8307
  159SAPE  C22017785   3.815   6.034   8.394  0.1018  0.3699  0.3188
  159SAPE  H20R17786   3.779   5.938   8.350 -0.3318  2.0956 -3.4116
  159SAPE  H20S17787   3.805   6.041   8.505 -1.6399  2.2406  0.0848
  159SAPE  H20T17788   3.923   6.028   8.372 -0.4838 -3.5996 -2.4109
  159SAPE   C3317789   3.473   6.576   6.851 -0.0423  0.6891 -0.1813
  159SAPE   H3X17790   3.396   6.497   6.847 -0.3945  0.9912  0.4944
  159SAPE   H3Y17791   3.438   6.679   6.875  1.3942  0.9064  1.2165
  159SAPE   C3417792   3.568   6.522   6.958 -0.3529 -0.8224  0.5357
  159SAPE   H4X17793   3.652   6.593   6.970 -3.5753  3.4019  0.4444
  159SAPE   H4Y17794   3.598   6.417   6.936  2.5171 -0.1911  1.1013
  159SAPE   C3517795   3.505   6.502   7.101  0.2496 -1.2579 -0.3758
  159SAPE   H5X17796   3.465   6.400   7.122 -1.0372 -0.6892  0.0261
  159SAPE   H5Y17797   3.425   6.578   7.110  1.4009 -0.2553  3.1391
  159SAPE   C3617798   3.595   6.524   7.224  0.3003 -0.1686  0.3626
  159SAPE   H6X17799   3.654   6.614   7.195 -0.9331  0.0977 -1.5403
  159SAPE   H6Y17800   3.674   6.449   7.246  1.0946 -0.1645 -2.1383
  159SAPE   C3717801   3.512   6.570   7.341 -0.6529  0.7441  0.5148
  159SAPE   H7X17802   3.439   6.488   7.356  1.2073 -1.1216 -0.1449
  159SAPE   H7Y17803   3.472   6.671   7.320  2.5327  1.4268 -3.4185
  159SAPE   C3817804   3.594   6.573   7.474 -0.8233  0.3347 -0.2829
  159SAPE   H8X17805   3.660   6.661   7.479 -0.7172  0.2767  4.8136
  159SAPE   H8Y17806   3.655   6.480   7.468  1.1949  1.3755  2.1568
  159SAPE   C3917807   3.506   6.564   7.597 -0.6522 -0.0638 -0.7255
  159SAPE   H9X17808   3.419   6.496   7.585  1.9044 -3.4122 -1.9739
  159SAPE   H9Y17809   3.465   6.665   7.617 -2.0333 -0.7996  0.3119
  159SAPE  C31017810   3.592   6.522   7.730  0.4472  0.1833 -0.7086
  159SAPE  H10X17811   3.675   6.591   7.706 -1.0274  2.8575  1.3511
  159SAPE  H10Y17812   3.621   6.415   7.740 -1.5774 -0.2409  1.6029
  159SAPE  C31117813   3.514   6.564   7.859  0.1201 -0.0407 -0.5851
  159SAPE  H11X17814   3.474   6.667   7.860 -1.2643 -0.4833  3.0328
  159SAPE  H11Y17815   3.584   6.557   7.946  0.5334 -0.3993 -0.9382
  159SAPE  C31217816   3.398   6.475   7.903  0.5547  0.7884  0.4563
  159SAPE  H12X17817   3.309   6.500   7.840  1.7325  1.0408 -1.1594
  159SAPE  H12Y17818   3.373   6.507   8.007  1.5311  1.2125  0.5717
  159SAPE  C31317819   3.418   6.324   7.894 -0.2458  0.2189 -0.4715
  159SAPE  H13X17820   3.528   6.306   7.899 -0.6547 -2.3236  0.7441
  159SAPE  H13Y17821   3.372   6.281   7.803  2.0198 -0.0574 -1.5728
  159SAPE  C31417822   3.361   6.254   8.020  0.1891 -0.4552  0.1408
  159SAPE  H14X17823   3.251   6.263   8.003  0.6310 -0.5978 -3.6472
  159SAPE  H14Y17824   3.400   6.294   8.116 -0.9858 -1.8086  1.2404
  159SAPE  C31517825   3.388   6.104   8.014  1.0936  0.1533  0.5634
  159SAPE  H15X17826   3.494   6.085   8.040  0.7357 -1.2904  1.0891
  159SAPE  H15Y17827   3.354   6.060   7.918 -0.6311  2.1833  0.1647
  159SAPE  C31617828   3.304   6.022   8.125 -1.0075  0.6025  0.6093
  159SAPE  H16X17829   3.348   5.919   8.125 -0.5740  0.7702  1.8733
  159SAPE  H16Y17830   3.202   6.012   8.083 -1.1554  0.8953  0.8919
  159SAPE  C31717831   3.305   6.075   8.267 -0.8507  0.1142  0.0759
  159SAPE  H17X17832   3.285   6.184   8.275  1.6431  0.6326  0.0672
  159SAPE  H17Y17833   3.412   6.070   8.294 -0.8431 -1.0921 -0.1252
  159SAPE  C31817834   3.222   5.987   8.353 -0.4706 -0.1830  0.1733
  159SAPE  H18X17835   3.246   6.004   8.460 -0.9103 -0.1402  0.2650
  159SAPE  H18Y17836   3.248   5.883   8.325  1.3042  0.2896 -0.0832
  159SAPE  H18Z17837   3.112   6.000   8.342 -0.9906 -2.7096  1.6490
  160SAPE     N17838   5.404   5.580   6.513 -0.1510 -0.6560 -0.5518
  160SAPE   HN117839   5.335   5.508   6.543  0.1449 -0.3524  0.9360
  160SAPE   HN217840   5.505   5.554   6.519  0.4460  1.6895  1.1707
  160SAPE   HN317841   5.401   5.640   6.598  0.9042 -1.9671  0.4693
  160SAPE   C1217842   5.360   5.620   6.378 -0.3356 -0.5360 -0.2381
  160SAPE  H12A17843   5.358   5.532   6.310  2.6497 -1.5025  0.7550
  160SAPE  H12B17844   5.441   5.681   6.333 -2.0739  1.7975 -0.4014
  160SAPE   C1117845   5.220   5.699   6.395 -0.8777  0.5966  0.0077
  160SAPE  H11A17846   5.192   5.733   6.293 -0.2514 -2.0641 -1.1349
  160SAPE  H11B17847   5.238   5.779   6.469 -0.3159  1.1987 -0.7695
  160SAPE     P17848   4.974   5.626   6.452 -0.0436 -0.2793  0.4599
  160SAPE   O1317849   4.940   5.770   6.423 -0.1316 -0.1406 -0.1804
  160SAPE   O1417850   4.920   5.525   6.366 -0.0370  0.6663  0.0157
  160SAPE   O1217851   5.133   5.606   6.453  0.4428  0.8751  0.4067
  160SAPE   O1117852   4.929   5.600   6.599  0.6997 -0.4414  0.6687
  160SAPE    C117853   4.966   5.475   6.666  0.2849 -0.3768 -0.2564
  160SAPE    HA17854   4.901   5.389   6.637 -1.4060 -0.0946  2.3947
  160SAPE    HB17855   5.068   5.437   6.647  0.8549  0.4625  0.9895
  160SAPE    C217856   4.966   5.486   6.821 -0.2242  0.2678 -0.0256
  160SAPE    HS17857   4.859   5.494   6.849 -0.2105 -1.3137  0.5876
  160SAPE   O2117858   5.043   5.602   6.869 -0.7566  0.2526 -0.0983
  160SAPE   C2117859   4.967   5.708   6.905 -0.0729  0.1788  0.0045
  160SAPE   O2217860   4.847   5.718   6.912  0.4414  0.0746  0.2512
  160SAPE   C2217861   5.053   5.831   6.930 -0.3636  0.2654 -0.2492
  160SAPE   H2R17862   5.087   5.876   6.834  1.5295  1.3728  0.8647
  160SAPE   H2S17863   4.987   5.909   6.975 -1.6160 -1.3046  0.7498
  160SAPE    C317864   5.019   5.364   6.885 -0.1836  0.4751  0.3354
  160SAPE    HX17865   5.130   5.365   6.873  0.2401 -0.0585  3.5132
  160SAPE    HY17866   4.981   5.273   6.833  0.0469  0.4270  0.2461
  160SAPE   O3117867   4.975   5.360   7.018 -0.1122  0.2492  0.4081
  160SAPE   C3117868   5.058   5.395   7.116  0.1337 -0.2721  0.5288
  160SAPE   O3217869   5.169   5.444   7.104  0.5957 -0.3206  0.0903
  160SAPE   C3217870   5.000   5.359   7.256 -0.2782  0.6050  0.1720
  160SAPE   H2X17871   4.951   5.261   7.270 -0.5522  0.6282 -0.5701
  160SAPE   H2Y17872   4.934   5.449   7.261  0.1185  0.8924  0.3664
  160SAPE   C2317873   5.176   5.805   7.013  0.6545 -0.0038 -0.4280
  160SAPE   H3R17874   5.260   5.876   6.998  1.4246 -0.5383  1.0448
  160SAPE   H3S17875   5.217   5.706   6.981  2.9215  0.2599  1.3626
  160SAPE   C2417876   5.156   5.773   7.165  0.2652 -0.0271 -0.3053
  160SAPE   H4R17877   5.245   5.722   7.209  1.0835  1.2406 -0.4441
  160SAPE   H4S17878   5.078   5.696   7.180 -0.7838  0.8429 -1.1253
  160SAPE   C2517879   5.125   5.904   7.239 -0.2190  0.7608 -0.2834
  160SAPE   H5R17880   5.103   6.000   7.190 -3.1547  1.0078  1.3207
  160SAPE   C2617881   5.113   5.903   7.374 -0.8766 -0.7451  0.7415
  160SAPE   H6R17882   5.084   5.998   7.422  1.5689 -0.4689  1.8601
  160SAPE   C2717883   5.135   5.787   7.474 -0.6865 -0.7336  0.3565
  160SAPE   H7R17884   5.241   5.754   7.466  0.4844  2.8701 -1.4250
  160SAPE   H7S17885   5.079   5.696   7.443  1.8395 -2.5655  0.8159
  160SAPE   C2817886   5.113   5.814   7.616 -0.8042  1.1608 -0.4055
  160SAPE   H8R17887   5.033   5.886   7.638  0.0327  2.1650 -0.5903
  160SAPE   C2917888   5.151   5.728   7.717  0.3058  0.3944  0.1747
  160SAPE   H9R17889   5.119   5.759   7.818 -0.1769  2.0684 -0.4584
  160SAPE  C21017890   5.236   5.606   7.709  0.3069  0.3868 -0.4137
  160SAPE  H10R17891   5.259   5.580   7.604  4.1343  1.6440 -0.0492
  160SAPE  H10S17892   5.168   5.534   7.759  0.3422  2.2559  2.6392
  160SAPE  C21117893   5.368   5.617   7.783  0.2749 -0.4427 -0.3491
  160SAPE  H11R17894   5.448   5.672   7.732 -1.3781  1.1987 -1.2844
  160SAPE  C21217895   5.389   5.583   7.910 -0.2470  0.2502  0.4590
  160SAPE  H12R17896   5.491   5.583   7.950 -0.2283  0.3047  0.4121
  160SAPE  C21317897   5.298   5.512   8.003  0.3543 -0.8093 -0.6651
  160SAPE  H13R17898   5.191   5.537   7.986  0.2064  0.6148  1.8433
  160SAPE  H13S17899   5.314   5.558   8.103 -1.3250 -0.5660 -0.4801
  160SAPE  C21417900   5.321   5.368   8.008 -0.8733  0.3093 -0.0394
  160SAPE  H14R17901   5.324   5.327   7.906 -0.9429  0.4422 -0.0954
  160SAPE  C21517902   5.311   5.283   8.115 -0.2752  0.1275 -0.2099
  160SAPE  H15R17903   5.322   5.174   8.105 -0.2847 -0.1403  2.1194
  160SAPE  C21617904   5.277   5.318   8.258 -0.0389  0.4082  0.3338
  160SAPE  H16R17905   5.365   5.306   8.324  1.0525 -1.9836 -1.4042
  160SAPE  H16S17906   5.220   5.230   8.295 -0.4861 -0.6155 -2.4855
  160SAPE  C21717907   5.192   5.436   8.295  0.0587 -0.4624  0.1177
  160SAPE  H17R17908   5.117   5.450   8.214 -0.9921 -0.6033  1.0416
  160SAPE  H17S17909   5.254   5.527   8.308  1.4667 -1.4592  0.7694
  160SAPE  C21817910   5.114   5.411   8.415  0.6555  0.1437 -0.1809
  160SAPE  H18R17911   5.182   5.379   8.497 -1.5861 -2.3188  0.8831
  160SAPE  H18S17912   5.029   5.342   8.399 -0.5087  1.8285 -1.5841
  160SAPE  C21917913   5.039   5.538   8.473 -0.0733  0.0850 -0.8200
  160SAPE  H19R17914   5.042   5.524   8.584 -1.4953  0.0501 -0.7716
  160SAPE  H19S17915   4.933   5.535   8.442 -1.2846 -0.7436  2.8402
  160SAPE  C22017916   5.098   5.678   8.441  0.1475 -0.0364 -0.0676
  160SAPE  H20R17917   5.080   5.694   8.332  0.2547  1.1959  0.0830
  160SAPE  H20S17918   5.207   5.688   8.460  0.4437 -0.9090 -1.1829
  160SAPE  H20T17919   5.052   5.764   8.494  2.7848  0.6001  1.3621
  160SAPE   C3317920   5.106   5.366   7.367 -0.5532 -0.0015  0.2676
  160SAPE   H3X17921   5.061   5.348   7.467 -1.6000 -0.2528 -0.2385
  160SAPE   H3Y17922   5.141   5.471   7.365 -0.0427 -0.0746 -4.2332
  160SAPE   C3417923   5.222   5.269   7.354  0.3992 -0.6928  0.4353
  160SAPE   H4X17924   5.287   5.283   7.265  0.5581 -1.5471  0.4036
  160SAPE   H4Y17925   5.190   5.164   7.334 -2.0363  0.0338  0.1786
  160SAPE   C3517926   5.313   5.274   7.483 -0.1823  0.8895 -0.0063
  160SAPE   H5X17927   5.248   5.237   7.565  1.6393 -0.0288  1.0600
  160SAPE   H5Y17928   5.347   5.380   7.482  2.1047  0.2533 -2.9134
  160SAPE   C3617929   5.427   5.172   7.472  0.4059 -0.2571  0.0896
  160SAPE   H6X17930   5.519   5.221   7.433  0.1725  0.0571 -0.0795
  160SAPE   H6Y17931   5.398   5.085   7.409  1.4518  0.2858 -1.2079
  160SAPE   C3717932   5.471   5.112   7.602 -0.4870 -0.0252  0.1982
  160SAPE   H7X17933   5.568   5.060   7.584  1.9320  3.5837  1.5671
  160SAPE   H7Y17934   5.392   5.050   7.648 -1.5420 -0.2304 -1.7653
  160SAPE   C3817935   5.513   5.218   7.707 -0.3615  0.4641 -1.0284
  160SAPE   H8X17936   5.434   5.295   7.721  0.3788  1.3893 -1.7828
  160SAPE   H8Y17937   5.608   5.270   7.682  1.1185 -1.5162  0.1597
  160SAPE   C3917938   5.542   5.163   7.846  0.0594  0.2950  0.2545
  160SAPE   H9X17939   5.451   5.119   7.892 -0.4955  1.1075 -0.0317
  160SAPE   H9Y17940   5.563   5.251   7.912  0.9651 -0.2597  0.7317
  160SAPE  C31017941   5.653   5.050   7.862  0.7948 -1.1312  0.3541
  160SAPE  H10X17942   5.738   5.103   7.815 -0.8672  1.2933 -0.1280
  160SAPE  H10Y17943   5.616   4.960   7.808  0.0373 -0.4112 -0.3488
  160SAPE  C31117944   5.689   5.007   8.008 -0.0363 -1.5037  1.0788
  160SAPE  H11X17945   5.715   5.090   8.077 -0.2894  0.4109 -1.0044
  160SAPE  H11Y17946   5.780   4.945   7.989  1.2363  0.1273  1.6088
  160SAPE  C31217947   5.587   4.907   8.065 -0.5580 -0.0384  0.1155
  160SAPE  H12X17948   5.576   4.823   7.994 -0.1363  0.0987 -0.1162
  160SAPE  H12Y17949   5.484   4.949   8.078 -0.2268  0.5769  0.8751
  160SAPE  C31317950   5.615   4.851   8.201 -0.1000 -0.3898 -0.4647
  160SAPE  H13X17951   5.553   4.760   8.214  0.0171 -0.2842  0.9720
  160SAPE  H13Y17952   5.588   4.920   8.284 -3.3391 -2.7783  0.6771
  160SAPE  C31417953   5.763   4.820   8.223 -0.0395 -0.5127  0.1715
  160SAPE  H14X17954   5.825   4.912   8.230 -0.1108 -0.5468  1.5535
  160SAPE  H14Y17955   5.797   4.758   8.137 -2.0566  1.9097 -2.5459
  160SAPE  C31517956   5.782   4.747   8.362  0.4764 -0.5904  0.7269
  160SAPE  H15X17957   5.711   4.662   8.369  0.2658 -0.3157  2.5544
  160SAPE  H15Y17958   5.749   4.813   8.445 -1.7161 -2.0413  1.0791
  160SAPE  C31617959   5.929   4.722   8.396 -0.0873 -0.0114  0.1468
  160SAPE  H16X17960   5.934   4.673   8.496  0.4000 -0.4893 -0.1066
  160SAPE  H16Y17961   5.982   4.819   8.398  0.8983 -0.5294  2.4149
  160SAPE  C31717962   6.005   4.628   8.302 -0.2402 -0.0913  0.0646
  160SAPE  H17X17963   6.113   4.638   8.329 -0.1600 -0.3978 -0.1397
  160SAPE  H17Y17964   5.991   4.667   8.199  1.5611  1.0071  0.1849
  160SAPE  C31817965   5.952   4.489   8.305  0.9650 -0.0999 -0.1729
  160SAPE  H18X17966   6.005   4.426   8.230  1.5238  2.9307 -2.5408
  160SAPE  H18Y17967   5.846   4.474   8.276  1.5179 -2.0344 -1.3310
  160SAPE  H18Z17968   5.952   4.438   8.404  0.2479 -1.1277 -0.6813
  161SOPE     N17969   3.083   4.277  10.613  0.1297 -0.2625  0.3989
  161SOPE   HN117970   3.086   4.346  10.535 -1.6376 -2.3984 -1.7195
  161SOPE   HN217971   3.062   4.319  10.706 -0.5117  1.1132 -0.3247
  161SOPE   HN317972   3.178   4.237  10.627  0.6404  1.7181  3.3744
  161SOPE   C1217973   2.974   4.180  10.605  0.0199  0.7221 -0.2085
  161SOPE  H12A17974   2.965   4.142  10.501  0.0742 -0.1862  0.1114
  161SOPE  H12B17975   2.882   4.230  10.642 -0.3477 -1.0078  1.4105
  161SOPE   C1117976   2.998   4.056  10.696 -0.2064 -0.4331 -0.4843
  161SOPE  H11A17977   2.900   4.005  10.689  0.2855 -1.5418  0.4727
  161SOPE  H11B17978   3.031   4.090  10.796 -0.9625  0.6124 -0.5732
  161SOPE     P17979   3.169   3.860  10.676  0.2198  0.3155  0.3391
  161SOPE   O1317980   3.093   3.793  10.778  0.8106  0.2536 -0.3132
  161SOPE   O1417981   3.317   3.877  10.697 -0.1779  0.1814 -0.2572
  161SOPE   O1217982   3.100   3.987  10.626 -0.1934 -0.3226 -0.1347
  161SOPE   O1117983   3.154   3.772  10.552  0.1673 -0.4267  0.2317
  161SOPE    C117984   3.154   3.806  10.412  0.3034 -0.0159 -0.4862
  161SOPE    HA17985   3.245   3.763  10.364  1.1112  1.0581  0.0420
  161SOPE    HB17986   3.155   3.915  10.392  0.3704 -0.0471 -0.6612
  161SOPE    C217987   3.029   3.744  10.346  0.5045 -0.7619 -0.6262
  161SOPE    HS17988   3.026   3.639  10.382 -1.3566 -0.6383 -0.3177
  161SOPE   O2117989   3.027   3.759  10.204 -0.6224  0.2226 -0.0654
  161SOPE   C2117990   3.054   3.647  10.127 -0.1370 -0.0382 -0.0509
  161SOPE   O2217991   3.079   3.536  10.164  0.1049 -0.5046 -0.0189
  161SOPE   C2217992   3.052   3.683   9.980 -0.5060  0.1204 -0.8835
  161SOPE   H2R17993   3.153   3.650   9.948  0.2254 -0.4590  1.8130
  161SOPE   H2S17994   3.049   3.793   9.962  0.7188 -0.1437 -3.0627
  161SOPE    C317995   2.895   3.808  10.399 -0.3414 -0.5100 -0.2957
  161SOPE    HX17996   2.897   3.783  10.507 -1.8980  1.8307  0.3316
  161SOPE    HY17997   2.808   3.753  10.357 -0.7808  1.1261 -1.6470
  161SOPE   O3117998   2.874   3.951  10.374  0.1302  0.6440 -0.3220
  161SOPE   C3117999   2.798   3.986  10.263  0.3986 -0.0855 -0.1700
  161SOPE   O3218000   2.725   3.907  10.207  0.6020  0.8237  0.5749
  161SOPE   C3218001   2.839   4.132  10.221  0.0544  0.5901 -1.3346
  161SOPE   H2X18002   2.943   4.153  10.253  0.9748 -2.7470 -1.7097
  161SOPE   H2Y18003   2.761   4.200  10.260 -0.9850 -0.5032 -1.4413
  161SOPE   C2318004   2.933   3.626   9.905 -0.7084  0.2125 -0.0938
  161SOPE   H3R18005   2.838   3.643   9.960 -1.0205  0.5592 -0.7368
  161SOPE   H3S18006   2.943   3.516   9.890 -1.0391  0.1852 -0.1333
  161SOPE   C2418007   2.911   3.694   9.772 -0.0685 -0.7854 -0.5064
  161SOPE   H4R18008   2.816   3.648   9.737 -1.0487  0.1868  0.7838
  161SOPE   H4S18009   2.908   3.805   9.783  0.3254 -0.6766 -1.4094
  161SOPE   C2518010   3.027   3.667   9.671 -1.0061  1.0208  0.2857
  161SOPE   H5R18011   3.107   3.739   9.697 -0.2641  0.7885 -1.2101
  161SOPE   H5S18012   3.069   3.564   9.678 -1.7589  0.7627  1.2152
  161SOPE   C2618013   2.975   3.713   9.531 -0.7588  0.2841 -0.7206
  161SOPE   H6R18014   2.947   3.816   9.561  0.8471  1.0134 -1.5731
  161SOPE   H6S18015   3.063   3.728   9.464  0.2890 -2.7678 -0.2214
  161SOPE   C2718016   2.862   3.633   9.467  0.8352 -0.2581 -0.0105
  161SOPE   H7R18017   2.775   3.638   9.535 -0.6066  2.3211 -1.8237
  161SOPE   H7S18018   2.845   3.697   9.377  2.9104  0.3060 -0.0543
  161SOPE   C2818019   2.911   3.495   9.430 -0.0117  0.4568  0.1548
  161SOPE   H8R18020   2.930   3.442   9.526  2.5366 -1.0281 -1.0679
  161SOPE   H8S18021   2.824   3.438   9.392 -0.2335 -0.9858  2.6170
  161SOPE   C2918022   3.037   3.492   9.346 -0.2670  0.2799 -0.6787
  161SOPE   H9118023   3.134   3.496   9.398 -0.9826 -0.5839  0.7770
  161SOPE  C21018024   3.048   3.491   9.211  0.0839  0.4390  0.6206
  161SOPE  H10118025   3.144   3.477   9.160 -0.3742  2.1694 -0.7957
  161SOPE  C21118026   2.922   3.498   9.118  0.4997 -0.0185 -0.1772
  161SOPE  H11R18027   2.838   3.555   9.163 -1.6972 -1.2938 -2.3865
  161SOPE  H11S18028   2.888   3.394   9.100 -2.7594  0.8453  0.4940
  161SOPE  C21218029   2.947   3.553   8.977  0.6524  0.2877 -0.7158
  161SOPE  H12R18030   3.033   3.506   8.925  0.4409  0.9590 -1.7017
  161SOPE  H12S18031   2.965   3.662   8.988  1.8097  0.0035  0.4391
  161SOPE  C21318032   2.827   3.519   8.886  0.2794  0.5613  0.9534
  161SOPE  H13R18033   2.820   3.586   8.798 -3.5852 -1.3180 -0.3802
  161SOPE  H13S18034   2.730   3.535   8.937  0.1479  1.2923  0.4880
  161SOPE  C21418035   2.836   3.376   8.824  0.2572  0.1812 -0.1828
  161SOPE  H14R18036   2.798   3.306   8.901 -0.2332  1.0575  0.3919
  161SOPE  H14S18037   2.939   3.345   8.796  1.3289  2.8909  0.4357
  161SOPE  C21518038   2.741   3.363   8.702  0.3634  1.1850  0.1761
  161SOPE  H15R18039   2.765   3.446   8.632  0.3416  0.5246 -0.6229
  161SOPE  H15S18040   2.645   3.384   8.754 -1.7066  1.2769 -3.3331
  161SOPE  C21618041   2.747   3.222   8.625 -0.1640  0.4089 -0.0476
  161SOPE  H16R18042   2.735   3.137   8.696 -0.8396  0.6016  0.0724
  161SOPE  H16S18043   2.847   3.209   8.579 -0.3701 -0.9638 -0.1599
  161SOPE  C21718044   2.631   3.198   8.528 -0.1586 -0.1033 -0.0878
  161SOPE  H17R18045   2.649   3.106   8.467 -0.8922 -0.6009  0.4342
  161SOPE  H17S18046   2.637   3.281   8.454 -1.8996  0.0186 -0.1147
  161SOPE  C21818047   2.494   3.181   8.582 -0.5385 -0.9755 -1.0135
  161SOPE  H18R18048   2.498   3.111   8.669  0.6377 -1.3740 -1.3715
  161SOPE  H18S18049   2.426   3.150   8.500 -0.0603 -3.0285 -0.6951
  161SOPE  H18T18050   2.455   3.276   8.626  0.2281 -0.2822 -1.8151
  161SOPE   C3318051   2.827   4.150  10.070  0.1003 -0.8573 -0.1910
  161SOPE   H3X18052   2.864   4.253  10.051  0.7392 -1.2402 -1.0642
  161SOPE   H3Y18053   2.720   4.134  10.042  0.1324 -0.4731 -0.5451
  161SOPE   C3418054   2.918   4.044  10.000  0.0318  0.0898 -0.3432
  161SOPE   H4X18055   2.880   3.940   9.998  0.2090  0.0257 -1.8004
  161SOPE   H4Y18056   3.016   4.048  10.052  0.1252  1.1082 -0.5754
  161SOPE   C3518057   2.939   4.080   9.857  0.4851  0.2084 -0.5456
  161SOPE   H5X18058   3.007   4.009   9.804 -0.9386 -2.6617  1.2107
  161SOPE   H5Y18059   2.979   4.183   9.853 -0.3900  0.5265 -1.8418
  161SOPE   C3618060   2.812   4.091   9.771 -0.3243  0.1007  0.1885
  161SOPE   H6X18061   2.747   4.179   9.788 -3.7585 -1.2231 -4.3177
  161SOPE   H6Y18062   2.757   3.995   9.780  1.0823 -0.7147  0.5222
  161SOPE   C3718063   2.850   4.092   9.623 -0.0448 -0.4772 -0.0668
  161SOPE   H7X18064   2.756   4.057   9.576  0.1523 -0.6618 -0.3315
  161SOPE   H7Y18065   2.928   4.014   9.606 -1.1219 -1.7613  0.7068
  161SOPE   C3818066   2.875   4.233   9.574 -0.5587  0.0600  0.5017
  161SOPE   H8X18067   2.969   4.253   9.629 -0.3293 -0.9322  0.4983
  161SOPE   H8Y18068   2.797   4.309   9.595  0.3916  1.8714 -1.9672
  161SOPE   C3918069   2.891   4.240   9.423  0.2149 -0.4538 -0.0996
  161SOPE   H9X18070   2.802   4.193   9.375 -0.9432  0.4390  1.1292
  161SOPE   H9Y18071   2.974   4.172   9.392  3.8531  2.6846  1.9275
  161SOPE  C31018072   2.917   4.387   9.389  0.0462 -0.5610  0.2423
  161SOPE  H10X18073   3.015   4.428   9.422 -1.2057  2.0498  0.9955
  161SOPE  H10Y18074   2.844   4.449   9.445 -0.0525 -0.1814 -0.2961
  161SOPE  C31118075   2.904   4.425   9.238 -0.8747  0.4576 -1.1660
  161SOPE  H11X18076   2.884   4.535   9.236 -2.2214  0.2562 -0.1640
  161SOPE  H11Y18077   2.818   4.368   9.197 -0.4223  0.1284 -1.6618
  161SOPE  C31218078   3.042   4.389   9.174  0.1012  0.2965  0.2702
  161SOPE  H12X18079   3.033   4.280   9.157  1.5375  0.4732 -2.0039
  161SOPE  H12Y18080   3.132   4.404   9.237  0.6515  2.1698 -0.8688
  161SOPE  C31318081   3.060   4.448   9.034 -0.0127  0.2238 -0.1369
  161SOPE  H13X18082   3.151   4.402   8.989 -0.2490 -0.0917 -0.2992
  161SOPE  H13Y18083   3.077   4.558   9.034  1.7482  0.0332  2.3772
  161SOPE  C31418084   2.940   4.420   8.951  0.0678  0.0469  0.4738
  161SOPE  H14X18085   2.867   4.502   8.967  2.3866  2.6417 -1.2925
  161SOPE  H14Y18086   2.902   4.320   8.980 -1.2826  1.1177  2.6458
  161SOPE  C31518087   2.969   4.426   8.803  0.2932  0.3453 -0.3033
  161SOPE  H15X18088   3.051   4.359   8.769 -0.7223 -1.4035  0.5868
  161SOPE  H15Y18089   3.005   4.528   8.774  0.9434 -0.0651 -0.9852
  161SOPE  C31618090   2.837   4.393   8.726  0.0677 -0.8505 -0.0827
  161SOPE  H16X18091   2.864   4.400   8.618 -0.4640  0.6008 -0.1389
  161SOPE  H16Y18092   2.755   4.468   8.729  0.0355 -0.7169 -2.3315
  161SOPE  C31718093   2.779   4.255   8.752 -0.0051 -0.5302 -0.3480
  161SOPE  H17X18094   2.747   4.263   8.858 -0.6288  0.6583 -0.6117
  161SOPE  H17Y18095   2.863   4.183   8.740  1.6046  1.1724  0.2309
  161SOPE  C31818096   2.652   4.222   8.676  0.7118 -0.3594 -0.4810
  161SOPE  H18X18097   2.572   4.293   8.704  0.0546 -1.1288 -0.3731
  161SOPE  H18Y18098   2.618   4.118   8.692  1.6147 -0.7067 -0.7483
  161SOPE  H18Z18099   2.658   4.229   8.565 -1.0747 -1.5913 -0.6982
  162SOPE     N18100   0.438   3.254  10.687 -0.3449  0.5432 -0.3274
  162SOPE   HN118101   0.429   3.350  10.648  0.0145  1.3722  1.5501
  162SOPE   HN218102   0.536   3.219  10.682 -0.9280 -1.1343 -0.5469
  162SOPE   HN318103   0.393   3.184  10.625  1.3949 -0.0454 -0.9754
  162SOPE   C1218104   0.382   3.241  10.829  0.1375 -0.2264  0.1318
  162SOPE  H12A18105   0.347   3.340  10.865  1.7236  0.9434 -1.3870
  162SOPE  H12B18106   0.471   3.221  10.893 -0.9228  1.2988  2.2160
  162SOPE   C1118107   0.283   3.126  10.840 -0.2712  0.5753 -0.6912
  162SOPE  H11A18108   0.223   3.139  10.747 -0.3394  1.3196 -0.5552
  162SOPE  H11B18109   0.223   3.134  10.933  0.4105  1.6869 -0.3266
  162SOPE     P18110   0.289   2.874  10.893 -0.1209  0.1673 -0.0677
  162SOPE   O1318111   0.157   2.897  10.949  0.2321  0.0088 -0.2801
  162SOPE   O1418112   0.388   2.825  10.996 -0.3683  0.2741 -0.0044
  162SOPE   O1218113   0.358   3.008  10.833  0.4199  0.2149  0.5194
  162SOPE   O1118114   0.290   2.780  10.772  0.1533 -0.0528 -0.0684
  162SOPE    C118115   0.363   2.784  10.653  0.5799 -0.2716 -0.2172
  162SOPE    HA18116   0.375   2.684  10.607  1.2302 -0.2239 -0.1518
  162SOPE    HB18117   0.464   2.829  10.662 -1.1439  4.3772 -0.8801
  162SOPE    C218118   0.285   2.871  10.549 -0.3899 -0.7678 -0.2086
  162SOPE    HS18119   0.224   2.945  10.605 -0.6124 -1.3257  0.3003
  162SOPE   O2118120   0.200   2.781  10.481  0.9336 -0.6351 -0.3135
  162SOPE   C2118121   0.074   2.820  10.452 -0.1510 -0.4760 -0.4703
  162SOPE   O2218122   0.026   2.932  10.478 -0.2166  0.9444 -0.1562
  162SOPE   C2218123  -0.005   2.706  10.384 -0.3312 -0.5919  0.8528
  162SOPE   H2R18124  -0.105   2.704  10.433 -0.5475  1.6301  0.6070
  162SOPE   H2S18125   0.030   2.604  10.409 -0.6040 -1.4754 -2.0521
  162SOPE    C318126   0.384   2.940  10.453  0.7236 -0.8860 -0.3230
  162SOPE    HX18127   0.438   2.854  10.407  0.4240 -1.3760  0.2200
  162SOPE    HY18128   0.471   2.996  10.492 -0.2377  1.8795 -1.9076
  162SOPE   O3118129   0.314   3.007  10.345  0.6693  0.0415  0.0950
  162SOPE   C3118130   0.274   3.131  10.371 -0.5377 -0.3711 -0.1812
  162SOPE   O3218131   0.300   3.194  10.472  0.3773 -0.5642 -0.2580
  162SOPE   C3218132   0.226   3.185  10.237 -0.1750  0.1328  0.8319
  162SOPE   H2X18133   0.120   3.154  10.227 -0.0178 -0.0773 -0.2878
  162SOPE   H2Y18134   0.291   3.145  10.157 -1.3547 -2.1321  0.9159
  162SOPE   C2318135  -0.022   2.732  10.232  0.1373 -0.0307  0.3445
  162SOPE   H3R18136   0.073   2.758  10.180 -0.8154  2.4056 -0.2896
  162SOPE   H3S18137  -0.080   2.826  10.222 -0.6063 -0.4775  0.3700
  162SOPE   C2418138  -0.090   2.617  10.166  0.0283  0.0572  0.2403
  162SOPE   H4R18139  -0.028   2.530  10.195  0.0781 -0.4887 -1.3930
  162SOPE   H4S18140  -0.192   2.609  10.211 -0.6148  1.4668 -0.8852
  162SOPE   C2518141  -0.110   2.620  10.014  0.2472  0.1999 -0.1077
  162SOPE   H5R18142  -0.163   2.529   9.980 -1.1967  0.1996  1.9967
  162SOPE   H5S18143  -0.174   2.708   9.990 -2.4300 -1.5295  0.3302
  162SOPE   C2618144   0.020   2.619   9.940  0.1734  0.5462  0.3561
  162SOPE   H6R18145   0.096   2.690   9.980  1.9349  0.8568 -3.1666
  162SOPE   H6S18146   0.080   2.526   9.952  0.8419  0.7117 -1.4361
  162SOPE   C2718147  -0.010   2.641   9.788  0.6534 -0.2060  0.3454
  162SOPE   H7R18148  -0.073   2.554   9.758 -3.3623  2.1020  1.2528
  162SOPE   H7S18149  -0.063   2.736   9.765  0.7776 -0.0520  0.6854
  162SOPE   C2818150   0.114   2.633   9.698  0.4362  0.3725 -0.2202
  162SOPE   H8R18151   0.194   2.686   9.753  2.3736 -2.7149  0.2253
  162SOPE   H8S18152   0.151   2.528   9.702  2.4414  1.0221 -0.2158
  162SOPE   C2918153   0.090   2.680   9.553 -0.3222 -0.1799 -0.1980
  162SOPE   H9118154   0.075   2.789   9.547  0.6992  0.2209  2.8188
  162SOPE  C21018155   0.116   2.610   9.443  0.2444 -0.2219  0.4021
  162SOPE  H10118156   0.106   2.662   9.346  1.5934 -0.2594  0.2180
  162SOPE  C21118157   0.163   2.473   9.427  0.8444  0.2449  0.2745
  162SOPE  H11R18158   0.209   2.432   9.520  0.4919  0.1946  0.4296
  162SOPE  H11S18159   0.246   2.465   9.353  0.1935 -4.8344 -0.2268
  162SOPE  C21218160   0.048   2.382   9.373  0.0407 -0.5550 -0.0656
  162SOPE  H12R18161  -0.046   2.406   9.427 -0.2082 -3.1679  0.8210
  162SOPE  H12S18162   0.091   2.282   9.396  1.4749 -0.6204 -2.6658
  162SOPE  C21318163   0.019   2.387   9.220  0.8848 -0.4197 -0.2946
  162SOPE  H13R18164  -0.003   2.491   9.190  2.8508  1.0240  2.7690
  162SOPE  H13S18165  -0.071   2.326   9.194  0.5499 -1.0006  1.9986
  162SOPE  C21418166   0.134   2.327   9.144 -0.5680  0.6722 -0.0913
  162SOPE  H14R18167   0.142   2.218   9.160  0.3676  0.7143 -0.2235
  162SOPE  H14S18168   0.234   2.366   9.174 -0.1444  0.5795 -1.3379
  162SOPE  C21518169   0.130   2.361   8.997  0.3175  0.2639 -0.4631
  162SOPE  H15R18170   0.133   2.472   8.989  1.0045  0.3375  0.5634
  162SOPE  H15S18171   0.034   2.324   8.954  0.3957 -0.8618  0.2991
  162SOPE  C21618172   0.246   2.298   8.918  0.4904 -0.5090 -0.2867
  162SOPE  H16R18173   0.235   2.189   8.932 -0.8090 -0.3623 -0.0022
  162SOPE  H16S18174   0.342   2.329   8.966 -0.0122  0.3954  0.1804
  162SOPE  C21718175   0.248   2.345   8.777  0.1314  0.1720  0.2288
  162SOPE  H17R18176   0.341   2.299   8.737 -0.1575  0.2218 -0.5218
  162SOPE  H17S18177   0.236   2.455   8.766 -0.7429  0.0377 -0.2658
  162SOPE  C21818178   0.130   2.298   8.692 -0.3180  0.5026 -0.6053
  162SOPE  H18R18179   0.141   2.306   8.582 -1.8545  0.5275 -0.7699
  162SOPE  H18S18180   0.033   2.339   8.726 -0.8697  0.7117 -2.3294
  162SOPE  H18T18181   0.112   2.189   8.702 -0.1198  0.5992  1.0227
  162SOPE   C3318182   0.245   3.337  10.235  0.3104  0.1511  0.1707
  162SOPE   H3X18183   0.345   3.377  10.259 -0.1144  1.2175  0.1978
  162SOPE   H3Y18184   0.173   3.382  10.306  0.0039  0.0310 -0.0578
  162SOPE   C3418185   0.212   3.394  10.098 -0.3061 -0.7020 -0.4757
  162SOPE   H4X18186   0.269   3.349  10.013 -1.4652 -1.6955 -0.7599
  162SOPE   H4Y18187   0.232   3.503  10.103  0.0246 -0.8274  2.0016
  162SOPE   C3518188   0.064   3.383  10.059  0.4762  0.1337  0.2737
  162SOPE   H5X18189   0.018   3.448  10.137 -0.9157 -0.4768 -0.0104
  162SOPE   H5Y18190   0.037   3.277  10.077  0.1097  0.3169  0.8467
  162SOPE   C3618191   0.035   3.428   9.918  0.1572 -0.3922  0.5301
  162SOPE   H6X18192  -0.071   3.398   9.903  0.2111 -0.8467  1.0305
  162SOPE   H6Y18193   0.092   3.365   9.846 -0.2722 -0.7754  0.5202
  162SOPE   C3718194   0.052   3.575   9.886  0.1098  0.0715  0.0553
  162SOPE   H7X18195   0.159   3.597   9.904  0.4715 -2.0961  0.7718
  162SOPE   H7Y18196  -0.009   3.637   9.955  0.2181  0.0605  0.1607
  162SOPE   C3818197   0.024   3.606   9.742  0.7398 -0.0331 -0.3947
  162SOPE   H8X18198   0.008   3.716   9.736 -2.0459 -0.3255  0.1848
  162SOPE   H8Y18199  -0.076   3.569   9.710  1.0194 -0.5810 -0.6415
  162SOPE   C3918200   0.119   3.550   9.639  0.3703 -0.7220  0.0683
  162SOPE   H9X18201   0.094   3.443   9.624 -1.1822 -0.2552 -0.9696
  162SOPE   H9Y18202   0.216   3.559   9.691  0.2300  0.5686  0.1435
  162SOPE  C31018203   0.118   3.620   9.509  0.0669  0.4778  0.3125
  162SOPE  H10X18204   0.140   3.726   9.532 -0.6229  0.8737 -0.7607
  162SOPE  H10Y18205   0.012   3.604   9.478 -0.6463 -0.3352  2.9280
  162SOPE  C31118206   0.220   3.573   9.399  0.0700 -0.6904  0.0459
  162SOPE  H11X18207   0.233   3.463   9.390  1.9089 -0.4276 -1.1102
  162SOPE  H11Y18208   0.313   3.628   9.427  0.4798 -1.3290 -0.0398
  162SOPE  C31218209   0.172   3.624   9.261  0.5525  0.4650  0.2297
  162SOPE  H12X18210   0.175   3.735   9.263 -0.9788  0.5842 -1.2777
  162SOPE  H12Y18211   0.064   3.600   9.249  0.6884 -0.8705  1.3654
  162SOPE  C31318212   0.248   3.566   9.142 -1.4099  1.0399  0.4647
  162SOPE  H13X18213   0.256   3.455   9.152  1.4825  1.2195  0.9944
  162SOPE  H13Y18214   0.351   3.606   9.144  0.0017 -2.2510  0.1115
  162SOPE  C31418215   0.181   3.591   9.008  0.2907  0.4151 -0.1620
  162SOPE  H14X18216   0.172   3.702   8.999  0.4749  0.3465 -1.3399
  162SOPE  H14Y18217   0.073   3.566   9.019 -0.1678  1.9471 -0.8274
  162SOPE  C31518218   0.236   3.509   8.896  0.5544  0.0230  0.4775
  162SOPE  H15X18219   0.165   3.502   8.811  1.3096  1.3124 -0.2945
  162SOPE  H15Y18220   0.250   3.403   8.925  2.2696 -1.0313 -3.5058
  162SOPE  C31618221   0.363   3.557   8.829  0.2943  0.0640  0.0560
  162SOPE  H16X18222   0.439   3.548   8.910 -1.0584  0.6659  1.4444
  162SOPE  H16Y18223   0.351   3.660   8.790 -0.5550 -0.4937 -1.2182
  162SOPE  C31718224   0.412   3.484   8.703 -0.2976  0.0969 -0.4956
  162SOPE  H17X18225   0.515   3.514   8.675 -0.0660 -2.9552 -3.6486
  162SOPE  H17Y18226   0.341   3.525   8.628 -0.2543  3.4799  1.1525
  162SOPE  C31818227   0.406   3.330   8.724  0.6765 -0.5009 -0.0663
  162SOPE  H18X18228   0.446   3.312   8.826  1.0414  1.3719  0.1522
  162SOPE  H18Y18229   0.470   3.262   8.663 -1.6043 -3.4485  0.5974
  162SOPE  H18Z18230   0.300   3.297   8.725 -0.3128  2.3737 -0.8530
  163SOPE     N18231   3.512   0.046  10.998  0.2644 -0.3871 -0.2502
  163SOPE   HN118232   3.443   0.034  11.075  0.1550 -1.3200 -0.4809
  163SOPE   HN218233   3.488   0.132  10.945  1.5100  0.6410  0.7920
  163SOPE   HN318234   3.504  -0.035  10.932 -0.7971 -0.7063  0.2517
  163SOPE   C1218235   3.651   0.044  11.063 -0.5730  0.1915 -0.5349
  163SOPE  H12A18236   3.654  -0.060  11.103 -0.6589  0.0932 -0.7774
  163SOPE  H12B18237   3.643   0.111  11.151 -2.0902  2.1056 -2.0243
  163SOPE   C1118238   3.758   0.080  10.960 -0.0012 -0.0013 -0.2773
  163SOPE  H11A18239   3.859   0.111  10.994  0.9863 -1.0921 -2.0203
  163SOPE  H11B18240   3.739   0.176  10.906 -0.1537  1.3240  2.0332
  163SOPE     P18241   3.906  -0.039  10.788  0.0769  0.1351  0.3412
  163SOPE   O1318242   3.896  -0.142  10.682 -0.5164  0.1041  0.5517
  163SOPE   O1418243   4.024  -0.060  10.879 -0.0131  0.1550 -0.2509
  163SOPE   O1218244   3.768  -0.028  10.868  0.2129  0.2945 -0.6292
  163SOPE   O1118245   3.911   0.103  10.711 -0.5868  0.2140  0.1215
  163SOPE    C118246   3.828   0.126  10.601 -0.5537 -0.4542 -0.4145
  163SOPE    HA18247   3.767   0.217  10.616 -0.4266 -0.4986  0.4266
  163SOPE    HB18248   3.756   0.044  10.579 -0.3792  0.0457 -3.2070
  163SOPE    C218249   3.915   0.134  10.472  0.1036 -0.0673 -0.0576
  163SOPE    HS18250   3.838   0.132  10.392 -2.2753  0.0794  2.1111
  163SOPE   O2118251   4.009   0.022  10.451  0.6118 -0.4690 -0.1731
  163SOPE   C2118252   3.965  -0.097  10.399  0.4112  0.8961  0.2208
  163SOPE   O2218253   3.853  -0.111  10.356  0.0848  0.3868 -1.2934
  163SOPE   C2218254   4.084  -0.196  10.386  0.3433  0.2823 -0.0157
  163SOPE   H2R18255   4.065  -0.282  10.454 -1.3798 -0.4306 -1.3276
  163SOPE   H2S18256   4.177  -0.140  10.405  1.4440 -0.8186 -1.8362
  163SOPE    C318257   3.995   0.266  10.458  0.5039 -0.3479 -0.1639
  163SOPE    HX18258   4.073   0.263  10.536 -1.2547 -1.2229  1.6313
  163SOPE    HY18259   3.930   0.352  10.486  2.2099  0.0162  3.1750
  163SOPE   O3118260   4.061   0.279  10.332  0.3060 -0.2144  0.1232
  163SOPE   C3118261   3.975   0.290  10.231 -0.5808  0.7226  0.1579
  163SOPE   O3218262   3.855   0.289  10.231  0.3618 -0.1699  0.1553
  163SOPE   C3218263   4.055   0.290  10.103  0.7370  0.6066 -0.8036
  163SOPE   H2X18264   4.049   0.183  10.076  1.6960  0.0160  1.0999
  163SOPE   H2Y18265   4.159   0.325  10.120  1.2998 -1.3247 -0.0088
  163SOPE   C2318266   4.095  -0.270  10.244 -0.1309 -0.6136 -0.4566
  163SOPE   H3R18267   4.014  -0.341  10.218  0.9899 -2.2320  0.2927
  163SOPE   H3S18268   4.182  -0.337  10.259 -1.0074 -1.1237  3.6427
  163SOPE   C2418269   4.116  -0.181  10.124 -0.0731  0.3704 -0.2044
  163SOPE   H4R18270   4.018  -0.147  10.086 -0.1986  1.2316  0.8198
  163SOPE   H4S18271   4.176  -0.096  10.166  1.3502 -1.2114  1.1347
  163SOPE   C2518272   4.186  -0.250  10.008 -0.2861 -0.6361  0.4067
  163SOPE   H5R18273   4.290  -0.282  10.032  0.0091 -1.9309 -2.3048
  163SOPE   H5S18274   4.126  -0.334   9.968  0.7329 -1.3705  0.3745
  163SOPE   C2618275   4.219  -0.160   9.882  0.1214  0.7720 -0.0739
  163SOPE   H6R18276   4.117  -0.123   9.857  0.3719  1.4070 -0.1561
  163SOPE   H6S18277   4.290  -0.077   9.901  0.9003  0.0526  0.2052
  163SOPE   C2718278   4.263  -0.244   9.760 -0.5294 -0.1476 -1.0392
  163SOPE   H7R18279   4.365  -0.281   9.784 -0.9000  1.0794  3.2945
  163SOPE   H7S18280   4.200  -0.333   9.742 -0.1118 -0.6676  0.0032
  163SOPE   C2818281   4.274  -0.165   9.624  1.1139 -0.1125 -0.1046
  163SOPE   H8R18282   4.176  -0.133   9.584  1.4167  1.8165  0.5955
  163SOPE   H8S18283   4.328  -0.072   9.654 -0.4686  0.2330  1.9101
  163SOPE   C2918284   4.345  -0.240   9.510  0.4815 -0.1869 -0.3093
  163SOPE   H9118285   4.343  -0.350   9.522  1.1108 -0.2240 -0.4671
  163SOPE  C21018286   4.430  -0.197   9.424 -0.2548 -0.1067  0.3392
  163SOPE  H10118287   4.476  -0.273   9.360  3.0862  0.4820  1.8190
  163SOPE  C21118288   4.486  -0.053   9.419  0.3225  0.2702  0.3894
  163SOPE  H11R18289   4.456   0.007   9.507 -0.3716  0.2480  0.1702
  163SOPE  H11S18290   4.433   0.002   9.339  0.5960  1.0430  0.7216
  163SOPE  C21218291   4.643  -0.049   9.409  0.0262 -1.2288  0.6039
  163SOPE  H12R18292   4.695  -0.108   9.487  3.8277  0.9369 -0.0619
  163SOPE  H12S18293   4.677   0.055   9.430  2.4400 -1.5771 -1.1733
  163SOPE  C21318294   4.700  -0.091   9.274  0.5943 -0.1244  0.7504
  163SOPE  H13R18295   4.712  -0.201   9.276  0.3295 -0.1399  1.6448
  163SOPE  H13S18296   4.803  -0.050   9.275  0.0579  1.5839 -1.9234
  163SOPE  C21418297   4.622  -0.036   9.156  0.4063 -0.0576  0.9118
  163SOPE  H14R18298   4.584   0.068   9.169  1.0969  0.4912 -1.0458
  163SOPE  H14S18299   4.532  -0.099   9.139  0.5672 -0.3820  1.2612
  163SOPE  C21518300   4.701  -0.049   9.023 -0.0928  0.2486 -0.0508
  163SOPE  H15R18301   4.745  -0.151   9.018  1.3915  0.9048 -1.1145
  163SOPE  H15S18302   4.779   0.029   9.032 -1.7814  1.7921  2.4679
  163SOPE  C21618303   4.618  -0.017   8.897 -0.4334  0.3687 -0.6609
  163SOPE  H16R18304   4.595   0.092   8.903  1.3640  0.7154  1.9017
  163SOPE  H16S18305   4.530  -0.084   8.897 -0.6786  0.4655  3.1988
  163SOPE  C21718306   4.697  -0.033   8.767  0.1291 -0.0993 -0.6116
  163SOPE  H17R18307   4.735  -0.136   8.752  1.8647  0.3043  0.7136
  163SOPE  H17S18308   4.786   0.033   8.762  0.7855 -0.8818  0.4030
  163SOPE  C21818309   4.608  -0.005   8.648  0.3192  0.0133  0.0476
  163SOPE  H18R18310   4.551   0.089   8.665 -0.0228 -0.0675 -0.6165
  163SOPE  H18S18311   4.529  -0.083   8.641  0.5592 -0.3489  1.1687
  163SOPE  H18T18312   4.661   0.011   8.552  2.1002  2.6863  1.3377
  163SOPE   C3318313   3.997   0.385   9.993  0.3538 -0.1499 -0.1728
  163SOPE   H3X18314   4.000   0.492  10.023 -1.2279 -0.1577  0.0834
  163SOPE   H3Y18315   3.887   0.381   9.985  0.3108  0.0787  0.2544
  163SOPE   C3418316   4.052   0.359   9.852 -0.0157 -0.3331  0.5092
  163SOPE   H4X18317   4.008   0.260   9.824 -4.0994  1.1365  1.1100
  163SOPE   H4Y18318   4.160   0.352   9.876 -0.0595 -1.6706  0.4268
  163SOPE   C3518319   4.039   0.478   9.752  0.3302 -0.2020 -0.0582
  163SOPE   H5X18320   4.084   0.566   9.803  0.0818  1.1239 -2.0597
  163SOPE   H5Y18321   3.935   0.508   9.731  0.9260  1.4046 -0.8777
  163SOPE   C3618322   4.125   0.457   9.630  0.5650 -0.2609  0.5280
  163SOPE   H6X18323   4.108   0.350   9.605 -1.1472  0.0625  0.2266
  163SOPE   H6Y18324   4.233   0.483   9.640  0.3712  1.4856 -1.2765
  163SOPE   C3718325   4.083   0.550   9.514  0.9182 -0.6479 -1.2227
  163SOPE   H7X18326   4.086   0.654   9.551  0.9078 -0.8495 -0.6454
  163SOPE   H7Y18327   3.975   0.536   9.492  0.3272  1.8970 -0.2143
  163SOPE   C3818328   4.168   0.542   9.389 -0.1917  0.7608 -0.9619
  163SOPE   H8X18329   4.265   0.594   9.392 -0.7323  1.9403 -2.6079
  163SOPE   H8Y18330   4.119   0.604   9.311  1.1668  3.2438  0.0695
  163SOPE   C3918331   4.185   0.392   9.344  1.0583 -0.1687 -0.7552
  163SOPE   H9X18332   4.090   0.340   9.370  1.1369  0.6684  1.4185
  163SOPE   H9Y18333   4.260   0.341   9.409  0.9967  0.0485 -0.5107
  163SOPE  C31018334   4.224   0.372   9.205  0.0601  0.4335  0.1595
  163SOPE  H10X18335   4.317   0.430   9.189  0.3680  0.0787  0.6138
  163SOPE  H10Y18336   4.144   0.414   9.142 -0.0422 -1.3376 -0.9702
  163SOPE  C31118337   4.228   0.223   9.164 -0.2802  0.1135  0.2696
  163SOPE  H11X18338   4.129   0.175   9.181 -0.2171 -1.1349 -2.3476
  163SOPE  H11Y18339   4.309   0.170   9.218 -1.5099 -2.1239  0.0521
  163SOPE  C31218340   4.249   0.194   9.014  0.4343  0.1591  1.1696
  163SOPE  H12X18341   4.344   0.231   8.971 -1.4269  1.9128 -1.7916
  163SOPE  H12Y18342   4.166   0.244   8.960 -0.3040 -1.8242  0.3863
  163SOPE  C31318343   4.241   0.045   8.975 -0.3265  0.2099  0.3884
  163SOPE  H13X18344   4.147   0.003   9.015 -0.7283  1.5959  0.9538
  163SOPE  H13Y18345   4.322  -0.009   9.030 -0.4002 -1.5030 -1.0885
  163SOPE  C31418346   4.254   0.015   8.825  0.0194 -0.1543  0.2295
  163SOPE  H14X18347   4.350   0.061   8.793  0.6876 -1.7719 -0.1586
  163SOPE  H14Y18348   4.168   0.060   8.771 -0.0952  0.9813  1.3089
  163SOPE  C31518349   4.262  -0.136   8.797  0.1325  0.8892 -0.4939
  163SOPE  H15X18350   4.336  -0.178   8.869  0.5614  1.0304 -0.8499
  163SOPE  H15Y18351   4.292  -0.156   8.692 -3.2460 -0.3764 -1.3262
  163SOPE  C31618352   4.131  -0.208   8.804  0.1547  0.8847  0.6002
  163SOPE  H16X18353   4.051  -0.153   8.751  0.1328 -0.4393 -0.8277
  163SOPE  H16Y18354   4.103  -0.214   8.911  0.2070 -0.6741  0.5510
  163SOPE  C31718355   4.123  -0.349   8.743  0.0380  0.1357 -0.3774
  163SOPE  H17X18356   4.031  -0.398   8.783 -0.1528  0.4388 -0.4419
  163SOPE  H17Y18357   4.212  -0.407   8.776  1.4796  0.8427 -2.8238
  163SOPE  C31818358   4.105  -0.358   8.594  0.4233 -0.1385 -0.8542
  163SOPE  H18X18359   4.189  -0.307   8.543 -0.5553  1.5226 -0.8761
  163SOPE  H18Y18360   4.013  -0.307   8.560 -0.7126 -2.8118 -2.1540
  163SOPE  H18Z18361   4.097  -0.466   8.568  0.1040 -0.3553  0.0956
  164SOPE     N18362   6.740   5.640  11.055 -0.2174  1.0365  0.1313
  164SOPE   HN118363   6.764   5.665  10.956 -0.3870  0.1639 -0.1341
  164SOPE   HN218364   6.832   5.632  11.103 -0.7624  1.8927  1.3689
  164SOPE   HN318365   6.697   5.546  11.048 -0.0315  0.5878  3.5672
  164SOPE   C1218366   6.640   5.718  11.142  0.1549  0.2148  0.7133
  164SOPE  H12A18367   6.689   5.808  11.185 -0.2975  1.1623 -0.6598
  164SOPE  H12B18368   6.597   5.655  11.222 -1.2675  0.2895  0.0319
  164SOPE   C1118369   6.527   5.769  11.047 -0.2556  0.1563 -0.2487
  164SOPE  H11A18370   6.580   5.841  10.983 -0.0326  0.3445  0.1420
  164SOPE  H11B18371   6.455   5.832  11.104  0.5916  0.7285  0.2179
  164SOPE     P18372   6.365   5.686  10.853 -0.1389  0.3481  0.2026
  164SOPE   O1318373   6.239   5.752  10.900 -0.8991  0.4815  0.3925
  164SOPE   O1418374   6.336   5.561  10.784  0.1119 -0.0099  0.0194
  164SOPE   O1218375   6.460   5.658  10.977  0.5894 -0.5378  0.1401
  164SOPE   O1118376   6.463   5.770  10.758 -0.3476  0.3109 -0.8484
  164SOPE    C118377   6.457   5.913  10.755  0.9769  0.2620 -0.7357
  164SOPE    HA18378   6.488   5.956  10.853  2.5633 -1.3344 -0.4774
  164SOPE    HB18379   6.350   5.931  10.731  0.4945 -1.8022 -0.3083
  164SOPE    C218380   6.546   5.968  10.638  0.1997  0.3347 -0.6381
  164SOPE    HS18381   6.494   6.050  10.584 -1.5997 -0.0408  0.4241
  164SOPE   O2118382   6.578   5.868  10.539 -0.4256 -0.1643  0.3272
  164SOPE   C2118383   6.471   5.826  10.476  0.0325  0.9075 -0.0450
  164SOPE   O2218384   6.358   5.871  10.481  1.0064 -0.2772 -0.1472
  164SOPE   C2218385   6.516   5.698  10.396 -0.2618  0.1900  0.2533
  164SOPE   H2R18386   6.482   5.611  10.456 -1.9778 -1.5988 -3.0103
  164SOPE   H2S18387   6.627   5.696  10.397 -0.2671 -1.0527  1.5017
  164SOPE    C318388   6.681   6.016  10.692 -0.1810  0.0787  0.0325
  164SOPE    HX18389   6.727   5.923  10.731 -0.7021 -0.7491 -1.2953
  164SOPE    HY18390   6.669   6.090  10.775 -1.7109 -0.8049  0.6288
  164SOPE   O3118391   6.771   6.072  10.590 -0.0176  0.5741 -0.3372
  164SOPE   C3118392   6.737   6.196  10.540 -0.9561  0.8088 -0.6173
  164SOPE   O3218393   6.642   6.262  10.578 -0.0451  0.2243  0.0584
  164SOPE   C3218394   6.822   6.229  10.420 -0.7334  0.1109  0.0680
  164SOPE   H2X18395   6.857   6.133  10.376  2.3178  0.7382  0.9443
  164SOPE   H2Y18396   6.905   6.288  10.464 -1.2436  0.5827  0.4032
  164SOPE   C2318397   6.453   5.684  10.261 -0.0180  0.0501 -0.2955
  164SOPE   H3R18398   6.350   5.726  10.254  0.5038  1.4761  0.1681
  164SOPE   H3S18399   6.449   5.575  10.242  0.9944 -0.6872  3.0925
  164SOPE   C2418400   6.540   5.733  10.140  1.4714 -0.3309 -0.2462
  164SOPE   H4R18401   6.642   5.690  10.146  1.3301 -0.5785  0.4407
  164SOPE   H4S18402   6.488   5.688  10.052  0.0053 -2.4493  1.5773
  164SOPE   C2518403   6.559   5.884  10.137  0.1639  0.1203 -0.1169
  164SOPE   H5R18404   6.467   5.946  10.138  1.3362  1.9599  1.3121
  164SOPE   H5S18405   6.617   5.909  10.228  0.6711 -1.3592 -0.0106
  164SOPE   C2618406   6.648   5.931  10.020  0.6424  0.3064  0.2341
  164SOPE   H6R18407   6.671   6.037  10.043  0.0280  0.1816  1.4549
  164SOPE   H6S18408   6.744   5.874  10.024  1.3291  1.4930  1.9789
  164SOPE   C2718409   6.577   5.913   9.880  0.6866 -0.3571  0.0429
  164SOPE   H7R18410   6.646   5.952   9.802 -0.9642  0.5049 -1.0404
  164SOPE   H7S18411   6.552   5.806   9.868  0.0239 -0.3766  1.4585
  164SOPE   C2818412   6.447   5.996   9.860  0.4479  0.4355  0.0379
  164SOPE   H8R18413   6.372   5.942   9.921  1.2393  0.0357  0.6838
  164SOPE   H8S18414   6.472   6.099   9.896  1.2325  0.3944 -0.3695
  164SOPE   C2918415   6.394   6.028   9.723  0.0454  0.1737  0.3462
  164SOPE   H9118416   6.345   6.126   9.720 -2.2734 -0.9436 -2.8520
  164SOPE  C21018417   6.420   5.961   9.606  0.6618  0.1449  0.3469
  164SOPE  H10118418   6.366   5.985   9.513  0.1331 -2.2389 -0.0307
  164SOPE  C21118419   6.495   5.837   9.577 -0.2923  0.3395  0.1254
  164SOPE  H11R18420   6.599   5.840   9.617 -1.7766  2.5802  4.4742
  164SOPE  H11S18421   6.503   5.821   9.468 -1.9309 -2.2812  0.3106
  164SOPE  C21218422   6.447   5.705   9.630 -0.4386  0.7085  0.3987
  164SOPE  H12R18423   6.436   5.703   9.741 -4.9664 -2.1374  0.1440
  164SOPE  H12S18424   6.512   5.620   9.603 -1.1421  0.5169 -0.7286
  164SOPE  C21318425   6.299   5.674   9.603  0.9794 -0.1840  0.5731
  164SOPE  H13R18426   6.289   5.679   9.492 -1.3283  2.3593  0.7824
  164SOPE  H13S18427   6.231   5.750   9.648  1.3692  0.3008  0.3496
  164SOPE  C21418428   6.254   5.539   9.660 -0.3673 -0.8839 -0.0671
  164SOPE  H14R18429   6.250   5.533   9.770  2.0103 -0.8839  0.0560
  164SOPE  H14S18430   6.326   5.466   9.618  0.7888  1.1002 -1.7306
  164SOPE  C21518431   6.116   5.488   9.616 -0.4653 -0.3827  0.3303
  164SOPE  H15R18432   6.053   5.579   9.604  0.5077  0.1419 -1.1505
  164SOPE  H15S18433   6.082   5.412   9.690  2.6939 -0.3543  1.9718
  164SOPE  C21618434   6.126   5.425   9.477  0.7342  0.4244  1.1522
  164SOPE  H16R18435   6.173   5.495   9.405  2.5753  0.0980  1.9643
  164SOPE  H16S18436   6.021   5.416   9.442  1.8789 -2.4283 -2.0435
  164SOPE  C21718437   6.191   5.283   9.466  0.2405  0.1858 -0.3005
  164SOPE  H17R18438   6.273   5.277   9.541 -0.6540  0.7921  0.7498
  164SOPE  H17S18439   6.234   5.274   9.364  1.4841 -0.2872  0.2377
  164SOPE  C21818440   6.094   5.165   9.494 -0.0882  0.1720 -0.1134
  164SOPE  H18R18441   6.151   5.069   9.491  0.3637  0.4683 -1.1066
  164SOPE  H18S18442   6.024   5.162   9.408  0.6443 -0.2835 -0.6987
  164SOPE  H18T18443   6.036   5.181   9.588 -0.1523 -1.1895  0.1116
  164SOPE   C3318444   6.758   6.318  10.310 -0.5640 -0.1478  0.5246
  164SOPE   H3X18445   6.694   6.396  10.357  0.5532 -1.0735  3.8613
  164SOPE   H3Y18446   6.694   6.249  10.250 -0.5510 -0.6313  1.0614
  164SOPE   C3418447   6.864   6.380  10.219  0.1380  0.2464 -0.0842
  164SOPE   H4X18448   6.939   6.305  10.186 -0.2186  0.0608 -0.4798
  164SOPE   H4Y18449   6.917   6.460  10.274  2.1982  1.4374 -3.5740
  164SOPE   C3518450   6.791   6.436  10.092 -0.0646  0.2726 -0.4738
  164SOPE   H5X18451   6.856   6.511  10.043 -3.1954  2.1146 -2.0943
  164SOPE   H5Y18452   6.694   6.489  10.109  0.2633  0.4257  1.1642
  164SOPE   C3618453   6.775   6.322   9.995  0.2342  0.0482  0.1822
  164SOPE   H6X18454   6.705   6.240  10.023 -0.4375  0.2341 -0.8847
  164SOPE   H6Y18455   6.871   6.277   9.965 -0.2789 -0.8758 -0.1214
  164SOPE   C3718456   6.722   6.368   9.860  0.5654 -0.2792  0.2129
  164SOPE   H7X18457   6.769   6.465   9.831 -0.9285  0.9463  1.6147
  164SOPE   H7Y18458   6.613   6.388   9.869  0.3823  0.6601 -2.8712
  164SOPE   C3818459   6.745   6.266   9.753 -0.0445 -0.4947  0.0651
  164SOPE   H8X18460   6.709   6.167   9.788 -2.6519  0.5478  0.5893
  164SOPE   H8Y18461   6.852   6.256   9.727 -0.2544 -1.3237 -0.5063
  164SOPE   C3918462   6.675   6.312   9.620 -0.2283  0.0853  0.0363
  164SOPE   H9X18463   6.737   6.396   9.580  1.1878 -0.3780  1.1653
  164SOPE   H9Y18464   6.566   6.330   9.626 -0.5890 -1.7675 -0.3948
  164SOPE  C31018465   6.704   6.203   9.507 -0.2292 -0.5954  0.0781
  164SOPE  H10X18466   6.684   6.097   9.535  0.5532 -0.6589  0.4063
  164SOPE  H10Y18467   6.815   6.210   9.507 -0.3091  2.0853  2.1993
  164SOPE  C31118468   6.645   6.228   9.366 -0.6012  0.3643 -0.1627
  164SOPE  H11X18469   6.708   6.313   9.331  0.2851  0.0679  0.6691
  164SOPE  H11Y18470   6.540   6.263   9.374 -1.0889 -1.3621  2.6138
  164SOPE  C31218471   6.648   6.111   9.264 -0.3018  0.3597  0.5548
  164SOPE  H12X18472   6.581   6.134   9.178  1.0094 -2.9593 -1.5352
  164SOPE  H12Y18473   6.606   6.015   9.299 -2.0806  1.2716  1.0617
  164SOPE  C31318474   6.790   6.084   9.199  0.6082 -0.2644  0.1801
  164SOPE  H13X18475   6.856   6.077   9.288  0.0707  1.1045  0.7227
  164SOPE  H13Y18476   6.814   6.174   9.138 -2.2387 -0.0704 -0.7834
  164SOPE  C31418477   6.802   5.956   9.113  0.1986  0.1250 -0.2307
  164SOPE  H14X18478   6.898   5.957   9.057  0.0533  1.9124 -0.4922
  164SOPE  H14Y18479   6.722   5.954   9.036 -0.3877 -1.9984  0.3485
  164SOPE  C31518480   6.792   5.827   9.196  0.9583  0.0110 -0.0856
  164SOPE  H15X18481   6.774   5.738   9.133  0.1546 -0.8473  1.2960
  164SOPE  H15Y18482   6.708   5.833   9.270 -1.2390 -0.6199 -2.3836
  164SOPE  C31618483   6.932   5.796   9.258  0.9355  0.2692  0.1809
  164SOPE  H16X18484   6.956   5.870   9.337 -1.9979  1.0404  0.4577
  164SOPE  H16Y18485   7.008   5.788   9.177  2.0882  1.9226  1.0436
  164SOPE  C31718486   6.939   5.667   9.344 -0.0531  0.3203  0.1775
  164SOPE  H17X18487   7.038   5.620   9.360 -0.6331 -0.5669  1.2984
  164SOPE  H17Y18488   6.887   5.593   9.279 -0.8390  0.4545  0.6483
  164SOPE  C31818489   6.864   5.667   9.482 -0.2063  0.2457  0.0741
  164SOPE  H18X18490   6.903   5.577   9.534  1.8690  1.5942  0.9878
  164SOPE  H18Y18491   6.757   5.645   9.461  0.2390  0.0588 -2.2159
  164SOPE  H18Z18492   6.870   5.758   9.546 -0.2670 -0.1485  0.6504
  165SOPE     N18493   5.876   6.614  11.024 -0.5548 -0.0569  0.5719
  165SOPE   HN118494   5.943   6.694  11.018  0.5653 -0.9411  0.8007
  165SOPE   HN218495   5.932   6.526  11.019 -0.6885 -0.2306  1.8965
  165SOPE   HN318496   5.830   6.618  10.931  1.4643 -0.2712 -0.5072
  165SOPE   C1218497   5.795   6.608  11.144 -0.0087  0.1313  0.6761
  165SOPE  H12A18498   5.734   6.701  11.146  1.0006  0.8046  1.2754
  165SOPE  H12B18499   5.856   6.588  11.234 -0.6781 -1.1580  0.8645
  165SOPE   C1118500   5.694   6.491  11.151  0.8173  0.4551  0.1152
  165SOPE  H11A18501   5.642   6.493  11.249  1.5213  2.4059  0.4917
  165SOPE  H11B18502   5.749   6.394  11.151 -1.4996 -0.9408 -0.0967
  165SOPE     P18503   5.589   6.395  10.924  0.1708  0.2811 -0.3675
  165SOPE   O1318504   5.483   6.438  10.835 -0.0959  0.1794 -0.8281
  165SOPE   O1418505   5.578   6.255  10.973  0.1913 -0.2943  0.3341
  165SOPE   O1218506   5.596   6.494  11.051  0.2010  0.1757 -0.6133
  165SOPE   O1118507   5.730   6.414  10.849  0.4498  0.4100 -0.2596
  165SOPE    C118508   5.797   6.282  10.828  0.4435 -0.9173  0.0577
  165SOPE    HA18509   5.725   6.206  10.791 -0.4193  0.3826 -1.0232
  165SOPE    HB18510   5.845   6.245  10.922  0.8772 -0.7387 -0.0898
  165SOPE    C218511   5.901   6.303  10.723  0.0421 -1.0826  0.1539
  165SOPE    HS18512   5.974   6.371  10.771 -2.2803  1.3678  0.4816
  165SOPE   O2118513   5.837   6.359  10.603 -0.0096  0.5832 -0.0351
  165SOPE   C2118514   5.917   6.440  10.531  0.4485  0.2919 -0.0431
  165SOPE   O2218515   6.013   6.497  10.579 -0.1781 -0.5018  0.1651
  165SOPE   C2218516   5.870   6.445  10.393 -0.3754 -0.7606  0.0255
  165SOPE   H2R18517   5.766   6.485  10.394  0.8875  2.9709  0.7739
  165SOPE   H2S18518   5.870   6.343  10.349  0.3295 -1.4091  1.4494
  165SOPE    C318519   5.977   6.160  10.692  0.2806  0.0166  0.3197
  165SOPE    HX18520   5.899   6.098  10.645 -1.9005 -0.4136  4.1375
  165SOPE    HY18521   6.013   6.116  10.787  0.9369 -0.9132 -0.3425
  165SOPE   O3118522   6.083   6.194  10.596  0.1745  0.1302 -0.5179
  165SOPE   C3118523   6.201   6.228  10.641  0.7973  0.2133  0.2337
  165SOPE   O3218524   6.238   6.216  10.756  0.2835  0.6130 -0.7156
  165SOPE   C3218525   6.285   6.284  10.523 -0.2593 -0.1259 -0.1691
  165SOPE   H2X18526   6.390   6.272  10.559  0.4091  0.3883 -1.8384
  165SOPE   H2Y18527   6.272   6.394  10.529  0.9641  0.2234 -2.7760
  165SOPE   C2318528   5.951   6.541  10.300 -0.3879  0.3113 -0.4329
  165SOPE   H3R18529   6.061   6.527  10.309 -0.4616 -0.1069 -0.1813
  165SOPE   H3S18530   5.930   6.646  10.331  1.3004  0.7298 -0.5752
  165SOPE   C2418531   5.908   6.534  10.158 -0.4810  0.3762  0.3935
  165SOPE   H4R18532   5.917   6.426  10.135  0.6228 -0.3289  3.6272
  165SOPE   H4S18533   5.798   6.550  10.162 -0.4561  0.2987  1.6674
  165SOPE   C2518534   5.985   6.638  10.077  0.4197  0.0228 -0.0119
  165SOPE   H5R18535   5.979   6.725  10.147  0.5243 -0.3813  0.5044
  165SOPE   H5S18536   6.092   6.613  10.061 -0.0933 -1.5829 -1.1341
  165SOPE   C2618537   5.914   6.646   9.945 -0.1709  0.7626 -0.5068
  165SOPE   H6R18538   5.939   6.553   9.890 -0.5683  1.0809 -1.2380
  165SOPE   H6S18539   5.806   6.654   9.969  0.4264  2.9962  1.8973
  165SOPE   C2718540   5.947   6.777   9.866  0.4006  0.7414  0.7395
  165SOPE   H7R18541   6.057   6.785   9.852  0.6345 -2.4431 -0.0568
  165SOPE   H7S18542   5.903   6.772   9.764 -0.6113 -2.2330  1.2252
  165SOPE   C2818543   5.894   6.900   9.939 -0.0170  0.1427  0.0633
  165SOPE   H8R18544   5.794   6.866   9.973 -1.1262  0.9112 -2.2180
  165SOPE   H8S18545   5.958   6.911  10.029 -0.7266 -1.3764  0.7837
  165SOPE   C2918546   5.890   7.026   9.861 -0.2974  0.0810  0.3613
  165SOPE   H9118547   5.988   7.075   9.868  0.4324 -1.4430  1.4896
  165SOPE  C21018548   5.803   7.071   9.773 -0.3318  0.0478  0.5227
  165SOPE  H10118549   5.812   7.172   9.730  0.1607  0.2587  1.1110
  165SOPE  C21118550   5.674   7.003   9.741  0.1563 -0.2802  0.3678
  165SOPE  H11R18551   5.601   7.086   9.754  0.1793 -0.3363  0.8473
  165SOPE  H11S18552   5.646   6.923   9.812  2.3440 -0.1245  1.4991
  165SOPE  C21218553   5.658   6.959   9.593  0.8492  0.4782  0.1003
  165SOPE  H12R18554   5.554   6.920   9.589  1.3689 -1.1022  1.0116
  165SOPE  H12S18555   5.725   6.872   9.576  0.3183 -0.0888  0.8347
  165SOPE  C21318556   5.688   7.065   9.480  0.1711  0.3126 -0.1082
  165SOPE  H13R18557   5.777   7.124   9.511  1.6345 -1.4838 -0.6702
  165SOPE  H13S18558   5.607   7.139   9.464  0.8684  1.1747  0.2379
  165SOPE  C21418559   5.720   6.988   9.351 -0.1834 -0.2019 -0.6167
  165SOPE  H14R18560   5.653   6.901   9.336  2.2941 -2.2240 -0.4058
  165SOPE  H14S18561   5.823   6.947   9.356  0.0030  0.3040  3.7511
  165SOPE  C21518562   5.717   7.074   9.226 -0.2386  0.2542  0.3051
  165SOPE  H15R18563   5.781   7.161   9.251 -1.3715  0.7737  1.4499
  165SOPE  H15S18564   5.614   7.112   9.210 -0.8085 -0.8337  1.1970
  165SOPE  C21618565   5.792   7.014   9.106 -0.1752  0.0758 -0.3734
  165SOPE  H16R18566   5.898   6.998   9.134  0.1076  0.1110 -1.3908
  165SOPE  H16S18567   5.790   7.096   9.030  2.0507  1.1744  0.6524
  165SOPE  C21718568   5.727   6.894   9.044 -0.3575 -0.0136  0.2312
  165SOPE  H17R18569   5.703   6.817   9.121  0.5449 -1.3336 -0.7666
  165SOPE  H17S18570   5.802   6.850   8.975  0.4046  2.2341 -0.4849
  165SOPE  C21818571   5.591   6.935   8.984  0.1778 -0.5980  0.3658
  165SOPE  H18R18572   5.541   6.845   8.942 -1.4968  1.1315 -1.5403
  165SOPE  H18S18573   5.604   7.013   8.907 -0.8803 -0.3093  0.4585
  165SOPE  H18T18574   5.528   6.973   9.067  0.4865  0.2496  0.2118
  165SOPE   C3318575   6.251   6.233  10.382 -0.1897 -0.4339 -0.4210
  165SOPE   H3X18576   6.152   6.276  10.354 -0.9443 -3.0693 -2.1537
  165SOPE   H3Y18577   6.259   6.123  10.367 -3.0156 -0.6043 -1.4133
  165SOPE   C3418578   6.352   6.304  10.282 -0.5606 -0.1438 -0.3773
  165SOPE   H4X18579   6.459   6.282  10.305  0.6103  2.2485 -2.8524
  165SOPE   H4Y18580   6.341   6.412  10.303  0.8971 -0.5221  2.8983
  165SOPE   C3518581   6.335   6.273  10.135  0.9656  0.4128  0.1469
  165SOPE   H5X18582   6.310   6.166  10.117 -0.7803  0.8222 -0.0065
  165SOPE   H5Y18583   6.421   6.311  10.077  0.8810  0.4673  0.0575
  165SOPE   C3618584   6.212   6.348  10.083  0.4209 -0.0623 -0.1946
  165SOPE   H6X18585   6.209   6.451  10.126 -2.1155 -0.1645  0.0762
  165SOPE   H6Y18586   6.126   6.289  10.122 -0.8181  0.3467 -2.1306
  165SOPE   C3718587   6.198   6.361   9.935 -0.2969 -0.3675  0.0022
  165SOPE   H7X18588   6.097   6.399   9.908 -0.0928  1.2659  1.3557
  165SOPE   H7Y18589   6.203   6.259   9.889  0.0433 -0.7142  0.7896
  165SOPE   C3818590   6.297   6.453   9.870 -0.5556  0.4623  0.3286
  165SOPE   H8X18591   6.396   6.428   9.914 -1.7661  1.3996  3.9608
  165SOPE   H8Y18592   6.282   6.560   9.897 -2.2267  0.0245  1.3129
  165SOPE   C3918593   6.284   6.437   9.717  0.0718 -0.3727 -0.2679
  165SOPE   H9X18594   6.175   6.428   9.698 -0.3349 -1.5810  2.1879
  165SOPE   H9Y18595   6.331   6.339   9.695 -0.6099 -1.0352  1.1144
  165SOPE  C31018596   6.350   6.542   9.630  0.3491 -0.6913  0.3963
  165SOPE  H10X18597   6.459   6.550   9.651  0.4687 -0.6540 -0.1928
  165SOPE  H10Y18598   6.292   6.635   9.645 -3.6828 -2.8962 -0.2394
  165SOPE  C31118599   6.314   6.504   9.486 -0.1199 -0.1852  0.3015
  165SOPE  H11X18600   6.205   6.485   9.476 -0.1506 -0.1493  0.5664
  165SOPE  H11Y18601   6.363   6.406   9.469  2.7907  1.0219  1.1371
  165SOPE  C31218602   6.360   6.585   9.368 -0.0487 -0.4319  0.7504
  165SOPE  H12X18603   6.470   6.594   9.366 -0.0814  0.3268 -1.6779
  165SOPE  H12Y18604   6.324   6.690   9.375 -1.7624 -0.9524  0.2761
  165SOPE  C31318605   6.332   6.509   9.239 -0.7969  0.3960 -0.0773
  165SOPE  H13X18606   6.223   6.489   9.239 -0.9502  1.1266  1.2450
  165SOPE  H13Y18607   6.399   6.421   9.247 -2.2984 -0.7544  0.3202
  165SOPE  C31418608   6.355   6.577   9.108 -1.5059 -0.0082 -0.6035
  165SOPE  H14X18609   6.338   6.685   9.127  0.2625 -0.0574  1.7264
  165SOPE  H14Y18610   6.287   6.536   9.030 -1.9561  0.3317 -0.3902
  165SOPE  C31518611   6.501   6.563   9.056 -0.0483  0.3609  0.0397
  165SOPE  H15X18612   6.578   6.549   9.134  0.7375  0.1025 -0.7682
  165SOPE  H15Y18613   6.533   6.646   8.988  1.4289  0.1628  0.4565
  165SOPE  C31618614   6.516   6.439   8.966 -0.6473  0.5201 -0.1525
  165SOPE  H16X18615   6.486   6.472   8.864 -0.6348 -0.1059 -0.3661
  165SOPE  H16Y18616   6.447   6.360   9.005 -0.9300  0.6290 -0.4288
  165SOPE  C31718617   6.665   6.386   8.975 -0.7288 -0.0792  1.2492
  165SOPE  H17X18618   6.692   6.376   9.082 -0.1926 -1.6210  0.9966
  165SOPE  H17Y18619   6.738   6.460   8.936 -1.8317  0.0453 -0.7099
  165SOPE  C31818620   6.684   6.257   8.900 -0.6243  0.4807 -0.3698
  165SOPE  H18X18621   6.784   6.212   8.915  0.0332  2.3204  1.2532
  165SOPE  H18Y18622   6.672   6.288   8.793  1.8402 -1.2760 -1.2374
  165SOPE  H18Z18623   6.601   6.192   8.933 -0.2663  0.2975  0.1729
  166SOPE     N18624   2.224   6.725  10.989 -0.0775  0.1479 -0.6983
  166SOPE   HN118625   2.122   6.722  10.968 -0.4138 -0.5348  0.8969
  166SOPE   HN218626   2.256   6.631  11.020  0.6528  0.3316 -0.8776
  166SOPE   HN318627   2.241   6.796  11.063  0.8760 -0.6485 -0.1406
  166SOPE   C1218628   2.298   6.770  10.870  0.4590  0.3097  0.1675
  166SOPE  H12A18629   2.302   6.678  10.808 -2.7012 -0.0780  0.4075
  166SOPE  H12B18630   2.395   6.809  10.910 -0.1554  0.9167  1.1112
  166SOPE   C1118631   2.214   6.872  10.790  0.5139 -0.8957 -0.5318
  166SOPE  H11A18632   2.133   6.811  10.744 -0.1801 -0.3394 -0.0568
  166SOPE  H11B18633   2.281   6.901  10.707  0.1199  1.4483 -0.1037
  166SOPE     P18634   2.241   7.108  10.894  0.3813 -0.0200  0.3622
  166SOPE   O1318635   2.372   7.077  10.944 -0.6997  0.3245  0.8563
  166SOPE   O1418636   2.150   7.198  10.968 -0.1465  0.7884 -0.0974
  166SOPE   O1218637   2.166   6.972  10.872  0.0262  0.2997  0.0702
  166SOPE   O1118638   2.251   7.151  10.737  0.3775  0.0357  0.1377
  166SOPE    C118639   2.128   7.201  10.666 -0.5017  0.2675 -0.7161
  166SOPE    HA18640   2.085   7.295  10.707 -0.0507 -0.6835  2.1478
  166SOPE    HB18641   2.044   7.132  10.689  0.0355  0.4078  2.0223
  166SOPE    C218642   2.162   7.218  10.511  0.1392  0.3876 -1.0984
  166SOPE    HS18643   2.078   7.262  10.454 -1.1469  0.8915  1.0755
  166SOPE   O2118644   2.195   7.094  10.447 -0.4298  0.1606 -0.4819
  166SOPE   C2118645   2.089   7.022  10.424  0.0312 -0.0394 -0.0541
  166SOPE   O2218646   1.976   7.054  10.451 -0.2332 -0.0813  0.0368
  166SOPE   C2218647   2.137   6.900  10.351 -0.0718  0.0908 -0.5150
  166SOPE   H2R18648   2.184   6.838  10.429 -1.1241  0.1876  0.2213
  166SOPE   H2S18649   2.228   6.931  10.294 -1.4881  1.8760 -1.9545
  166SOPE    C318650   2.273   7.322  10.481  0.1387 -0.3699 -0.1222
  166SOPE    HX18651   2.359   7.295  10.545  1.0284  0.7434 -0.8121
  166SOPE    HY18652   2.248   7.427  10.508  2.0648  0.2341 -0.5591
  166SOPE   O3118653   2.316   7.318  10.344 -0.2446  0.0528 -0.1174
  166SOPE   C3118654   2.254   7.400  10.262 -0.9259  0.6018 -0.2057
  166SOPE   O3218655   2.168   7.480  10.289 -0.2597  0.1708  0.1003
  166SOPE   C3218656   2.313   7.382  10.124 -0.4911  0.4455 -0.0771
  166SOPE   H2X18657   2.313   7.280  10.080 -0.9882  0.9030 -1.2039
  166SOPE   H2Y18658   2.422   7.404  10.122  0.0025 -1.6616  1.1504
  166SOPE   C2318659   2.032   6.823  10.273  0.1799  0.4548  0.1327
  166SOPE   H3R18660   1.933   6.823  10.325  0.4003 -0.4721  0.5813
  166SOPE   H3S18661   2.065   6.717  10.277 -1.1098 -0.0727 -1.9953
  166SOPE   C2418662   2.022   6.848  10.123 -0.0571  0.2532 -0.4517
  166SOPE   H4R18663   2.124   6.862  10.082  0.2951  0.7314  0.5427
  166SOPE   H4S18664   1.969   6.761  10.078  1.2380 -2.0343  2.1603
  166SOPE   C2518665   1.934   6.978  10.092 -0.6134  0.1824 -0.1321
  166SOPE   H5R18666   1.837   6.963  10.144 -1.8193  1.9505 -1.7353
  166SOPE   H5S18667   1.985   7.066  10.138  0.9460 -0.2720 -0.9086
  166SOPE   C2618668   1.911   6.999   9.943 -0.3553 -0.4683  0.0214
  166SOPE   H6R18669   2.006   6.993   9.886 -0.3382  1.2432 -0.2084
  166SOPE   H6S18670   1.839   6.923   9.905  0.5122 -2.0133  1.3441
  166SOPE   C2718671   1.854   7.137   9.899  0.7705  0.3487 -0.0242
  166SOPE   H7R18672   1.763   7.158   9.960  0.3999  0.4040 -0.5847
  166SOPE   H7S18673   1.926   7.218   9.923 -0.3302  1.6229 -0.8027
  166SOPE   C2818674   1.828   7.149   9.745  0.4402  0.6058  0.3485
  166SOPE   H8R18675   1.820   7.260   9.738 -1.7069  0.5377  1.0269
  166SOPE   H8S18676   1.924   7.111   9.703  1.1290  0.2831  2.1145
  166SOPE   C2918677   1.715   7.070   9.691  0.3743 -1.1301 -0.2021
  166SOPE   H9118678   1.620   7.066   9.747 -0.1596 -0.5436 -1.0442
  166SOPE  C21018679   1.728   6.998   9.580 -0.1487  0.1259  0.4461
  166SOPE  H10118680   1.645   6.936   9.542 -0.2309 -0.0618  0.9173
  166SOPE  C21118681   1.857   6.971   9.497  0.3269  0.5385 -0.2160
  166SOPE  H11R18682   1.925   6.899   9.546  0.5591  1.8176  1.4168
  166SOPE  H11S18683   1.907   7.070   9.494 -1.8150  1.7036 -3.3084
  166SOPE  C21218684   1.818   6.926   9.357  0.0942  0.1766  0.8377
  166SOPE  H12R18685   1.738   6.850   9.371 -0.7491  0.5760 -1.4485
  166SOPE  H12S18686   1.908   6.874   9.319 -0.8407 -2.0754  1.4846
  166SOPE  C21318687   1.774   7.039   9.255 -0.0607  0.0715 -0.5686
  166SOPE  H13R18688   1.857   7.113   9.262 -0.9138  1.2456 -2.2335
  166SOPE  H13S18689   1.682   7.090   9.293 -0.1543 -0.1750 -0.4648
  166SOPE  C21418690   1.767   6.992   9.108  0.4195 -0.7204  0.4315
  166SOPE  H14R18691   1.680   6.923   9.106 -0.5195  0.3487  2.2510
  166SOPE  H14S18692   1.865   6.950   9.079  1.1700  0.2583  1.4370
  166SOPE  C21518693   1.735   7.108   9.017  0.1677 -0.7000 -0.3417
  166SOPE  H15R18694   1.827   7.170   9.023  0.3128 -0.9851  0.4943
  166SOPE  H15S18695   1.648   7.159   9.062 -1.4038 -3.8240  0.4355
  166SOPE  C21618696   1.700   7.073   8.872 -0.3686 -0.5530  1.1562
  166SOPE  H16R18697   1.634   7.157   8.840 -0.7139 -1.7826 -1.6950
  166SOPE  H16S18698   1.643   6.978   8.861 -0.6498 -0.1192 -2.0554
  166SOPE  C21718699   1.817   7.065   8.773  0.1621 -0.1031 -0.3028
  166SOPE  H17R18700   1.892   6.993   8.813 -0.9086 -1.6663 -1.0165
  166SOPE  H17S18701   1.868   7.163   8.773 -1.1306  0.6684 -2.9654
  166SOPE  C21818702   1.779   7.044   8.628 -0.0234 -0.3307  0.2618
  166SOPE  H18R18703   1.705   7.113   8.583 -1.4095  0.5638  3.6210
  166SOPE  H18S18704   1.751   6.938   8.610  2.4127 -1.0241  0.2090
  166SOPE  H18T18705   1.871   7.058   8.567 -0.5562 -0.4860 -0.5977
  166SOPE   C3318706   2.243   7.472  10.020  0.3287 -0.0307 -0.1116
  166SOPE   H3X18707   2.300   7.456   9.926 -1.8342 -0.3733 -1.4313
  166SOPE   H3Y18708   2.240   7.581  10.041  0.4886  0.2005 -1.2281
  166SOPE   C3418709   2.101   7.422   9.986  0.2969 -0.0701  0.1821
  166SOPE   H4X18710   2.043   7.406  10.080  2.2660 -2.1675  1.1482
  166SOPE   H4Y18711   2.115   7.328   9.928  2.9472 -0.2348  0.9684
  166SOPE   C3518712   2.020   7.507   9.897  0.5394 -0.6660 -0.3453
  166SOPE   H5X18713   2.021   7.616   9.921 -1.3390  0.2506 -3.7011
  166SOPE   H5Y18714   1.912   7.479   9.898  0.3961 -0.1142  0.3730
  166SOPE   C3618715   2.061   7.494   9.748  0.4708  1.1890  0.1856
  166SOPE   H6X18716   2.052   7.388   9.718 -1.5444  1.6902 -1.1781
  166SOPE   H6Y18717   2.164   7.535   9.739 -0.2134  3.0062  0.2073
  166SOPE   C3718718   1.971   7.593   9.663 -0.2177  0.0745  0.6621
  166SOPE   H7X18719   2.003   7.691   9.704 -0.2371  0.3221  0.0996
  166SOPE   H7Y18720   1.863   7.582   9.688  0.4085 -1.2074  3.1080
  166SOPE   C3818721   1.990   7.602   9.510  0.1665  0.6556 -0.2256
  166SOPE   H8X18722   2.098   7.626   9.495 -0.2003  1.2272 -2.3558
  166SOPE   H8Y18723   1.922   7.680   9.470 -3.5434 -1.3591  1.5766
  166SOPE   C3918724   1.962   7.462   9.457  0.3497 -0.1296  0.1021
  166SOPE   H9X18725   1.854   7.438   9.470  0.2651 -2.0118 -2.9843
  166SOPE   H9Y18726   2.024   7.397   9.523 -0.8733 -0.5401  0.8777
  166SOPE  C31018727   1.991   7.440   9.307 -0.7103 -0.2315 -0.0144
  166SOPE  H10X18728   1.963   7.337   9.276  1.5344 -0.8754 -0.0594
  166SOPE  H10Y18729   2.100   7.447   9.287 -0.8882 -1.7086 -1.7615
  166SOPE  C31118730   1.931   7.553   9.211 -0.2932  0.0780  0.7173
  166SOPE  H11X18731   1.943   7.654   9.255  0.7236  0.0720  0.4720
  166SOPE  H11Y18732   1.823   7.530   9.205 -0.3580  0.7041 -0.9518
  166SOPE  C31218733   1.993   7.563   9.067  0.2485 -0.4216  0.5259
  166SOPE  H12X18734   1.976   7.467   9.014 -2.1409 -1.1138  2.3724
  166SOPE  H12Y18735   2.102   7.579   9.082  0.2246 -0.1626  0.4370
  166SOPE  C31318736   1.923   7.671   8.972 -0.5910  0.2949 -0.1360
  166SOPE  H13X18737   1.923   7.764   9.033  1.7789  0.3244 -0.0579
  166SOPE  H13Y18738   1.825   7.638   8.932  0.4529 -1.3523 -1.5426
  166SOPE  C31418739   2.010   7.689   8.838 -0.1917 -0.4330 -0.4110
  166SOPE  H14X18740   2.038   7.597   8.782 -0.4053 -0.6852 -0.1002
  166SOPE  H14Y18741   2.105   7.732   8.878  0.1947 -2.5330  1.0871
  166SOPE  C31518742   1.937   7.782   8.737  0.2395 -0.0343 -0.0269
  166SOPE  H15X18743   1.906   7.883   8.772  1.0265  0.5658 -0.9984
  166SOPE  H15Y18744   1.839   7.742   8.705  0.3201 -0.3431  0.1014
  166SOPE  C31618745   2.010   7.803   8.601 -0.1353 -0.2635 -0.1963
  166SOPE  H16X18746   1.946   7.840   8.518  1.0974  0.4463 -0.8622
  166SOPE  H16Y18747   2.036   7.700   8.568 -2.1154 -0.8795 -0.0048
  166SOPE  C31718748   2.135   7.893   8.612 -0.3687  0.1042 -0.4401
  166SOPE  H17X18749   2.203   7.865   8.696  0.8519  5.4071  0.6748
  166SOPE  H17Y18750   2.101   7.996   8.635  1.0403  0.4777  0.1083
  166SOPE  C31818751   2.229   7.897   8.491  0.7769 -0.4290 -0.2993
  166SOPE  H18X18752   2.321   7.957   8.508  0.1412  1.2634 -2.3491
  166SOPE  H18Y18753   2.179   7.941   8.402  0.8818  0.8025  0.2245
  166SOPE  H18Z18754   2.269   7.801   8.453  0.4144 -0.1937 -1.2966
  167SOPE     N18755   0.957   2.710   6.125 -0.0376 -0.3031 -0.3981
  167SOPE   HN118756   1.003   2.755   6.206 -3.2425 -0.2973  1.6072
  167SOPE   HN218757   0.918   2.620   6.159  0.0166 -0.5896 -1.0742
  167SOPE   HN318758   1.024   2.688   6.049 -0.4229  0.3994 -0.9509
  167SOPE   C1218759   0.848   2.804   6.090  0.3062  0.3106 -0.5289
  167SOPE  H12A18760   0.807   2.772   5.991 -0.3379 -0.5465  0.0086
  167SOPE  H12B18761   0.892   2.906   6.075  1.6479 -0.3126 -1.0058
  167SOPE   C1118762   0.742   2.798   6.201  0.1995  0.6876  0.6606
  167SOPE  H11A18763   0.655   2.866   6.188  0.7315  1.1051 -0.9743
  167SOPE  H11B18764   0.797   2.819   6.295  0.1769  1.6818  0.4591
  167SOPE     P18765   0.555   2.631   6.295  0.3084 -0.0166 -0.1943
  167SOPE   O1318766   0.531   2.487   6.276 -0.0537  0.7408 -0.1763
  167SOPE   O1418767   0.452   2.721   6.245 -0.4163  0.1728  0.1404
  167SOPE   O1218768   0.688   2.665   6.218  0.3343  0.1270  0.0878
  167SOPE   O1118769   0.590   2.670   6.446  0.6114  0.1866  0.9808
  167SOPE    C118770   0.695   2.601   6.510 -0.1151 -0.4468  0.6428
  167SOPE    HA18771   0.792   2.650   6.489 -1.0210  1.0746 -0.1925
  167SOPE    HB18772   0.699   2.495   6.478  2.1356  0.1114 -1.2218
  167SOPE    C218773   0.669   2.595   6.664  0.0921 -0.7237 -0.1074
  167SOPE    HS18774   0.571   2.543   6.675  0.0940 -0.6536  0.2600
  167SOPE   O2118775   0.676   2.731   6.721 -0.1315 -0.2470  0.0357
  167SOPE   C2118776   0.595   2.764   6.816  0.1869  0.0995  0.1339
  167SOPE   O2218777   0.507   2.684   6.857 -0.7991 -0.2262 -0.4701
  167SOPE   C2218778   0.629   2.900   6.880 -0.2747  0.1116 -0.2565
  167SOPE   H2R18779   0.564   2.971   6.825  1.4316  0.4680 -1.9019
  167SOPE   H2S18780   0.739   2.917   6.881 -0.1111 -0.8703 -0.4202
  167SOPE    C318781   0.775   2.508   6.737  0.1118 -0.6029 -0.8586
  167SOPE    HX18782   0.873   2.561   6.743  0.3077 -1.0853  2.4593
  167SOPE    HY18783   0.799   2.409   6.693  1.9148 -0.4520 -0.3179
  167SOPE   O3118784   0.753   2.512   6.877  0.4684 -0.2007  0.0426
  167SOPE   C3118785   0.676   2.409   6.920 -0.4029 -0.1823  0.2255
  167SOPE   O3218786   0.639   2.313   6.855 -0.1631 -0.1720 -0.2324
  167SOPE   C3218787   0.626   2.440   7.054  0.8435 -0.9823 -0.1230
  167SOPE   H2X18788   0.533   2.497   7.033  2.0681  0.9019 -0.7190
  167SOPE   H2Y18789   0.702   2.505   7.103  1.1152 -1.7139  0.4390
  167SOPE   C2318790   0.584   2.905   7.033 -0.3265  0.2573  0.0697
  167SOPE   H3R18791   0.485   2.858   7.056  0.3350 -0.8364  0.7590
  167SOPE   H3S18792   0.598   3.009   7.069  2.0757  0.3745 -0.9968
  167SOPE   C2418793   0.689   2.832   7.123 -0.0431 -0.3262  0.3693
  167SOPE   H4R18794   0.695   2.726   7.090 -1.1352 -0.0619 -0.7594
  167SOPE   H4S18795   0.789   2.879   7.109 -0.2899 -0.2239 -1.2231
  167SOPE   C2518796   0.651   2.839   7.269 -0.2590  0.4703 -0.1378
  167SOPE   H5R18797   0.542   2.823   7.286 -0.8885  3.4199 -0.8757
  167SOPE   H5S18798   0.694   2.756   7.328 -1.6786  1.4521  2.4432
  167SOPE   C2618799   0.700   2.965   7.333  0.8977 -1.0404  0.1503
  167SOPE   H6R18800   0.786   3.010   7.279 -0.7483  1.6307 -0.4489
  167SOPE   H6S18801   0.621   3.040   7.310  2.0634  0.2620  0.2047
  167SOPE   C2718802   0.738   2.955   7.484  0.2165  0.6100 -0.1167
  167SOPE   H7R18803   0.743   3.060   7.522 -1.1864 -0.1343  2.3283
  167SOPE   H7S18804   0.662   2.914   7.554  0.0319  1.0494 -0.0562
  167SOPE   C2818805   0.881   2.902   7.509 -0.7221 -0.1953  0.3118
  167SOPE   H8R18806   0.909   2.802   7.470  1.0830  0.2264  0.4234
  167SOPE   H8S18807   0.949   2.963   7.446 -1.3005 -0.8654 -1.0110
  167SOPE   C2918808   0.936   2.916   7.648 -0.1941 -0.2231 -0.4981
  167SOPE   H9118809   1.014   2.993   7.657 -0.1331 -0.1519 -1.5254
  167SOPE  C21018810   0.917   2.829   7.752 -0.1588  0.1125 -0.1723
  167SOPE  H10118811   0.960   2.861   7.848  0.5019 -0.6011 -0.2186
  167SOPE  C21118812   0.828   2.707   7.743  0.2270 -0.1504 -0.2218
  167SOPE  H11R18813   0.870   2.620   7.799 -2.2429 -0.8047  0.7251
  167SOPE  H11S18814   0.825   2.666   7.639  5.7263 -0.0337 -0.7133
  167SOPE  C21218815   0.693   2.736   7.803 -0.1046 -0.5643  0.4569
  167SOPE  H12R18816   0.615   2.675   7.753 -0.8826  1.6659 -1.1844
  167SOPE  H12S18817   0.666   2.843   7.791  1.0591  0.0210  2.5408
  167SOPE  C21318818   0.692   2.722   7.961  0.0683  0.7115 -0.0787
  167SOPE  H13R18819   0.750   2.808   8.000 -2.3710  3.7255 -2.5647
  167SOPE  H13S18820   0.746   2.630   7.992 -0.2019  0.4274 -0.4309
  167SOPE  C21418821   0.554   2.694   8.017 -0.0732  0.9057  0.7784
  167SOPE  H14R18822   0.527   2.599   7.965 -1.2196  1.3157  0.6067
  167SOPE  H14S18823   0.483   2.772   7.984  1.4335  1.7838 -0.6000
  167SOPE  C21518824   0.558   2.679   8.166  1.0769  0.4388 -0.2667
  167SOPE  H15R18825   0.573   2.780   8.210  0.4975  0.8588 -1.0118
  167SOPE  H15S18826   0.640   2.612   8.200  1.7991  1.5811  0.2969
  167SOPE  C21618827   0.421   2.614   8.221 -0.0327 -0.2278  0.1364
  167SOPE  H16R18828   0.397   2.510   8.189  1.3084 -0.4385 -0.2674
  167SOPE  H16S18829   0.340   2.679   8.181 -1.5952 -2.2161 -0.1064
  167SOPE  C21718830   0.417   2.619   8.374  0.2032  0.5454  0.0112
  167SOPE  H17R18831   0.426   2.719   8.420 -1.3095 -0.1271  1.8966
  167SOPE  H17S18832   0.503   2.564   8.418 -1.4134 -0.2139  2.3834
  167SOPE  C21818833   0.287   2.555   8.421  0.3198 -0.2513 -0.0242
  167SOPE  H18R18834   0.199   2.607   8.379  0.2995 -1.1995 -1.2221
  167SOPE  H18S18835   0.295   2.567   8.531  1.6493  1.1854 -0.2506
  167SOPE  H18T18836   0.297   2.446   8.401  0.8537 -0.2244  0.0619
  167SOPE   C3318837   0.596   2.324   7.147  0.1588 -0.7110  0.1353
  167SOPE   H3X18838   0.675   2.247   7.136  1.0809 -0.1751  2.4938
  167SOPE   H3Y18839   0.490   2.295   7.133 -0.7286  2.0671  0.5216
  167SOPE   C3418840   0.609   2.362   7.297  0.5208 -0.1090 -0.2099
  167SOPE   H4X18841   0.544   2.452   7.307  2.7342  1.3461  2.5570
  167SOPE   H4Y18842   0.708   2.404   7.328  1.0306 -0.8445 -0.8026
  167SOPE   C3518843   0.565   2.243   7.384 -1.0443 -0.2218  0.8421
  167SOPE   H5X18844   0.607   2.144   7.356 -1.0966 -0.3882  1.3309
  167SOPE   H5Y18845   0.456   2.219   7.378 -1.1255 -0.7837  3.2441
  167SOPE   C3618846   0.585   2.263   7.531  0.1852 -0.3898 -0.6625
  167SOPE   H6X18847   0.689   2.289   7.559  0.3112 -1.8572  0.3466
  167SOPE   H6Y18848   0.555   2.170   7.584  1.7583  0.1990  1.3766
  167SOPE   C3718849   0.490   2.366   7.587  0.0817 -0.1736 -0.0891
  167SOPE   H7X18850   0.391   2.324   7.557  0.6943 -1.4233 -0.4092
  167SOPE   H7Y18851   0.502   2.457   7.525  0.8438  0.3402  0.8003
  167SOPE   C3818852   0.496   2.387   7.733 -0.7624  0.1327  0.1767
  167SOPE   H8X18853   0.434   2.473   7.765 -0.8916 -0.3027  1.1282
  167SOPE   H8Y18854   0.602   2.411   7.757  0.1166 -1.1055 -2.1138
  167SOPE   C3918855   0.450   2.263   7.814 -0.0842 -0.5602 -0.5801
  167SOPE   H9X18856   0.497   2.173   7.768  3.0470  1.6791 -2.1368
  167SOPE   H9Y18857   0.342   2.261   7.789 -0.4278 -1.7116  0.9080
  167SOPE  C31018858   0.473   2.278   7.973 -0.1380 -0.3972  1.5156
  167SOPE  H10X18859   0.422   2.193   8.023 -0.3907 -0.0898  1.7802
  167SOPE  H10Y18860   0.433   2.379   7.996  0.6031 -0.0677  1.3794
  167SOPE  C31118861   0.621   2.273   7.993 -0.4374  0.4448 -0.6118
  167SOPE  H11X18862   0.658   2.378   7.996  0.7570  0.0201  0.9179
  167SOPE  H11Y18863   0.678   2.216   7.916 -1.0903 -0.7305 -0.2451
  167SOPE  C31218864   0.655   2.194   8.118  0.3487 -0.4301 -0.2961
  167SOPE  H12X18865   0.765   2.196   8.136  0.2155 -1.4755  0.7984
  167SOPE  H12Y18866   0.637   2.085   8.106 -1.6105 -0.2672  0.7184
  167SOPE  C31318867   0.591   2.260   8.245 -0.3868 -0.0130 -0.1731
  167SOPE  H13X18868   0.482   2.241   8.255 -1.3660  2.9571 -3.2619
  167SOPE  H13Y18869   0.605   2.367   8.219 -0.4696  0.1530  0.4502
  167SOPE  C31418870   0.658   2.232   8.382  0.1482  0.6223  0.6475
  167SOPE  H14X18871   0.612   2.311   8.445 -1.7545 -0.8964  1.2896
  167SOPE  H14Y18872   0.767   2.252   8.376  0.4513 -0.5047  1.7920
  167SOPE  C31518873   0.632   2.094   8.433  0.3207  0.7295 -0.2040
  167SOPE  H15X18874   0.679   2.086   8.533  0.8199 -3.2063 -0.6223
  167SOPE  H15Y18875   0.682   2.020   8.368 -0.5599 -1.0912  1.1142
  167SOPE  C31618876   0.485   2.049   8.471  0.7417  0.7089  0.5943
  167SOPE  H16X18877   0.448   1.996   8.380 -0.0598 -1.6994  2.2367
  167SOPE  H16Y18878   0.426   2.138   8.502 -1.3371  0.3000 -1.8426
  167SOPE  C31718879   0.487   1.958   8.581  0.0010  0.0055 -0.2358
  167SOPE  H17X18880   0.533   2.008   8.669  0.5281 -1.2966  0.2617
  167SOPE  H17Y18881   0.548   1.870   8.550 -1.9209 -1.4251 -0.1537
  167SOPE  C31818882   0.349   1.915   8.623  0.2525 -0.1818  0.4073
  167SOPE  H18X18883   0.350   1.843   8.708 -1.6125  1.0759  1.5738
  167SOPE  H18Y18884   0.307   1.862   8.535  0.8325 -0.3463  0.2205
  167SOPE  H18Z18885   0.289   2.002   8.656  0.3492  0.0371  0.0157
  168SOPE     N18886   0.795   6.164   6.227  0.2389  0.1526 -0.0078
  168SOPE   HN118887   0.843   6.236   6.168  0.9477  1.9947  2.6201
  168SOPE   HN218888   0.861   6.092   6.262 -0.0826 -0.4842 -0.6866
  168SOPE   HN318889   0.714   6.123   6.176 -0.8415  2.7188 -0.5324
  168SOPE   C1218890   0.758   6.223   6.364  0.3023 -0.9240 -0.0178
  168SOPE  H12A18891   0.853   6.239   6.419  0.0309 -0.9859  0.4736
  168SOPE  H12B18892   0.717   6.140   6.425  0.7987 -3.2195 -2.6629
  168SOPE   C1118893   0.693   6.358   6.364 -0.4124 -0.8158 -0.3443
  168SOPE  H11A18894   0.670   6.397   6.465 -1.6145 -1.3111 -0.4119
  168SOPE  H11B18895   0.593   6.337   6.320  0.3234  0.1151 -2.6121
  168SOPE     P18896   0.771   6.598   6.288 -0.3639 -0.3649  0.2415
  168SOPE   O1318897   0.630   6.653   6.284  0.6245  0.5063 -0.1527
  168SOPE   O1418898   0.867   6.668   6.196 -0.2107  0.0612 -0.1120
  168SOPE   O1218899   0.766   6.446   6.278  0.1050  0.5195  0.3089
  168SOPE   O1118900   0.813   6.632   6.442 -0.6782 -0.3079  0.3734
  168SOPE    C118901   0.921   6.573   6.505 -0.5680  0.1832  0.2110
  168SOPE    HA18902   0.980   6.515   6.430  0.2416 -0.7909  1.5588
  168SOPE    HB18903   0.888   6.503   6.585  1.5635 -0.2517  0.7772
  168SOPE    C218904   1.013   6.685   6.565  0.1836  0.8052  0.2965
  168SOPE    HS18905   1.098   6.626   6.605  0.3928  0.3311 -0.8219
  168SOPE   O2118906   0.939   6.759   6.667 -0.1896  0.5899  0.1804
  168SOPE   C2118907   0.914   6.707   6.790  0.2118  0.4615 -0.0888
  168SOPE   O2218908   0.947   6.595   6.830 -0.3008 -0.1315  0.0095
  168SOPE   C2218909   0.840   6.815   6.877  0.4174  0.1752 -0.4184
  168SOPE   H2R18910   0.750   6.848   6.821 -0.2718 -0.8211  0.0836
  168SOPE   H2S18911   0.915   6.893   6.906 -0.7109  1.3357 -0.5032
  168SOPE    C318912   1.060   6.794   6.460  0.2134 -0.2237 -0.1354
  168SOPE    HX18913   0.963   6.810   6.408 -1.2903 -4.5457  0.8882
  168SOPE    HY18914   1.121   6.734   6.388  1.4848 -0.8548  1.3917
  168SOPE   O3118915   1.126   6.917   6.508  0.2518 -0.3925  0.7301
  168SOPE   C3118916   1.250   6.904   6.542  0.1866 -0.0510 -0.1038
  168SOPE   O3218917   1.315   6.804   6.506  0.3011 -0.4317  0.2057
  168SOPE   C3218918   1.296   7.019   6.627  0.1067 -0.2353  0.1301
  168SOPE   H2X18919   1.268   7.114   6.577 -1.5124 -1.1480 -0.7627
  168SOPE   H2Y18920   1.407   7.016   6.618  0.0055  0.6269 -2.0030
  168SOPE   C2318921   0.784   6.751   7.010  0.2549  0.9960  0.1145
  168SOPE   H3R18922   0.739   6.656   6.973 -2.9491  2.1833  0.6180
  168SOPE   H3S18923   0.692   6.802   7.045  0.2529  0.8807  0.2771
  168SOPE   C2418924   0.872   6.720   7.122 -0.3992  0.4822  0.7603
  168SOPE   H4R18925   0.974   6.697   7.084  0.1344  3.3967  0.1854
  168SOPE   H4S18926   0.895   6.811   7.181 -0.6194  1.1315 -0.1360
  168SOPE   C2518927   0.830   6.614   7.219 -0.2058  0.2850 -0.2435
  168SOPE   H5R18928   0.810   6.519   7.165  1.1811 -1.3647  1.9914
  168SOPE   H5S18929   0.924   6.590   7.272  0.7650 -1.3938 -2.6040
  168SOPE   C2618930   0.732   6.651   7.322 -0.5740 -0.8729 -0.6194
  168SOPE   H6R18931   0.777   6.733   7.382 -1.5226 -0.2067 -0.7973
  168SOPE   H6S18932   0.630   6.676   7.287 -0.9506 -0.4321  0.7539
  168SOPE   C2718933   0.717   6.541   7.430  0.3768 -0.8377  0.2066
  168SOPE   H7R18934   0.628   6.563   7.492  0.0689 -1.6854  0.0736
  168SOPE   H7S18935   0.717   6.445   7.373  0.0942 -1.1643  0.7555
  168SOPE   C2818936   0.833   6.535   7.531 -0.3748 -0.4506  0.8333
  168SOPE   H8R18937   0.927   6.519   7.473 -0.6318 -1.1527  0.5991
  168SOPE   H8S18938   0.843   6.636   7.577  2.1959 -0.3714  0.2693
  168SOPE   C2918939   0.835   6.424   7.625 -0.2492  0.4113 -0.7078
  168SOPE   H9118940   0.806   6.326   7.583 -0.5676 -0.2213  0.8962
  168SOPE  C21018941   0.856   6.428   7.758  0.0694  0.3030  0.1827
  168SOPE  H10118942   0.847   6.337   7.821  0.0924  0.5808  0.5928
  168SOPE  C21118943   0.884   6.550   7.840 -0.0240 -0.1329 -0.0417
  168SOPE  H11R18944   0.786   6.578   7.885  0.5830 -0.6404  1.6225
  168SOPE  H11S18945   0.931   6.632   7.781  1.0213 -0.3047  0.5447
  168SOPE  C21218946   0.988   6.528   7.951 -0.0631 -0.1280  0.2077
  168SOPE  H12R18947   1.087   6.534   7.902 -0.2222 -2.0801 -0.4173
  168SOPE  H12S18948   0.974   6.427   7.995  0.4379  0.8254  2.7113
  168SOPE  C21318949   0.981   6.641   8.056 -0.5671 -0.8628  0.2710
  168SOPE  H13R18950   0.873   6.664   8.072 -0.3067  0.6049  0.0894
  168SOPE  H13S18951   1.014   6.734   8.005  1.0967 -0.4164  2.0559
  168SOPE  C21418952   1.045   6.598   8.189 -0.3340  0.3100 -0.1380
  168SOPE  H14R18953   1.140   6.655   8.194  0.8144 -1.3745 -1.6001
  168SOPE  H14S18954   1.065   6.489   8.183 -1.5921  0.0714 -0.2765
  168SOPE  C21518955   0.962   6.618   8.319  0.0083  0.2052 -0.0448
  168SOPE  H15R18956   0.868   6.560   8.307  0.5583 -0.1600 -3.6421
  168SOPE  H15S18957   0.926   6.722   8.334 -0.6762 -0.0251 -0.0766
  168SOPE  C21618958   1.036   6.560   8.442 -0.3222  0.1814 -0.1787
  168SOPE  H16R18959   1.145   6.581   8.449 -0.3290  0.1406  0.0582
  168SOPE  H16S18960   1.022   6.450   8.437 -0.0229  0.1388 -0.1012
  168SOPE  C21718961   0.982   6.603   8.577  0.7354  0.8502  0.1313
  168SOPE  H17R18962   0.893   6.542   8.601  1.0697  0.3563  0.1357
  168SOPE  H17S18963   0.952   6.710   8.568  0.9839  0.9183  0.1072
  168SOPE  C21818964   1.077   6.586   8.702  0.0973 -0.3766  0.6521
  168SOPE  H18R18965   1.164   6.655   8.703  0.2715 -0.5955  1.6737
  168SOPE  H18S18966   1.120   6.484   8.694 -1.0756 -0.9275  1.0724
  168SOPE  H18T18967   1.028   6.610   8.799  1.9327  0.1461  1.4975
  168SOPE   C3318968   1.245   7.008   6.768 -0.2720  0.9374  0.1118
  168SOPE   H3X18969   1.134   7.013   6.776 -0.2514  0.3837  0.8879
  168SOPE   H3Y18970   1.288   7.086   6.835  1.6109 -1.5462  1.9611
  168SOPE   C3418971   1.290   6.878   6.843 -0.0584 -0.7166 -0.4800
  168SOPE   H4X18972   1.400   6.890   6.851 -0.4177  1.5114  2.8306
  168SOPE   H4Y18973   1.264   6.782   6.793 -0.4943 -0.6394 -0.4097
  168SOPE   C3518974   1.227   6.878   6.982  0.2108  0.0355 -0.5548
  168SOPE   H5X18975   1.227   6.778   7.031  1.4026 -0.1618 -0.9331
  168SOPE   H5Y18976   1.122   6.906   6.963  0.4446  1.0686 -0.3536
  168SOPE   C3618977   1.295   6.964   7.083  0.2613 -0.3057  0.1478
  168SOPE   H6X18978   1.315   7.069   7.052  0.7431 -0.2478  0.6550
  168SOPE   H6Y18979   1.399   6.928   7.096  1.0407  1.8185  0.1831
  168SOPE   C3718980   1.217   6.973   7.220  0.3977 -0.0633  0.4104
  168SOPE   H7X18981   1.109   6.991   7.201  0.3252  0.1659  1.0212
  168SOPE   H7Y18982   1.242   7.067   7.273 -1.8749  0.2345  1.0601
  168SOPE   C3818983   1.235   6.840   7.296  0.6910  0.1060 -0.1324
  168SOPE   H8X18984   1.341   6.805   7.299  0.8693  0.6947  1.3038
  168SOPE   H8Y18985   1.167   6.767   7.248 -0.4482  0.6397  0.6270
  168SOPE   C3918986   1.173   6.846   7.442 -0.6161  0.2798  0.5447
  168SOPE   H9X18987   1.114   6.753   7.453  0.3940 -0.3766  0.5446
  168SOPE   H9Y18988   1.108   6.936   7.454 -0.7542  0.2871 -0.2231
  168SOPE  C31018989   1.294   6.847   7.538 -0.4457  0.3663 -0.7660
  168SOPE  H10X18990   1.367   6.918   7.495  0.3303 -0.3324 -0.6259
  168SOPE  H10Y18991   1.344   6.748   7.529  0.2228  0.3595  2.0463
  168SOPE  C31118992   1.250   6.878   7.682 -0.5878 -1.2049  0.4472
  168SOPE  H11X18993   1.172   6.807   7.716 -2.2922 -0.2909 -1.3725
  168SOPE  H11Y18994   1.211   6.981   7.680  2.2504 -0.0402 -0.6301
  168SOPE  C31218995   1.361   6.845   7.790 -0.2998 -0.3087 -0.1598
  168SOPE  H12X18996   1.445   6.915   7.773 -0.3477  0.0814  1.0958
  168SOPE  H12Y18997   1.391   6.739   7.783 -0.7555 -0.3943 -1.0143
  168SOPE  C31318998   1.308   6.866   7.930  0.0263  0.6409  0.1084
  168SOPE  H13X18999   1.210   6.817   7.948  0.4835 -0.8750 -1.2447
  168SOPE  H13Y19000   1.298   6.976   7.943 -1.4698  0.4626  0.6201
  168SOPE  C31419001   1.410   6.820   8.039 -0.3858 -0.3519 -0.1316
  168SOPE  H14X19002   1.513   6.850   8.011  0.0488 -1.7819 -0.1912
  168SOPE  H14Y19003   1.404   6.709   8.033 -1.2894 -0.3484  0.4970
  168SOPE  C31519004   1.388   6.858   8.182 -1.0933 -0.1512 -0.1657
  168SOPE  H15X19005   1.285   6.849   8.221 -1.2777  1.6119 -0.1829
  168SOPE  H15Y19006   1.429   6.960   8.199 -2.0861  0.0374  1.2362
  168SOPE  C31619007   1.465   6.763   8.275 -0.2695  0.5105 -0.0705
  168SOPE  H16X19008   1.566   6.744   8.233 -1.1068  0.2236 -2.0477
  168SOPE  H16Y19009   1.408   6.668   8.270  1.8602 -0.8664  0.1505
  168SOPE  C31719010   1.480   6.801   8.427  0.0150  0.7442  0.2641
  168SOPE  H17X19011   1.373   6.797   8.455 -0.0100 -0.5674  0.0193
  168SOPE  H17Y19012   1.526   6.902   8.429  2.2816 -0.0107 -3.4360
  168SOPE  C31819013   1.550   6.692   8.515  0.1289 -0.5318 -0.5841
  168SOPE  H18X19014   1.660   6.690   8.498  0.4433 -1.2854  1.3126
  168SOPE  H18Y19015   1.506   6.592   8.495  0.1400 -0.3496 -1.6077
  168SOPE  H18Z19016   1.528   6.719   8.620  0.9680  2.2396 -1.0248
  169SOPE     N19017   2.353   2.342   6.250  0.4532  0.2483 -0.1448
  169SOPE   HN119018   2.338   2.349   6.148 -1.8472 -3.4427 -0.2511
  169SOPE   HN219019   2.380   2.435   6.288 -0.3547 -0.3468  2.0482
  169SOPE   HN319020   2.429   2.273   6.265 -1.3021 -1.3164  2.5374
  169SOPE   C1219021   2.217   2.294   6.302 -0.2625  0.1967 -0.0490
  169SOPE  H12A19022   2.193   2.198   6.251 -0.1562  0.6408 -0.9482
  169SOPE  H12B19023   2.143   2.368   6.265 -1.0416 -0.7149 -0.3553
  169SOPE   C1119024   2.221   2.273   6.459  0.5819  0.0447  0.8150
  169SOPE  H11A19025   2.280   2.179   6.468  0.1834 -0.3201 -0.2172
  169SOPE  H11B19026   2.119   2.249   6.495 -0.1309 -1.9869 -2.1599
  169SOPE     P19027   2.213   2.523   6.535  0.2027 -0.3374 -0.5417
  169SOPE   O1319028   2.210   2.575   6.399  0.0352 -0.3999 -0.3360
  169SOPE   O1419029   2.291   2.602   6.639 -0.4065  0.7590  0.3968
  169SOPE   O1219030   2.282   2.382   6.525 -0.1128 -0.8460  0.3717
  169SOPE   O1119031   2.067   2.493   6.594  0.1229  0.1729  0.1819
  169SOPE    C119032   2.058   2.464   6.735 -0.4824  0.4562  0.3370
  169SOPE    HA19033   2.155   2.469   6.789 -0.7469 -0.2503  0.8818
  169SOPE    HB19034   2.014   2.363   6.749  2.5787 -1.0786 -0.3736
  169SOPE    C219035   1.956   2.560   6.809 -0.4387  0.3118  0.2087
  169SOPE    HS19036   2.007   2.659   6.812 -1.1972  0.7619 -1.1822
  169SOPE   O2119037   1.925   2.512   6.937 -0.6338  0.6069  0.0912
  169SOPE   C2119038   2.023   2.509   7.019 -1.0649  0.2893 -0.1548
  169SOPE   O2219039   2.130   2.572   7.007  0.3532  0.0982 -0.0388
  169SOPE   C2219040   1.976   2.438   7.147 -0.9256  0.1116  0.6989
  169SOPE   H2R19041   1.971   2.331   7.119 -0.2220 -0.2853  2.0037
  169SOPE   H2S19042   1.873   2.470   7.174 -1.7488 -1.4943 -0.4045
  169SOPE    C319043   1.826   2.583   6.723 -0.3524  0.6275  0.3818
  169SOPE    HX19044   1.776   2.484   6.719  1.5724 -0.3472 -1.6480
  169SOPE    HY19045   1.853   2.599   6.616  2.2126  0.1207  0.8852
  169SOPE   O3119046   1.753   2.700   6.778 -0.3686  0.3277  0.4995
  169SOPE   C3119047   1.618   2.698   6.772  0.3839  0.1608 -0.4085
  169SOPE   O3219048   1.554   2.613   6.716 -0.0937 -0.0712 -0.2604
  169SOPE   C3219049   1.563   2.814   6.851  0.1109 -0.3966  0.0642
  169SOPE   H2X19050   1.471   2.844   6.796 -0.2419  2.1297  1.8260
  169SOPE   H2Y19051   1.644   2.890   6.848  0.8302 -1.1458  0.2334
  169SOPE   C2319052   2.070   2.456   7.269 -1.0241 -0.3686  0.7241
  169SOPE   H3R19053   2.113   2.559   7.271 -1.0698 -0.3569  1.5298
  169SOPE   H3S19054   2.153   2.383   7.257 -0.1455  0.5165  1.2656
  169SOPE   C2419055   2.005   2.429   7.404  0.0933  0.5136  0.1830
  169SOPE   H4R19056   1.937   2.512   7.431 -0.9951 -0.7676  1.5106
  169SOPE   H4S19057   1.957   2.332   7.379  0.7577  0.3731 -0.6253
  169SOPE   C2519058   2.103   2.420   7.523  0.0369 -0.0847 -0.2370
  169SOPE   H5R19059   2.163   2.328   7.506  0.5731  0.4874 -1.5138
  169SOPE   H5S19060   2.174   2.504   7.539  0.1934 -0.7065  3.2570
  169SOPE   C2619061   2.024   2.395   7.655  0.1284  0.0741  0.0965
  169SOPE   H6R19062   1.942   2.471   7.658  0.1949  0.1228  2.1126
  169SOPE   H6S19063   1.973   2.297   7.641 -2.8330  1.6287 -0.8961
  169SOPE   C2719064   2.111   2.402   7.776  0.5569 -0.1059 -0.3333
  169SOPE   H7R19065   2.200   2.338   7.760  1.1952  0.8315 -0.6382
  169SOPE   H7S19066   2.161   2.501   7.781  2.2043 -0.7708 -2.2144
  169SOPE   C2819067   2.044   2.375   7.909  0.8702 -0.2668  0.0033
  169SOPE   H8R19068   1.965   2.451   7.928  0.9146 -0.2121 -0.0288
  169SOPE   H8S19069   1.987   2.280   7.909 -1.2032  0.6955 -4.9815
  169SOPE   C2919070   2.147   2.379   8.021 -0.0391 -0.0253 -0.6272
  169SOPE   H9119071   2.244   2.328   8.012  1.0838  1.9342  0.0662
  169SOPE  C21019072   2.138   2.445   8.138 -0.0186 -0.1654 -0.3693
  169SOPE  H10119073   2.222   2.435   8.209 -0.7240 -1.7747  0.2907
  169SOPE  C21119074   2.016   2.525   8.192 -1.0299 -0.3416 -0.2780
  169SOPE  H11R19075   1.934   2.530   8.118 -0.6223  0.1052 -0.7075
  169SOPE  H11S19076   2.058   2.628   8.195  0.1494 -0.7831 -0.7131
  169SOPE  C21219077   1.982   2.475   8.331 -0.1788 -0.3352 -0.1839
  169SOPE  H12R19078   1.898   2.534   8.373 -0.7362 -0.7017 -0.7751
  169SOPE  H12S19079   2.073   2.494   8.393 -0.4558 -0.6455  0.3257
  169SOPE  C21319080   1.943   2.329   8.332 -0.1650  0.1768 -0.1631
  169SOPE  H13R19081   2.029   2.274   8.289  0.9773  1.7090  0.0819
  169SOPE  H13S19082   1.850   2.322   8.271  0.0274  1.2273 -0.5856
  169SOPE  C21419083   1.898   2.277   8.472  0.7942  1.1991  0.1882
  169SOPE  H14R19084   1.821   2.333   8.529  3.1728  0.9128  4.0558
  169SOPE  H14S19085   1.985   2.290   8.540  0.4858  0.8310  0.6573
  169SOPE  C21519086   1.857   2.124   8.466 -0.0248 -0.0657 -0.1061
  169SOPE  H15R19087   1.924   2.070   8.396 -0.8656  0.5536 -1.4210
  169SOPE  H15S19088   1.754   2.104   8.431  0.1864 -3.3068  0.7865
  169SOPE  C21619089   1.871   2.082   8.618  0.1074  0.1999  0.4289
  169SOPE  H16R19090   1.789   2.142   8.662 -0.9127  0.8976 -2.2319
  169SOPE  H16S19091   1.970   2.117   8.655  1.8472 -1.6493 -2.0932
  169SOPE  C21719092   1.860   1.931   8.653 -0.3137  0.0386  0.4005
  169SOPE  H17R19093   1.956   1.884   8.624 -0.0524  0.5573  0.4114
  169SOPE  H17S19094   1.788   1.869   8.594  2.4609 -1.3657 -1.7690
  169SOPE  C21819095   1.846   1.905   8.799  0.3691  0.3594  0.4748
  169SOPE  H18R19096   1.743   1.940   8.823  0.3936 -1.0480  3.0204
  169SOPE  H18S19097   1.928   1.966   8.842  1.3881 -0.9144  0.4173
  169SOPE  H18T19098   1.849   1.795   8.815 -0.0835  0.4071  0.9428
  169SOPE   C3319099   1.531   2.779   7.002 -0.2888 -0.9255  0.3910
  169SOPE   H3X19100   1.493   2.675   7.003 -1.7183 -0.4681  3.2661
  169SOPE   H3Y19101   1.457   2.847   7.050  0.3591 -0.6782  1.0557
  169SOPE   C3419102   1.662   2.765   7.086  0.0156 -0.0824 -0.4760
  169SOPE   H4X19103   1.688   2.869   7.112 -2.1324  0.2886  0.4068
  169SOPE   H4Y19104   1.744   2.723   7.023  0.8916 -0.0303  0.5988
  169SOPE   C3519105   1.646   2.686   7.221  0.9050 -0.0954  0.2615
  169SOPE   H5X19106   1.742   2.688   7.275  1.0292 -1.0796  0.0990
  169SOPE   H5Y19107   1.633   2.578   7.196  0.0173 -0.9602  3.9482
  169SOPE   C3619108   1.537   2.741   7.313  0.7825 -0.1996  0.2433
  169SOPE   H6X19109   1.441   2.711   7.266  1.4964  0.1841 -1.5461
  169SOPE   H6Y19110   1.534   2.852   7.315  0.0179 -0.1756 -1.0859
  169SOPE   C3719111   1.538   2.701   7.459 -0.6105  0.7998  0.2253
  169SOPE   H7X19112   1.563   2.781   7.531  1.3479  2.0777 -1.7732
  169SOPE   H7Y19113   1.604   2.615   7.480 -3.0332 -1.1705  0.3110
  169SOPE   C3819114   1.398   2.646   7.507 -0.4358 -0.6694 -0.3113
  169SOPE   H8X19115   1.314   2.718   7.504 -0.3227 -0.5578 -2.2123
  169SOPE   H8Y19116   1.368   2.567   7.435 -2.4184 -0.4920  0.2759
  169SOPE   C3919117   1.383   2.579   7.644 -0.3842 -0.1940 -0.0178
  169SOPE   H9X19118   1.453   2.493   7.650 -2.2212 -1.8162 -0.9722
  169SOPE   H9Y19119   1.287   2.531   7.670  0.5136 -1.2852  1.4129
  169SOPE  C31019120   1.399   2.678   7.763  0.4102  0.6977 -0.3843
  169SOPE  H10X19121   1.497   2.727   7.743  0.8900 -0.8842 -2.1579
  169SOPE  H10Y19122   1.409   2.619   7.856 -0.4351  0.3107 -0.5297
  169SOPE  C31119123   1.275   2.771   7.777  0.2158 -0.4317 -0.3220
  169SOPE  H11X19124   1.180   2.714   7.781 -1.7487  2.6145  0.2324
  169SOPE  H11Y19125   1.264   2.838   7.689 -0.8608  0.0905  0.1810
  169SOPE  C31219126   1.286   2.862   7.899  0.0329 -0.2067  0.3393
  169SOPE  H12X19127   1.197   2.927   7.886 -0.1593 -0.3945  0.7114
  169SOPE  H12Y19128   1.377   2.926   7.897 -1.3034  1.7793  0.5164
  169SOPE  C31319129   1.261   2.785   8.032  0.1190  0.1018  0.0694
  169SOPE  H13X19130   1.317   2.842   8.110 -0.8212  0.2745  0.6403
  169SOPE  H13Y19131   1.308   2.685   8.031 -0.9083 -0.4038  0.5103
  169SOPE  C31419132   1.110   2.784   8.087 -0.2522  0.5677  0.0337
  169SOPE  H14X19133   1.060   2.706   8.025  0.9172 -0.9720  0.9435
  169SOPE  H14Y19134   1.060   2.883   8.085 -1.0472  0.2165  1.3168
  169SOPE  C31519135   1.100   2.729   8.229 -0.2152 -0.0765  0.7696
  169SOPE  H15X19136   1.170   2.790   8.290 -0.6973 -0.3365  1.5973
  169SOPE  H15Y19137   1.148   2.629   8.233  0.8704  0.3401 -0.9060
  169SOPE  C31619138   0.960   2.724   8.299  0.5230 -0.2045 -1.0215
  169SOPE  H16X19139   0.936   2.617   8.316 -1.4290  0.1487 -1.3305
  169SOPE  H16Y19140   0.879   2.780   8.247 -1.0785  1.8973  3.2548
  169SOPE  C31719141   0.958   2.802   8.430 -0.2027 -0.5011  0.2521
  169SOPE  H17X19142   0.954   2.911   8.411 -3.5141 -0.4055  0.8524
  169SOPE  H17Y19143   1.056   2.775   8.474 -0.4682 -1.0354  0.5308
  169SOPE  C31819144   0.840   2.773   8.523 -0.0562  0.2774 -0.4769
  169SOPE  H18X19145   0.748   2.785   8.461  1.1270 -1.3675 -2.6742
  169SOPE  H18Y19146   0.844   2.846   8.607 -0.0372  0.0824 -0.3077
  169SOPE  H18Z19147   0.842   2.667   8.556 -3.4478 -0.2461 -1.5883
  170SOPE     N19148   5.672   0.424   6.379  0.9497  0.3047 -0.5824
  170SOPE   HN119149   5.747   0.395   6.444 -0.7306 -0.2258  1.2187
  170SOPE   HN219150   5.657   0.345   6.312 -0.3851  0.9863 -1.1306
  170SOPE   HN319151   5.691   0.505   6.317  3.4769 -0.0632 -0.3964
  170SOPE   C1219152   5.554   0.447   6.469  0.0791  0.5913  0.0062
  170SOPE  H12A19153   5.458   0.465   6.416 -1.0849 -0.3176  1.6771
  170SOPE  H12B19154   5.562   0.537   6.533  1.5002 -0.0489  0.7754
  170SOPE   C1119155   5.541   0.325   6.573  0.2868  0.0021  0.0486
  170SOPE  H11A19156   5.464   0.346   6.650  0.0850 -2.5152  0.6100
  170SOPE  H11B19157   5.632   0.306   6.634 -0.1089  1.6670  1.2187
  170SOPE     P19158   5.365   0.154   6.491  0.2329  0.2742  0.6461
  170SOPE   O1319159   5.377   0.018   6.432 -0.1357  0.3381  0.1391
  170SOPE   O1419160   5.287   0.257   6.420 -0.3577  0.9047 -0.0534
  170SOPE   O1219161   5.514   0.207   6.496  0.1431  0.0281 -0.2116
  170SOPE   O1119162   5.331   0.149   6.639  0.0234  0.6883  0.3206
  170SOPE    C119163   5.392   0.059   6.733 -0.0671 -0.3689  0.5410
  170SOPE    HA19164   5.444   0.117   6.812 -1.3768  0.0537  1.1195
  170SOPE    HB19165   5.463  -0.014   6.688  0.4224  0.4420 -0.0425
  170SOPE    C219166   5.283  -0.011   6.806 -0.3992 -0.0673  0.1547
  170SOPE    HS19167   5.209  -0.061   6.740  0.7750 -1.4176 -0.2164
  170SOPE   O2119168   5.217   0.093   6.883  0.2100 -0.2675  0.5245
  170SOPE   C2119169   5.097   0.065   6.915  0.3216 -0.3285  0.1823
  170SOPE   O2219170   5.023  -0.028   6.876  0.2387 -0.4714  0.0104
  170SOPE   C2219171   5.055   0.153   7.031  0.0900  0.0856 -0.9868
  170SOPE   H2R19172   5.009   0.083   7.104 -0.7372  0.8976 -0.7142
  170SOPE   H2S19173   4.967   0.215   7.005 -1.2017 -0.9781  0.6306
  170SOPE    C319174   5.355  -0.124   6.897 -0.3891 -0.3992 -0.1712
  170SOPE    HX19175   5.417  -0.081   6.978  0.0268 -0.8662 -0.2415
  170SOPE    HY19176   5.421  -0.186   6.834 -0.2526 -0.1668 -0.2585
  170SOPE   O3119177   5.251  -0.197   6.960 -0.0503  1.3531 -0.5122
  170SOPE   C3119178   5.196  -0.289   6.888 -0.3009  0.3562  0.1627
  170SOPE   O3219179   5.216  -0.312   6.767 -0.6435  0.0223 -0.0122
  170SOPE   C3219180   5.096  -0.363   6.979 -0.5732 -0.5435  1.1467
  170SOPE   H2X19181   5.069  -0.458   6.927 -3.2365  2.0944 -2.8739
  170SOPE   H2Y19182   5.006  -0.299   6.989 -2.3585 -1.7394 -3.9652
  170SOPE   C2319183   5.171   0.229   7.100  0.2577 -0.6908 -0.1809
  170SOPE   H3R19184   5.117   0.310   7.153  1.1013  0.5071 -1.1138
  170SOPE   H3S19185   5.231   0.289   7.029 -0.5464  2.3743  1.5486
  170SOPE   C2419186   5.261   0.147   7.189  0.4332 -0.3634 -0.6411
  170SOPE   H4R19187   5.272   0.039   7.167  2.0241 -0.2959 -0.2477
  170SOPE   H4S19188   5.361   0.191   7.169  0.6650 -0.0263  1.1195
  170SOPE   C2519189   5.221   0.155   7.337  0.1199 -0.8389 -0.2118
  170SOPE   H5R19190   5.238   0.260   7.369 -2.8119 -0.2370 -0.3498
  170SOPE   H5S19191   5.112   0.132   7.339 -0.0624 -0.0111 -0.1145
  170SOPE   C2619192   5.309   0.065   7.426 -0.1121  0.1252  0.1448
  170SOPE   H6R19193   5.290  -0.043   7.405 -0.8886 -0.1414  1.9852
  170SOPE   H6S19194   5.414   0.093   7.402  0.0040  1.6463  2.1195
  170SOPE   C2719195   5.281   0.078   7.579  0.1146 -0.5911  0.7418
  170SOPE   H7R19196   5.274   0.188   7.594  0.1876 -0.4952  0.1070
  170SOPE   H7S19197   5.182   0.037   7.605  0.0278  0.0361  1.4348
  170SOPE   C2819198   5.389   0.021   7.668 -0.2082  0.2028 -0.2338
  170SOPE   H8R19199   5.489   0.065   7.646 -1.2262  2.1357 -1.3133
  170SOPE   H8S19200   5.362   0.047   7.772 -0.0885  2.4872 -0.7255
  170SOPE   C2919201   5.400  -0.139   7.647  0.0889 -0.2758 -0.5732
  170SOPE   H9119202   5.460  -0.178   7.563  1.8473  0.2689  0.3688
  170SOPE  C21019203   5.347  -0.234   7.732 -0.2098 -0.5424  0.3668
  170SOPE  H10119204   5.354  -0.338   7.696 -0.5679 -0.7569  0.8994
  170SOPE  C21119205   5.263  -0.219   7.855 -0.0838  0.0726 -0.1218
  170SOPE  H11R19206   5.297  -0.129   7.910 -0.4045  3.3518 -4.7167
  170SOPE  H11S19207   5.289  -0.305   7.921 -0.0093  1.4487  1.6834
  170SOPE  C21219208   5.113  -0.225   7.825 -0.6141 -0.1389  0.2688
  170SOPE  H12R19209   5.099  -0.304   7.749 -0.3909  2.0101 -2.1171
  170SOPE  H12S19210   5.089  -0.130   7.773  1.3707  0.6950  0.7864
  170SOPE  C21319211   5.020  -0.260   7.944  0.4631 -0.1621 -0.2050
  170SOPE  H13R19212   5.074  -0.337   8.003 -0.4892 -1.5065 -1.0419
  170SOPE  H13S19213   4.924  -0.302   7.908 -0.3256  1.0319  0.4407
  170SOPE  C21419214   4.998  -0.136   8.034  0.0445 -0.4151  0.4282
  170SOPE  H14R19215   4.957  -0.053   7.972  0.5604  1.2936  2.2897
  170SOPE  H14S19216   5.093  -0.098   8.075  0.3243  1.5782 -1.8215
  170SOPE  C21519217   4.893  -0.173   8.141  0.0833  0.1496 -0.0191
  170SOPE  H15R19218   4.816  -0.237   8.092 -0.0626  2.1904 -2.6317
  170SOPE  H15S19219   4.835  -0.086   8.178  0.8530 -0.2808  2.3559
  170SOPE  C21619220   4.943  -0.253   8.260  0.6238 -0.9263  1.4016
  170SOPE  H16R19221   5.022  -0.187   8.302  0.5917  1.2867 -1.6742
  170SOPE  H16S19222   4.982  -0.352   8.226  0.1258 -0.2982 -1.2634
  170SOPE  C21719223   4.843  -0.268   8.368  0.6050 -0.6334  0.0506
  170SOPE  H17R19224   4.751  -0.312   8.324 -0.2550  2.3367 -1.3613
  170SOPE  H17S19225   4.814  -0.170   8.412 -2.3246 -1.0147 -0.8081
  170SOPE  C21819226   4.881  -0.354   8.489 -0.1652  0.4649  0.1413
  170SOPE  H18R19227   4.796  -0.356   8.561  1.5668 -0.2939  2.2520
  170SOPE  H18S19228   4.964  -0.303   8.542  0.6658 -0.3145 -0.3797
  170SOPE  H18T19229   4.903  -0.460   8.461  0.4187 -0.0821  2.4881
  170SOPE   C3319230   5.149  -0.387   7.126 -0.5684  0.2448 -0.1435
  170SOPE   H3X19231   5.169  -0.288   7.172  0.0597 -0.6871  1.7021
  170SOPE   H3Y19232   5.242  -0.447   7.128 -0.3400  0.6035 -0.0159
  170SOPE   C3419233   5.033  -0.452   7.201  0.3276  0.7350 -0.0869
  170SOPE   H4X19234   5.003  -0.542   7.144  1.1995  0.7220 -0.5308
  170SOPE   H4Y19235   4.942  -0.388   7.202 -0.6826 -0.6502 -0.4725
  170SOPE   C3519236   5.072  -0.493   7.342  0.0315 -0.5387 -0.1236
  170SOPE   H5X19237   5.093  -0.400   7.400  2.0287 -0.7658 -0.3888
  170SOPE   H5Y19238   5.167  -0.550   7.357  0.2642  0.0423  0.7093
  170SOPE   C3619239   4.961  -0.574   7.403  0.8270  1.0023 -0.6145
  170SOPE   H6X19240   4.948  -0.669   7.348  0.9051  0.5526  0.1317
  170SOPE   H6Y19241   4.868  -0.516   7.383 -0.5276 -0.5173  0.9028
  170SOPE   C3719242   4.976  -0.608   7.554 -0.3055 -0.0331  0.1520
  170SOPE   H7X19243   4.974  -0.514   7.614  1.6189 -1.4365  2.5941
  170SOPE   H7Y19244   5.075  -0.653   7.577 -0.1574  0.7039  1.0495
  170SOPE   C3819245   4.875  -0.701   7.612  0.3617 -0.1473  0.1176
  170SOPE   H8X19246   4.885  -0.805   7.574  0.9703 -1.0725  2.5920
  170SOPE   H8Y19247   4.773  -0.670   7.583  0.3783  0.0713  0.2910
  170SOPE   C3919248   4.879  -0.706   7.771  0.4383  0.6882 -0.4227
  170SOPE   H9X19249   4.873  -0.602   7.810  0.3003 -0.1859  2.0614
  170SOPE   H9Y19250   4.976  -0.749   7.804  0.8864 -0.6036 -3.1795
  170SOPE  C31019251   4.768  -0.788   7.845  0.4106  0.5308  0.4842
  170SOPE  H10X19252   4.775  -0.892   7.808 -1.0758  0.2642  0.9080
  170SOPE  H10Y19253   4.669  -0.742   7.827 -0.2693 -0.7065  0.9990
  170SOPE  C31119254   4.781  -0.785   7.995  0.0876  0.0483  0.5517
  170SOPE  H11X19255   4.858  -0.857   8.030 -1.1109 -0.4226  2.4200
  170SOPE  H11Y19256   4.683  -0.817   8.037 -0.1505  1.5813  1.2564
  170SOPE  C31219257   4.809  -0.646   8.065  0.6947 -0.5983 -0.7912
  170SOPE  H12X19258   4.731  -0.575   8.030  0.2020 -1.4093 -1.3622
  170SOPE  H12Y19259   4.913  -0.610   8.053  0.5190 -0.0131 -0.5955
  170SOPE  C31319260   4.779  -0.663   8.217 -0.8571  0.0502 -0.1155
  170SOPE  H13X19261   4.671  -0.689   8.226 -0.7421 -0.4666 -0.1663
  170SOPE  H13Y19262   4.796  -0.567   8.269 -0.8006  0.6206 -1.1623
  170SOPE  C31419263   4.877  -0.765   8.279  0.5982 -0.2462 -0.3392
  170SOPE  H14X19264   4.981  -0.740   8.248  0.3742 -0.8112 -1.6222
  170SOPE  H14Y19265   4.853  -0.868   8.245 -0.3450  0.1307 -0.8489
  170SOPE  C31519266   4.876  -0.774   8.429 -0.3415 -0.2010 -0.4935
  170SOPE  H15X19267   4.906  -0.686   8.490 -1.5821 -1.0913  1.4956
  170SOPE  H15Y19268   4.942  -0.859   8.456 -0.3830  0.3069  1.2694
  170SOPE  C31619269   4.738  -0.824   8.481  0.4103 -0.4466  0.2574
  170SOPE  H16X19270   4.741  -0.930   8.515  1.8234 -0.9344 -1.2260
  170SOPE  H16Y19271   4.658  -0.816   8.404 -0.5982  0.5441  1.3883
  170SOPE  C31719272   4.687  -0.730   8.590  0.0282  0.5147  0.3242
  170SOPE  H17X19273   4.705  -0.626   8.556  3.8534 -0.2778 -0.5504
  170SOPE  H17Y19274   4.749  -0.748   8.681  2.2170 -1.3009 -1.4215
  170SOPE  C31819275   4.537  -0.749   8.627 -0.0441  0.3210 -0.0607
  170SOPE  H18X19276   4.479  -0.778   8.538  0.5006  0.3704 -0.4380
  170SOPE  H18Y19277   4.508  -0.647   8.660  0.7972  0.1451  1.3529
  170SOPE  H18Z19278   4.523  -0.832   8.700 -0.2939  1.3863  1.1484
  171SOPE     N19279   2.566   3.608   6.123  0.5850  0.2974 -0.0713
  171SOPE   HN119280   2.522   3.701   6.108  0.9651  0.5073  0.0940
  171SOPE   HN219281   2.614   3.611   6.215 -1.1340  2.0076  0.8549
  171SOPE   HN319282   2.636   3.601   6.047 -0.8551  1.6965 -1.6182
  171SOPE   C1219283   2.449   3.512   6.139  0.2241 -0.1261 -0.1840
  171SOPE  H12A19284   2.492   3.409   6.136  1.2962  0.3142 -0.2787
  171SOPE  H12B19285   2.383   3.525   6.050  0.1484 -1.3657 -0.3355
  171SOPE   C1119286   2.367   3.547   6.263  0.0128 -0.5867  0.1176
  171SOPE  H11A19287   2.433   3.509   6.344 -0.4867 -1.1055  0.2834
  171SOPE  H11B19288   2.276   3.485   6.246 -1.1763  0.6398  1.7630
  171SOPE     P19289   2.354   3.779   6.390 -0.1748 -0.2414 -0.3847
  171SOPE   O1319290   2.243   3.881   6.390 -0.1145  0.2306  0.3771
  171SOPE   O1419291   2.491   3.831   6.378 -0.2289  0.0312  0.2950
  171SOPE   O1219292   2.328   3.681   6.267 -0.5395 -0.1007  0.1394
  171SOPE   O1119293   2.342   3.691   6.523  0.0121 -0.0635  0.0613
  171SOPE    C119294   2.228   3.622   6.557  0.7572 -0.4478  0.0726
  171SOPE    HA19295   2.250   3.515   6.538  0.6240 -0.8765  2.0560
  171SOPE    HB19296   2.143   3.660   6.497 -0.2050  2.2932  2.8814
  171SOPE    C219297   2.195   3.638   6.711 -0.2850  0.9472 -0.7129
  171SOPE    HS19298   2.112   3.571   6.741  0.2352  0.4845 -0.2946
  171SOPE   O2119299   2.168   3.767   6.762  0.4885  0.2986 -0.1328
  171SOPE   C2119300   2.075   3.839   6.709 -0.2991  0.4627 -0.4216
  171SOPE   O2219301   1.999   3.807   6.617  0.3058 -0.3815 -0.4027
  171SOPE   C2219302   2.049   3.962   6.797 -0.4074 -0.6488  0.0263
  171SOPE   H2R19303   2.012   4.038   6.724  2.1708  1.9870  1.2576
  171SOPE   H2S19304   2.147   4.007   6.823 -0.3502  0.6853 -2.2297
  171SOPE    C319305   2.316   3.600   6.783 -0.4530  0.0753 -0.0931
  171SOPE    HX19306   2.383   3.688   6.774 -0.6356  0.4273  1.6006
  171SOPE    HY19307   2.360   3.517   6.724 -0.7509 -0.9006  1.0224
  171SOPE   O3119308   2.287   3.577   6.925 -0.0344 -0.1779 -0.0051
  171SOPE   C3119309   2.267   3.460   6.969  0.4450  0.6970  0.9253
  171SOPE   O3219310   2.277   3.360   6.899  0.4051  0.2950 -0.0495
  171SOPE   C3219311   2.199   3.470   7.104 -0.2868  0.4682  0.3085
  171SOPE   H2X19312   2.133   3.381   7.115 -0.5070  0.5671 -0.1713
  171SOPE   H2Y19313   2.124   3.553   7.106 -1.3789 -0.5078  1.2289
  171SOPE   C2319314   1.954   3.940   6.919  0.3008 -0.0823  1.4747
  171SOPE   H3R19315   1.876   3.873   6.877  2.4626 -1.9891  0.2255
  171SOPE   H3S19316   1.894   4.032   6.935 -1.6941 -0.8542 -0.8898
  171SOPE   C2419317   2.023   3.891   7.042 -0.4579  0.1106 -0.5457
  171SOPE   H4R19318   1.962   3.816   7.095 -0.9942  1.0819  0.2430
  171SOPE   H4S19319   2.112   3.831   7.013  0.6190  1.1307  0.5454
  171SOPE   C2519320   2.055   3.999   7.145  0.2176  0.3511  0.0763
  171SOPE   H5R19321   2.141   4.060   7.109 -0.0635  0.0583 -1.1348
  171SOPE   H5S19322   1.970   4.070   7.158 -1.9472 -1.8939 -1.0935
  171SOPE   C2619323   2.087   3.952   7.285 -0.1363 -0.2261 -0.5574
  171SOPE   H6R19324   2.139   3.854   7.277  0.3762 -0.1317  1.2205
  171SOPE   H6S19325   2.143   4.027   7.345 -2.2669  0.8036  0.2692
  171SOPE   C2719326   1.964   3.926   7.375  0.0451  0.0391  1.0006
  171SOPE   H7R19327   1.894   4.011   7.389 -2.4134 -1.6712 -0.0690
  171SOPE   H7S19328   1.906   3.844   7.327 -2.3973  2.3745 -0.3355
  171SOPE   C2819329   1.987   3.865   7.519 -0.1145 -0.1873  0.8056
  171SOPE   H8R19330   1.890   3.815   7.537  0.8666 -2.5497 -0.0985
  171SOPE   H8S19331   2.060   3.784   7.496 -1.9584 -1.7993  0.4018
  171SOPE   C2919332   2.029   3.977   7.612 -0.4229  0.2798  0.2612
  171SOPE   H9119333   1.968   4.069   7.612  0.6359  1.0562 -1.6907
  171SOPE  C21019334   2.147   3.986   7.667 -0.3738 -0.3167 -0.4533
  171SOPE  H10119335   2.168   4.080   7.719 -0.0439 -0.7536  0.2239
  171SOPE  C21119336   2.256   3.892   7.661 -0.4831 -0.5318 -0.0417
  171SOPE  H11R19337   2.309   3.922   7.568 -1.1130  2.2206  0.4091
  171SOPE  H11S19338   2.224   3.786   7.651 -3.6359  0.1655  1.4850
  171SOPE  C21219339   2.366   3.920   7.770  0.3944 -0.9983 -0.1705
  171SOPE  H12R19340   2.387   4.029   7.779  3.8648 -1.5928  0.3690
  171SOPE  H12S19341   2.461   3.874   7.734  0.8185  0.0135 -0.3767
  171SOPE  C21319342   2.349   3.868   7.915  0.0335  0.5409 -0.5357
  171SOPE  H13R19343   2.335   3.759   7.904 -1.1866  0.6893 -0.5389
  171SOPE  H13S19344   2.260   3.901   7.972  0.1320 -0.4806  0.2422
  171SOPE  C21419345   2.479   3.884   8.004  0.6201  0.0569 -0.0652
  171SOPE  H14R19346   2.488   3.993   8.020  2.5195  0.1544 -1.4419
  171SOPE  H14S19347   2.561   3.851   7.936  0.8185  0.3374  0.0359
  171SOPE  C21519348   2.470   3.809   8.134 -0.2491  0.3845  0.1865
  171SOPE  H15R19349   2.487   3.702   8.109  2.0292  0.7253  0.0711
  171SOPE  H15S19350   2.365   3.799   8.170 -0.3895 -1.4030 -0.6053
  171SOPE  C21619351   2.555   3.879   8.245  0.4095 -0.3265 -0.4682
  171SOPE  H16R19352   2.533   3.988   8.244  1.7625 -0.0347  0.1544
  171SOPE  H16S19353   2.664   3.869   8.226  0.3566 -2.2115  0.0064
  171SOPE  C21719354   2.518   3.814   8.379  0.2748 -0.3115  0.3636
  171SOPE  H17R19355   2.494   3.705   8.376 -2.5503  0.2575 -1.5070
  171SOPE  H17S19356   2.413   3.838   8.407  0.3493 -0.1042  0.4711
  171SOPE  C21819357   2.611   3.838   8.498 -0.0544 -0.6064  0.2157
  171SOPE  H18R19358   2.633   3.947   8.506  3.8254 -1.0971 -1.4360
  171SOPE  H18S19359   2.711   3.799   8.466 -0.9409 -1.1679 -2.1067
  171SOPE  H18T19360   2.580   3.798   8.596  2.7180 -0.6787  1.1634
  171SOPE   C3319361   2.297   3.474   7.218  0.2300 -0.4211  0.4112
  171SOPE   H3X19362   2.361   3.565   7.219 -0.0977 -0.1517  2.3085
  171SOPE   H3Y19363   2.372   3.392   7.211  0.5741 -0.1320  0.6646
  171SOPE   C3419364   2.231   3.476   7.355  0.3365 -0.3816 -0.3403
  171SOPE   H4X19365   2.169   3.384   7.349 -0.1559 -0.0737 -0.0573
  171SOPE   H4Y19366   2.174   3.571   7.367  0.7719  0.1028 -1.8378
  171SOPE   C3519367   2.332   3.470   7.475 -0.0083  0.1527 -0.2952
  171SOPE   H5X19368   2.400   3.557   7.489  0.0838  0.1444 -0.6815
  171SOPE   H5Y19369   2.396   3.383   7.451  1.3948  0.7706  1.0245
  171SOPE   C3619370   2.265   3.428   7.607  0.6811  0.2407 -0.2763
  171SOPE   H6X19371   2.194   3.343   7.596 -0.0895  0.9796 -1.1071
  171SOPE   H6Y19372   2.204   3.516   7.635  0.8993 -0.0805  1.2650
  171SOPE   C3719373   2.354   3.412   7.730  0.0573  0.5349  0.0916
  171SOPE   H7X19374   2.446   3.470   7.708  0.5521 -0.1661  0.2813
  171SOPE   H7Y19375   2.385   3.306   7.720  0.1672  0.3984  1.6289
  171SOPE   C3819376   2.273   3.434   7.864  0.3115 -0.2141  0.7092
  171SOPE   H8X19377   2.187   3.364   7.863  0.1939 -0.1044 -1.4136
  171SOPE   H8Y19378   2.235   3.538   7.862  1.3493  0.3251  3.9896
  171SOPE   C3919379   2.378   3.413   7.975  0.7009 -0.0116 -0.2801
  171SOPE   H9X19380   2.452   3.495   7.989  0.1820  0.2686  1.0241
  171SOPE   H9Y19381   2.444   3.329   7.948 -0.2342 -0.0687 -2.6788
  171SOPE  C31019382   2.317   3.400   8.115 -0.3973  0.1251 -0.4429
  171SOPE  H10X19383   2.243   3.482   8.127 -1.4581 -0.5683 -1.9769
  171SOPE  H10Y19384   2.397   3.425   8.188 -0.6130  2.0806 -0.8093
  171SOPE  C31119385   2.251   3.266   8.146  0.5596  0.1240 -0.0107
  171SOPE  H11X19386   2.154   3.263   8.092 -0.6658  0.5140  2.0832
  171SOPE  H11Y19387   2.217   3.264   8.251  1.4196  0.2910  0.2812
  171SOPE  C31219388   2.343   3.144   8.130 -0.3204 -0.2028  0.5454
  171SOPE  H12X19389   2.435   3.147   8.192  2.0349 -0.4195 -2.6585
  171SOPE  H12Y19390   2.377   3.149   8.024 -1.3139 -0.4543  0.1995
  171SOPE  C31319391   2.274   3.010   8.158 -0.0425 -0.6984 -0.2693
  171SOPE  H13X19392   2.189   2.999   8.088  0.5658 -0.4877 -1.0610
  171SOPE  H13Y19393   2.252   2.992   8.266  2.5258  0.8716  0.6264
  171SOPE  C31419394   2.364   2.900   8.107 -0.0854 -0.5327 -0.2601
  171SOPE  H14X19395   2.327   2.813   8.167  2.6147 -1.6862 -0.1169
  171SOPE  H14Y19396   2.471   2.920   8.129 -0.4784  1.1258  0.2721
  171SOPE  C31519397   2.353   2.863   7.957  0.5923 -0.2783 -0.1290
  171SOPE  H15X19398   2.392   2.953   7.904  0.5007  0.3227  0.8155
  171SOPE  H15Y19399   2.243   2.853   7.943  0.4213 -0.1904  1.0457
  171SOPE  C31619400   2.436   2.733   7.916 -0.3469  0.6321  0.1672
  171SOPE  H16X19401   2.391   2.650   7.974  2.1018 -2.0584 -1.5141
  171SOPE  H16Y19402   2.541   2.740   7.954  0.2294  0.4790 -1.3468
  171SOPE  C31719403   2.426   2.721   7.770 -0.6921  0.0699 -0.1876
  171SOPE  H17X19404   2.469   2.812   7.722 -0.3077  2.0454  3.5293
  171SOPE  H17Y19405   2.318   2.719   7.747 -1.2446  0.7557  2.1305
  171SOPE  C31819406   2.488   2.600   7.714 -0.8728 -0.3108  0.6902
  171SOPE  H18X19407   2.598   2.605   7.724 -0.7958  0.8076 -0.5061
  171SOPE  H18Y19408   2.478   2.591   7.604  0.6460  1.2034  0.3952
  171SOPE  H18Z19409   2.447   2.503   7.751 -2.5531  0.1075  0.0334
  172SOPE     N19410   5.794   4.903   6.245 -0.3703  0.5799  0.0323
  172SOPE   HN119411   5.757   4.973   6.313 -0.6205  0.3890  0.0933
  172SOPE   HN219412   5.867   4.862   6.306  0.4932  1.9804 -0.0077
  172SOPE   HN319413   5.845   4.949   6.167 -2.3188  3.4656  0.2978
  172SOPE   C1219414   5.687   4.799   6.220 -0.2920 -0.3170  0.3879
  172SOPE  H12A19415   5.635   4.829   6.127  0.3820 -0.3575 -0.0085
  172SOPE  H12B19416   5.619   4.808   6.307  1.7658  2.0413  1.8901
  172SOPE   C1119417   5.739   4.656   6.202 -0.0253 -0.2260  0.4793
  172SOPE  H11A19418   5.820   4.668   6.127 -1.3834  4.8091 -0.5628
  172SOPE  H11B19419   5.650   4.611   6.153 -1.1241  1.1136  1.1712
  172SOPE     P19420   5.683   4.487   6.401 -0.4111 -0.0255 -0.1460
  172SOPE   O1319421   5.721   4.350   6.381 -0.2790  0.1900 -0.1609
  172SOPE   O1419422   5.540   4.521   6.375  0.2576  0.2474  0.3992
  172SOPE   O1219423   5.773   4.587   6.324 -0.1209 -0.3623  0.4099
  172SOPE   O1119424   5.713   4.524   6.551  0.0699 -0.2259 -0.1282
  172SOPE    C119425   5.711   4.657   6.603 -0.3066 -0.5952  0.6765
  172SOPE    HA19426   5.617   4.713   6.583  0.7938  0.4264 -2.1017
  172SOPE    HB19427   5.782   4.723   6.549  0.2467 -1.0601  0.8310
  172SOPE    C219428   5.739   4.657   6.756 -0.1417 -0.2354 -0.5279
  172SOPE    HS19429   5.726   4.758   6.801 -1.0719 -1.3816  1.9739
  172SOPE   O2119430   5.875   4.604   6.786  0.2519 -0.3002  0.1647
  172SOPE   C2119431   5.941   4.669   6.885 -1.2980 -0.2290  0.1763
  172SOPE   O2219432   5.894   4.750   6.959  0.5454 -0.0692 -0.0506
  172SOPE   C2219433   6.084   4.621   6.888  0.2267  0.1116  0.4913
  172SOPE   H2R19434   6.143   4.715   6.901  0.1913  0.5745 -2.1170
  172SOPE   H2S19435   6.121   4.579   6.792  0.9547  0.2269  0.7161
  172SOPE    C319436   5.625   4.576   6.830  0.0005 -0.0165  0.0301
  172SOPE    HX19437   5.629   4.474   6.786 -0.3335 -0.8813  1.8983
  172SOPE    HY19438   5.532   4.633   6.811  0.5395  0.5856 -0.8675
  172SOPE   O3119439   5.651   4.563   6.977  0.0386  0.0456  0.5403
  172SOPE   C3119440   5.593   4.455   7.033 -0.3826 -0.1591 -1.0727
  172SOPE   O3219441   5.505   4.391   6.980 -0.5883  0.0791 -0.6886
  172SOPE   C3219442   5.642   4.430   7.176  0.1239 -0.1490  0.5017
  172SOPE   H2X19443   5.633   4.524   7.235  0.8774  1.1730 -1.4083
  172SOPE   H2Y19444   5.749   4.400   7.171  0.2622  0.5411 -2.1792
  172SOPE   C2319445   6.088   4.528   7.008 -0.1323  0.4218 -0.0944
  172SOPE   H3R19446   6.072   4.582   7.104 -1.2522  0.8916 -0.5284
  172SOPE   H3S19447   6.194   4.495   7.014 -0.1780  0.3846  0.6457
  172SOPE   C2419448   6.014   4.398   7.004  0.5547 -0.1508  0.2009
  172SOPE   H4R19449   5.914   4.421   7.047 -0.2895 -2.5964 -0.2723
  172SOPE   H4S19450   6.006   4.352   6.904  0.7643  0.2463  0.0003
  172SOPE   C2519451   6.068   4.303   7.102 -1.5927 -0.3011  0.2078
  172SOPE   H5R19452   5.997   4.218   7.105 -0.9721 -0.8143  2.2182
  172SOPE   H5S19453   6.170   4.269   7.076 -0.7754  2.3147 -0.2959
  172SOPE   C2619454   6.087   4.341   7.246  0.4713 -0.4011 -0.0528
  172SOPE   H6R19455   6.156   4.428   7.252  2.8089 -2.1716  0.5282
  172SOPE   H6S19456   5.993   4.364   7.300  0.1092 -0.2852 -0.7271
  172SOPE   C2719457   6.152   4.230   7.323 -0.1081  0.4046 -0.4267
  172SOPE   H7R19458   6.258   4.215   7.293 -0.4341  0.9839 -1.9642
  172SOPE   H7S19459   6.157   4.268   7.427  3.7807  2.1419 -1.0744
  172SOPE   C2819460   6.070   4.105   7.337  0.0897  0.1472  0.3579
  172SOPE   H8R19461   5.973   4.129   7.385 -0.5494 -0.3950 -0.6393
  172SOPE   H8S19462   6.042   4.069   7.236 -0.7851  1.5501  0.0820
  172SOPE   C2919463   6.154   4.007   7.415  0.0506 -0.7683  0.2367
  172SOPE   H9119464   6.263   4.022   7.416  0.3718 -1.9306  4.4661
  172SOPE  C21019465   6.116   3.922   7.511 -0.1471 -0.0079  0.4811
  172SOPE  H10119466   6.197   3.859   7.552  3.6478  3.1240 -1.4500
  172SOPE  C21119467   5.977   3.896   7.560  0.3925  0.1374  0.0146
  172SOPE  H11R19468   5.905   3.929   7.483  1.3992  0.9158 -0.6293
  172SOPE  H11S19469   5.953   3.953   7.652  0.6296 -2.0657  1.5343
  172SOPE  C21219470   5.945   3.749   7.571  0.3758  0.4930 -0.1781
  172SOPE  H12R19471   5.915   3.706   7.474  0.2742  2.1407 -0.9110
  172SOPE  H12S19472   5.851   3.741   7.631  0.8273  0.6476  0.5552
  172SOPE  C21319473   6.029   3.661   7.665 -0.7174  0.4392 -0.0305
  172SOPE  H13R19474   6.134   3.645   7.633  0.0187 -0.2234  2.4688
  172SOPE  H13S19475   5.992   3.557   7.673  3.1344 -1.0784 -0.0397
  172SOPE  C21419476   6.037   3.705   7.805  0.3149  0.0831 -0.0306
  172SOPE  H14R19477   5.937   3.733   7.845  0.1131 -1.0551  0.2742
  172SOPE  H14S19478   6.092   3.802   7.797 -0.0077  0.3613  0.9515
  172SOPE  C21519479   6.087   3.601   7.900 -0.4351  0.1587 -0.2526
  172SOPE  H15R19480   6.172   3.545   7.857 -0.7190 -1.4220  1.1486
  172SOPE  H15S19481   6.012   3.519   7.911 -0.0757 -0.1963 -0.4499
  172SOPE  C21619482   6.113   3.658   8.038  0.3228  0.5636  0.2398
  172SOPE  H16R19483   6.027   3.724   8.064  2.2458  2.2990  2.7090
  172SOPE  H16S19484   6.211   3.711   8.032  0.2099  0.6273 -1.4436
  172SOPE  C21719485   6.124   3.540   8.133 -0.6788 -0.2533  0.5857
  172SOPE  H17R19486   6.199   3.466   8.098 -2.3794 -0.7583 -2.2750
  172SOPE  H17S19487   6.024   3.491   8.140 -1.5892  1.3448 -0.7057
  172SOPE  C21819488   6.156   3.587   8.268 -0.1495 -0.0807  0.4232
  172SOPE  H18R19489   6.259   3.628   8.281  0.8524 -1.7911 -1.5048
  172SOPE  H18S19490   6.151   3.505   8.342  0.1007  0.7523  1.3922
  172SOPE  H18T19491   6.083   3.659   8.310 -2.4286 -1.4447 -0.9707
  172SOPE   C3319492   5.573   4.310   7.237  0.5620 -0.0700  0.4928
  172SOPE   H3X19493   5.631   4.224   7.197  0.9565  0.6543 -0.5225
  172SOPE   H3Y19494   5.466   4.300   7.209  0.9490 -0.5626 -0.8522
  172SOPE   C3419495   5.593   4.288   7.387  0.1775  0.5818 -0.1760
  172SOPE   H4X19496   5.500   4.308   7.444 -0.0239  0.0381 -0.3140
  172SOPE   H4Y19497   5.676   4.358   7.412  2.1628 -1.9350  0.6375
  172SOPE   C3519498   5.644   4.147   7.437 -0.7493  0.1271 -0.8410
  172SOPE   H5X19499   5.730   4.108   7.378  0.4362 -1.8586  1.9843
  172SOPE   H5Y19500   5.568   4.068   7.423 -0.3834 -0.4539  0.3817
  172SOPE   C3619501   5.693   4.132   7.588  0.2549  0.4451  0.1698
  172SOPE   H6X19502   5.781   4.194   7.616 -0.1989  2.0134 -1.7043
  172SOPE   H6Y19503   5.709   4.024   7.610  1.0772 -0.0150 -2.3944
  172SOPE   C3719504   5.573   4.158   7.679 -0.5715 -0.8257 -0.5195
  172SOPE   H7X19505   5.492   4.085   7.658 -1.9093  0.4329  0.1109
  172SOPE   H7Y19506   5.539   4.262   7.665 -1.2513 -0.9063  0.4188
  172SOPE   C3819507   5.603   4.133   7.830  0.0356 -0.1880  0.2725
  172SOPE   H8X19508   5.691   4.196   7.854  1.4889 -1.9608 -0.1661
  172SOPE   H8Y19509   5.621   4.024   7.840  1.6797  0.1738  1.5619
  172SOPE   C3919510   5.474   4.161   7.923  0.2954  1.2552  0.6571
  172SOPE   H9X19511   5.390   4.092   7.901  0.2732  1.0816  1.2742
  172SOPE   H9Y19512   5.440   4.264   7.899 -1.5159  1.0066  2.0235
  172SOPE  C31019513   5.507   4.157   8.072 -0.8543  0.2003 -0.2366
  172SOPE  H10X19514   5.596   4.218   8.095  1.5094 -1.9157 -2.9740
  172SOPE  H10Y19515   5.531   4.053   8.105  1.5970  0.7118 -0.2183
  172SOPE  C31119516   5.386   4.177   8.167 -0.2442  0.3650 -0.4694
  172SOPE  H11X19517   5.397   4.104   8.250 -0.1266  0.8998 -0.0144
  172SOPE  H11Y19518   5.294   4.142   8.116 -0.0294  0.1173 -0.6936
  172SOPE  C31219519   5.350   4.313   8.228 -1.2580 -0.0363 -0.0433
  172SOPE  H12X19520   5.264   4.289   8.294  0.8494 -1.3771  2.3834
  172SOPE  H12Y19521   5.325   4.391   8.153  0.4949 -0.6974 -1.3768
  172SOPE  C31319522   5.463   4.376   8.318  0.6812  0.3550  0.2565
  172SOPE  H13X19523   5.414   4.466   8.362  0.6592  0.4725 -0.0069
  172SOPE  H13Y19524   5.556   4.393   8.259 -1.0003  3.6358 -1.7572
  172SOPE  C31419525   5.508   4.289   8.434 -0.5999  0.6586 -0.7345
  172SOPE  H14X19526   5.540   4.186   8.407 -2.3786  0.6065 -2.8595
  172SOPE  H14Y19527   5.423   4.262   8.500 -0.7771 -1.3323 -1.7111
  172SOPE  C31519528   5.623   4.362   8.498 -0.3719 -0.3388  0.2283
  172SOPE  H15X19529   5.573   4.454   8.535 -0.2282  0.6150 -1.8158
  172SOPE  H15Y19530   5.702   4.390   8.425 -0.4810 -2.0863 -0.6116
  172SOPE  C31619531   5.682   4.296   8.620  0.0816 -0.0709  0.1406
  172SOPE  H16X19532   5.703   4.195   8.578 -0.8286 -0.1387 -0.1590
  172SOPE  H16Y19533   5.608   4.283   8.702 -1.1860 -0.6540 -1.0636
  172SOPE  C31719534   5.808   4.366   8.660 -0.1082 -0.0346 -0.0175
  172SOPE  H17X19535   5.794   4.473   8.684 -1.4380 -0.0416 -0.6315
  172SOPE  H17Y19536   5.871   4.361   8.569 -0.1741 -2.2559 -0.0177
  172SOPE  C31819537   5.887   4.302   8.780 -0.2229 -0.2987 -0.1235
  172SOPE  H18X19538   5.987   4.352   8.782  0.9481 -2.5315  1.2046
  172SOPE  H18Y19539   5.898   4.192   8.772 -2.1814 -0.4278 -2.2869
  172SOPE  H18Z19540   5.827   4.328   8.869 -1.4680 -1.4026 -0.6123
  173SAPI   C1219541   3.453   5.196  10.582  0.0742 -0.1569  0.0085
  173SAPI    H219542   3.439   5.110  10.514  0.6696 -0.0434 -0.2700
  173SAPI    O219543   3.579   5.266  10.554 -0.1839  0.5777 -0.2105
  173SAPI   HO219544   3.644   5.226  10.614  1.2858  0.5696 -1.7281
  173SAPI   C1319545   3.335   5.296  10.589 -0.0485 -0.5754 -0.0061
  173SAPI    H319546   3.238   5.247  10.614  0.3040 -1.3488 -0.1354
  173SAPI    O319547   3.321   5.359  10.459  0.2429 -0.3255  0.1179
  173SAPI   HO319548   3.407   5.388  10.429 -0.4319  2.8966  0.8784
  173SAPI   C1419549   3.362   5.403  10.699 -0.1234  0.0579 -0.0374
  173SAPI    H419550   3.456   5.454  10.671 -0.0781  0.0240  0.0552
  173SAPI    O419551   3.252   5.497  10.707  0.4960 -0.3784  0.1127
  173SAPI   HO419552   3.217   5.525  10.622 -0.4005 -1.0505  0.2544
  173SAPI   C1519553   3.383   5.330  10.832 -0.1194 -0.2151  0.4407
  173SAPI    H519554   3.294   5.271  10.862 -0.8021  0.7410  0.3365
  173SAPI    O519555   3.398   5.430  10.935  0.3763  0.6602 -0.4141
  173SAPI   HO519556   3.316   5.481  10.938 -2.2763 -3.1408  2.3030
  173SAPI   C1619557   3.496   5.233  10.827 -0.6473  0.3257  0.4643
  173SAPI    H619558   3.595   5.280  10.808 -0.6755 -0.1958 -1.1425
  173SAPI    O619559   3.508   5.160  10.952  0.6071  0.1173  0.3438
  173SAPI   HO619560   3.500   5.069  10.924 -0.3867  0.4436 -0.4799
  173SAPI   C1119561   3.465   5.137  10.717 -0.2764  0.1081 -0.4744
  173SAPI    H119562   3.363   5.100  10.737 -0.1986  0.7203  1.1823
  173SAPI     P19563   3.511   4.879  10.748  0.6221 -0.0915 -0.1232
  173SAPI   O1319564   3.431   4.901  10.869  0.8001 -0.2065  0.5115
  173SAPI   O1419565   3.622   4.783  10.759 -0.0133 -0.9379 -0.1158
  173SAPI   O1219566   3.571   5.030  10.716 -0.5411 -0.0982  0.3698
  173SAPI   O1119567   3.418   4.852  10.622 -0.2381 -0.3760 -0.0673
  173SAPI    C119568   3.470   4.771  10.521  0.0136 -0.0202  0.2129
  173SAPI    HA19569   3.533   4.685  10.553 -0.4058 -0.2627  0.3994
  173SAPI    HB19570   3.380   4.728  10.473 -1.3189 -1.0622  3.3787
  173SAPI    C219571   3.548   4.857  10.424 -0.7828  0.5093  0.6869
  173SAPI    HS19572   3.615   4.932  10.471  0.1705  0.5987 -0.7620
  173SAPI   O2119573   3.454   4.925  10.343 -0.2975  0.1133 -0.2093
  173SAPI   C2119574   3.497   5.024  10.266 -0.6076 -0.4001 -0.0451
  173SAPI   O2219575   3.609   5.077  10.273  0.1926  0.0239 -0.1874
  173SAPI   C2219576   3.389   5.068  10.171 -0.5241 -0.1036  0.1457
  173SAPI   H2R19577   3.322   4.987  10.135  2.2657 -2.9168  0.8640
  173SAPI   H2S19578   3.312   5.127  10.226 -2.3193 -2.7589  0.6399
  173SAPI    C319579   3.631   4.767  10.326 -0.3279 -0.8752  0.3177
  173SAPI    HX19580   3.707   4.710  10.385  0.9585  2.8270  2.6082
  173SAPI    HY19581   3.696   4.830  10.260 -1.3725 -0.3734 -0.2479
  173SAPI   O3119582   3.546   4.682  10.243  0.3196  0.0815  0.0355
  173SAPI   C3119583   3.619   4.608  10.159 -0.2158  0.1893 -0.3064
  173SAPI   O3219584   3.739   4.619  10.136 -0.0411  0.5819  0.0179
  173SAPI   C3219585   3.526   4.502  10.089  0.7512  0.0156 -0.1553
  173SAPI   H2X19586   3.427   4.543  10.060 -0.7210 -0.4116  3.6494
  173SAPI   H2Y19587   3.516   4.421  10.165  0.1962  1.4699  1.3874
  173SAPI   C2319588   3.449   5.145  10.047 -0.5016 -0.7893 -0.1359
  173SAPI   H3R19589   3.522   5.082   9.991  0.4396  0.8273 -0.7812
  173SAPI   H3S19590   3.517   5.229  10.072 -1.7487 -0.2148  1.5413
  173SAPI   C2419591   3.340   5.194   9.953 -0.9301  0.4079 -0.2709
  173SAPI   H4R19592   3.391   5.253   9.874  0.6188  0.8329  0.9818
  173SAPI   H4S19593   3.282   5.269  10.010 -0.8760  1.8974 -2.0778
  173SAPI   C2519594   3.252   5.087   9.899 -0.1461  0.1999 -0.0473
  173SAPI   H5R19595   3.180   5.049   9.973  0.4742  1.1806  1.1120
  173SAPI   C2619596   3.245   5.046   9.767  0.3260 -0.1594 -0.4313
  173SAPI   H6R19597   3.167   4.973   9.738  1.2786 -1.6975  0.7054
  173SAPI   C2719598   3.330   5.087   9.649 -0.2738 -0.4160 -0.3450
  173SAPI   H7R19599   3.351   5.196   9.653 -0.0868 -0.3679 -2.0197
  173SAPI   H7S19600   3.270   5.085   9.556 -0.6683  0.6207 -0.1159
  173SAPI   C2819601   3.460   5.010   9.622  0.2030  0.1567  0.1517
  173SAPI   H8R19602   3.453   4.910   9.669 -0.0049 -0.4890 -1.1987
  173SAPI   C2919603   3.563   5.046   9.545  0.3150 -0.2329  1.0326
  173SAPI   H9R19604   3.643   4.972   9.529 -0.1324 -0.3383 -0.9583
  173SAPI  C21019605   3.568   5.179   9.471 -0.8796 -0.5910  0.2572
  173SAPI  H10R19606   3.468   5.226   9.473 -0.5086  0.5072 -2.5437
  173SAPI  H10S19607   3.605   5.171   9.367  3.3569  2.1015  1.2784
  173SAPI  C21119608   3.645   5.288   9.530 -1.3683 -0.0324  0.0194
  173SAPI  H11R19609   3.657   5.295   9.639 -0.4591 -0.6613 -0.0329
  173SAPI  C21219610   3.713   5.384   9.472  0.3142 -0.2564  0.5943
  173SAPI  H12R19611   3.737   5.463   9.545 -1.2171 -0.9051  1.8515
  173SAPI  C21319612   3.730   5.400   9.323 -0.1165 -0.2420  0.2043
  173SAPI  H13R19613   3.636   5.444   9.283 -0.0836  0.3059  0.7199
  173SAPI  H13S19614   3.744   5.305   9.267 -2.4897 -0.1930 -0.6103
  173SAPI  C21419615   3.836   5.492   9.278 -0.9329  0.2873 -0.3106
  173SAPI  H14R19616   3.888   5.542   9.361  0.7873 -0.0434 -1.1519
  173SAPI  C21519617   3.868   5.508   9.146 -0.4249 -0.1916  0.2971
  173SAPI  H15R19618   3.941   5.589   9.129 -2.0292  1.6084  1.4175
  173SAPI  C21619619   3.803   5.452   9.024  0.2756  0.8074  0.2075
  173SAPI  H16R19620   3.713   5.510   8.994 -1.2070  0.0718  2.8506
  173SAPI  H16S19621   3.762   5.357   9.065  3.5955 -0.9479 -0.2082
  173SAPI  C21719622   3.891   5.411   8.907  0.3897 -0.5478  0.1146
  173SAPI  H17R19623   3.829   5.371   8.824 -0.6396  2.1199 -0.4959
  173SAPI  H17S19624   3.941   5.318   8.940 -2.6180 -2.5844 -0.6697
  173SAPI  C21819625   3.997   5.517   8.864  0.5520 -1.3767  0.3700
  173SAPI  H18R19626   4.091   5.510   8.922  0.8277 -1.1423 -0.0443
  173SAPI  H18S19627   3.946   5.613   8.882 -2.7375 -2.9261  0.1370
  173SAPI  C21919628   4.030   5.503   8.717 -0.0472  0.3592 -0.9880
  173SAPI  H19R19629   4.086   5.594   8.685  0.5361  0.6339  0.6892
  173SAPI  H19S19630   3.937   5.499   8.658 -0.6043  0.2154 -0.1139
  173SAPI  C22019631   4.107   5.377   8.683  0.4431 -0.5558 -0.2852
  173SAPI  H20R19632   4.063   5.281   8.717  1.1575 -0.5073  0.8176
  173SAPI  H20S19633   4.209   5.381   8.726  0.5975 -2.5178 -0.3817
  173SAPI  H20T19634   4.125   5.372   8.573 -0.6388 -0.5220 -0.4722
  173SAPI   C3319635   3.593   4.428   9.968  0.7499  0.5922 -0.9416
  173SAPI   H3X19636   3.527   4.341   9.948  0.4661  1.2328 -3.0111
  173SAPI   H3Y19637   3.698   4.398   9.990  1.1730  2.6648  0.0741
  173SAPI   C3419638   3.583   4.520   9.846  0.6819  0.0068 -0.2880
  173SAPI   H4X19639   3.636   4.615   9.869 -1.3529  1.4590 -1.2390
  173SAPI   H4Y19640   3.478   4.556   9.834 -0.1069 -1.6598  1.1405
  173SAPI   C3519641   3.636   4.443   9.728  0.5269  0.0523 -0.1332
  173SAPI   H5X19642   3.601   4.338   9.731  3.8240 -1.1437  1.6163
  173SAPI   H5Y19643   3.747   4.438   9.730  0.6120  1.5388  0.9669
  173SAPI   C3619644   3.590   4.507   9.588 -0.8005  0.1091 -0.1780
  173SAPI   H6X19645   3.628   4.611   9.583  0.1675 -0.3201 -3.0259
  173SAPI   H6Y19646   3.479   4.505   9.586 -0.7928 -1.8041 -0.5964
  173SAPI   C3719647   3.642   4.425   9.461  0.1042 -0.4873 -1.4428
  173SAPI   H7X19648   3.634   4.314   9.461  0.8068 -0.5486 -0.5792
  173SAPI   H7Y19649   3.752   4.438   9.454  0.0548  0.5603 -0.6052
  173SAPI   C3819650   3.595   4.475   9.328  0.0872  0.5706  0.2451
  173SAPI   H8X19651   3.608   4.585   9.333  2.1140  0.3184  3.6171
  173SAPI   H8Y19652   3.486   4.455   9.323 -0.4086  3.0676 -0.1398
  173SAPI   C3919653   3.666   4.405   9.207  0.1262  0.1851 -0.0159
  173SAPI   H9X19654   3.656   4.296   9.224  0.3636  0.5051  2.5962
  173SAPI   H9Y19655   3.770   4.443   9.216  0.7084 -0.5301 -2.8585
  173SAPI  C31019656   3.603   4.451   9.077 -0.9649  0.1672 -0.6325
  173SAPI  H10X19657   3.495   4.423   9.078 -0.3112 -2.6614 -0.9338
  173SAPI  H10Y19658   3.642   4.388   8.994 -0.8078 -0.4790 -0.0757
  173SAPI  C31119659   3.646   4.596   9.057 -0.3267  0.0160  0.4619
  173SAPI  H11X19660   3.756   4.612   9.059 -0.4701  1.0501  0.7650
  173SAPI  H11Y19661   3.615   4.659   9.143  1.3669  0.7381  0.5861
  173SAPI  C31219662   3.581   4.657   8.932  0.5948 -0.4918 -0.6584
  173SAPI  H12X19663   3.609   4.762   8.908  1.8674 -0.6240  0.1346
  173SAPI  H12Y19664   3.472   4.651   8.948  0.7500  0.9059  1.2624
  173SAPI  C31319665   3.609   4.588   8.798 -0.1285  0.3453  0.4400
  173SAPI  H13X19666   3.588   4.479   8.807 -1.8065  0.5025 -1.0175
  173SAPI  H13Y19667   3.718   4.602   8.784  0.5844 -3.4104  1.2910
  173SAPI  C31419668   3.545   4.647   8.672  0.1566  0.2420  0.5752
  173SAPI  H14X19669   3.576   4.754   8.661  0.2197  0.0591 -1.3929
  173SAPI  H14Y19670   3.434   4.641   8.663  0.3039 -0.0124 -1.8561
  173SAPI  C31519671   3.601   4.587   8.547  0.2745  0.7831  0.2616
  173SAPI  H15X19672   3.564   4.483   8.537 -2.5749  1.7275 -0.1969
  173SAPI  H15Y19673   3.712   4.582   8.547  0.2095 -1.9659 -0.3149
  173SAPI  C31619674   3.546   4.665   8.424  0.0804 -0.1472 -0.2246
  173SAPI  H16X19675   3.543   4.773   8.448 -1.5488 -0.7335  2.7334
  173SAPI  H16Y19676   3.440   4.634   8.430 -0.0114  0.1129 -0.5148
  173SAPI  C31719677   3.605   4.632   8.281  0.6232 -0.2519 -0.5960
  173SAPI  H17X19678   3.560   4.539   8.243 -1.7582  1.3804 -2.0451
  173SAPI  H17Y19679   3.715   4.632   8.298  0.2893 -1.0354  1.9131
  173SAPI  C31819680   3.579   4.748   8.179  0.0257 -0.1336 -0.0078
  173SAPI  H18X19681   3.612   4.722   8.076 -0.8787  0.8697 -0.5668
  173SAPI  H18Y19682   3.635   4.838   8.210 -0.2824  0.1508 -0.2724
  173SAPI  H18Z19683   3.471   4.775   8.172 -0.6463 -2.3503  0.8418
  174SAPI   C1219684   6.263   0.227  11.277 -0.4867  0.0252  0.0191
  174SAPI    H219685   6.305   0.307  11.343  1.0002 -1.1752  0.5948
  174SAPI    O219686   6.334   0.107  11.319  0.2498 -0.1427 -0.4017
  174SAPI   HO219687   6.298   0.072  11.401 -1.1853  0.1544 -0.8689
  174SAPI   C1319688   6.120   0.206  11.301  0.1297 -0.7720  0.7105
  174SAPI    H319689   6.062   0.293  11.264  2.3366  1.2405  1.6932
  174SAPI    O319690   6.081   0.188  11.436 -0.1146 -0.4263  0.2936
  174SAPI   HO319691   6.104   0.265  11.488 -0.8895 -1.2285  1.8942
  174SAPI   C1419692   6.067   0.094  11.206 -0.2621 -0.1671 -0.3358
  174SAPI    H419693   6.115  -0.003  11.233 -2.8598 -1.1728  1.0062
  174SAPI    O419694   5.923   0.068  11.219  0.2292 -0.3447  0.3956
  174SAPI   HO419695   5.883   0.137  11.166  0.4735 -0.1341  0.4846
  174SAPI   C1519696   6.099   0.121  11.058 -0.1268 -0.2808  0.0209
  174SAPI    H519697   6.057   0.218  11.023 -2.0732 -1.3725 -0.8125
  174SAPI    O519698   6.036   0.033  10.968 -0.7837  0.1089 -0.5905
  174SAPI   HO519699   6.014   0.087  10.892  0.3887 -0.5421 -1.4096
  174SAPI   C1619700   6.253   0.138  11.039 -0.5991 -0.2349 -0.6694
  174SAPI    H619701   6.309   0.046  11.067  0.8260  0.6443 -0.5450
  174SAPI    O619702   6.290   0.164  10.898 -0.1625 -0.2330  0.1654
  174SAPI   HO619703   6.327   0.252  10.888 -0.1439  0.0502  2.1643
  174SAPI   C1119704   6.295   0.253  11.131 -0.1116  0.1728  0.1138
  174SAPI    H119705   6.225   0.334  11.101 -1.7360 -1.5659 -1.0361
  174SAPI     P19706   6.473   0.436  11.037  0.2338 -0.1794 -0.1826
  174SAPI   O1319707   6.618   0.442  11.015  0.1910  0.4969 -0.9826
  174SAPI   O1419708   6.426   0.551  11.122  0.2832  0.0620 -0.0297
  174SAPI   O1219709   6.434   0.288  11.105  0.0050  0.7278  0.6525
  174SAPI   O1119710   6.393   0.424  10.899  0.1008  0.2004 -0.0938
  174SAPI    C119711   6.426   0.525  10.797 -0.6270 -0.3122 -0.1446
  174SAPI    HA19712   6.402   0.626  10.838 -1.1978 -0.1264 -0.9081
  174SAPI    HB19713   6.532   0.523  10.764 -1.5729  0.0075 -3.5658
  174SAPI    C219714   6.346   0.506  10.674 -0.6221  0.1118 -0.3653
  174SAPI    HS19715   6.240   0.537  10.689 -0.6459 -0.1510  0.0026
  174SAPI   O2119716   6.359   0.362  10.653 -0.6838 -0.8114 -0.4859
  174SAPI   C2119717   6.267   0.307  10.583  0.1176 -0.5351  0.4118
  174SAPI   O2219718   6.156   0.354  10.561  0.1199  0.6941 -0.1019
  174SAPI   C2219719   6.315   0.165  10.552  0.1043 -0.5095  0.2911
  174SAPI   H2R19720   6.393   0.173  10.473  0.6153 -1.6582  0.6641
  174SAPI   H2S19721   6.363   0.129  10.645 -1.1960  1.8855  1.9979
  174SAPI    C319722   6.392   0.603  10.557 -0.0561 -0.7978  0.5870
  174SAPI    HX19723   6.356   0.704  10.589 -0.2097 -0.4022 -0.7633
  174SAPI    HY19724   6.337   0.572  10.466  0.3368  2.9831 -1.1026
  174SAPI   O3119725   6.535   0.614  10.533 -0.1651  0.6294 -0.5789
  174SAPI   C3119726   6.574   0.521  10.447 -0.3250 -0.6603 -1.1732
  174SAPI   O3219727   6.501   0.436  10.394  0.3919 -0.6972  0.0557
  174SAPI   C3219728   6.725   0.526  10.420 -0.0662  0.2791  0.1858
  174SAPI   H2X19729   6.790   0.509  10.508  0.2025 -3.8170 -0.6355
  174SAPI   H2Y19730   6.748   0.629  10.383  1.9890 -0.3388 -0.3674
  174SAPI   C2319731   6.203   0.068  10.510 -0.2751  0.6677 -0.0387
  174SAPI   H3R19732   6.117   0.113  10.457 -1.5329 -0.7551  0.7257
  174SAPI   H3S19733   6.165   0.026  10.606  1.8542  1.0695  1.0435
  174SAPI   C2419734   6.242  -0.050  10.422 -0.8003  0.6357  0.0925
  174SAPI   H4R19735   6.270  -0.012  10.322 -0.2100  0.0594  0.0332
  174SAPI   H4S19736   6.150  -0.105  10.393  0.8664 -1.6357 -1.1316
  174SAPI   C2519737   6.356  -0.132  10.487  0.5983 -0.3957 -0.0657
  174SAPI   H5R19738   6.337  -0.158  10.592  1.5954  1.9742  0.7688
  174SAPI   C2619739   6.479  -0.145  10.442  0.2009 -0.0238  0.0965
  174SAPI   H6R19740   6.544  -0.214  10.498 -2.5875 -2.3507  0.7266
  174SAPI   C2719741   6.540  -0.098  10.310 -0.0267  0.0863  0.0544
  174SAPI   H7R19742   6.470  -0.125  10.228 -0.8353 -0.1545  0.8164
  174SAPI   H7S19743   6.634  -0.147  10.277 -1.2818 -0.3664 -3.2819
  174SAPI   C2819744   6.552   0.055  10.297  0.6491  0.4365 -0.6132
  174SAPI   H8R19745   6.568   0.111  10.390 -0.4141  0.3242 -0.3504
  174SAPI   C2919746   6.550   0.130  10.185  0.8629  0.1219 -0.1332
  174SAPI   H9R19747   6.563   0.237  10.205 -2.7372  0.8137 -0.8030
  174SAPI  C21019748   6.534   0.073  10.046  0.0969 -0.4978 -0.3697
  174SAPI  H10R19749   6.600  -0.016  10.045 -1.0879 -1.4814  1.5237
  174SAPI  H10S19750   6.573   0.140   9.966  0.2777 -2.1739 -1.7385
  174SAPI  C21119751   6.402   0.031  10.000  0.4245  0.2156  0.0283
  174SAPI  H11R19752   6.344  -0.011  10.082  1.1672 -0.5625  0.1702
  174SAPI  C21219753   6.359   0.030   9.875  0.0329  0.1165  0.9125
  174SAPI  H12R19754   6.265  -0.025   9.860  1.4844 -1.9373 -1.2963
  174SAPI  C21319755   6.430   0.072   9.747  0.5209  0.1418  0.5021
  174SAPI  H13R19756   6.429   0.002   9.661  1.7500 -0.1218  0.6746
  174SAPI  H13S19757   6.541   0.083   9.755  0.7294  1.4871 -2.8381
  174SAPI  C21419758   6.368   0.208   9.712 -0.1306  1.2141  0.2124
  174SAPI  H14R19759   6.397   0.293   9.775  0.2093  0.6287  0.8547
  174SAPI  C21519760   6.288   0.229   9.612  0.1452 -0.1039 -0.5071
  174SAPI  H15R19761   6.238   0.327   9.605  0.0435 -0.0585  0.7407
  174SAPI  C21619762   6.234   0.134   9.509 -0.4725 -0.0644  0.0311
  174SAPI  H16R19763   6.308   0.053   9.490 -1.0571 -0.4827 -0.5065
  174SAPI  H16S19764   6.240   0.189   9.412 -1.8615  0.3187  0.1436
  174SAPI  C21719765   6.092   0.078   9.542  0.1603 -0.4460  0.1054
  174SAPI  H17R19766   6.022   0.163   9.528 -0.0441 -0.6530 -0.1276
  174SAPI  H17S19767   6.097   0.050   9.650  0.4086  1.5839  0.6690
  174SAPI  C21819768   6.043  -0.040   9.463 -0.6486  0.8684  0.3117
  174SAPI  H18R19769   5.933  -0.030   9.479 -0.4784  2.0524  0.8169
  174SAPI  H18S19770   6.079  -0.140   9.498 -1.7204 -0.5526 -2.3655
  174SAPI  C21919771   6.054  -0.031   9.311 -0.9700 -0.0880  0.0418
  174SAPI  H19R19772   6.155  -0.063   9.278  0.1181  0.8020  2.3033
  174SAPI  H19S19773   6.049   0.076   9.282  2.1100  0.4924  1.3059
  174SAPI  C22019774   5.948  -0.114   9.242  0.4908 -0.5087  0.1158
  174SAPI  H20R19775   5.856  -0.057   9.268  1.5731  2.1076 -1.3962
  174SAPI  H20S19776   5.935  -0.217   9.282  1.4091 -1.2787 -1.4644
  174SAPI  H20T19777   5.964  -0.116   9.132 -1.9111 -0.0447 -0.2961
  174SAPI   C3319778   6.765   0.440  10.295 -0.3783  0.0351  0.2701
  174SAPI   H3X19779   6.728   0.337  10.311 -1.4496  0.3320 -0.1981
  174SAPI   H3Y19780   6.875   0.421  10.297 -0.5127 -0.6943  0.6782
  174SAPI   C3419781   6.717   0.495  10.165  0.0158  0.1185  0.1381
  174SAPI   H4X19782   6.755   0.599  10.162 -1.6642  0.7466 -0.3131
  174SAPI   H4Y19783   6.607   0.497  10.156  0.0591  0.5005 -0.3171
  174SAPI   C3519784   6.773   0.432  10.034 -0.1905 -0.6583 -0.0607
  174SAPI   H5X19785   6.791   0.324  10.048 -2.4811 -1.1920 -0.7355
  174SAPI   H5Y19786   6.867   0.480   9.999 -2.0279  1.4576 -2.5425
  174SAPI   C3619787   6.674   0.447   9.916  0.2341 -0.4219 -0.4880
  174SAPI   H6X19788   6.656   0.557   9.912  0.9780 -0.3056 -0.7878
  174SAPI   H6Y19789   6.584   0.390   9.949  0.3802 -0.3370  0.0822
  174SAPI   C3719790   6.730   0.398   9.784 -0.5509 -0.2385  0.4447
  174SAPI   H7X19791   6.736   0.288   9.794  2.7405 -0.1798  0.2180
  174SAPI   H7Y19792   6.837   0.426   9.774 -0.5479 -0.3796  0.0870
  174SAPI   C3819793   6.649   0.438   9.658 -0.5887 -0.0065 -0.4227
  174SAPI   H8X19794   6.653   0.548   9.646 -2.0091 -0.0111 -1.1507
  174SAPI   H8Y19795   6.549   0.414   9.699  0.5929 -1.0676  2.0638
  174SAPI   C3919796   6.696   0.360   9.534  0.3017 -0.2383  0.3853
  174SAPI   H9X19797   6.700   0.251   9.552 -1.3893 -0.5901 -1.0953
  174SAPI   H9Y19798   6.793   0.400   9.499  0.6606  0.1324  1.7331
  174SAPI  C31019799   6.604   0.381   9.411 -0.5070  0.2750 -0.5044
  174SAPI  H10X19800   6.619   0.482   9.367 -2.2863  0.2518 -1.2676
  174SAPI  H10Y19801   6.502   0.365   9.453  0.0488  0.1954  0.8734
  174SAPI  C31119802   6.637   0.285   9.301  0.4685  0.3629  0.4453
  174SAPI  H11X19803   6.633   0.188   9.356  1.2706  0.7858  1.2831
  174SAPI  H11Y19804   6.737   0.307   9.256 -0.3380  2.7716 -0.3038
  174SAPI  C31219805   6.533   0.285   9.187  0.2480  0.6682  0.2017
  174SAPI  H12X19806   6.428   0.277   9.225  0.7097 -1.4659  1.1906
  174SAPI  H12Y19807   6.531   0.192   9.127  0.9372  0.5875  0.2995
  174SAPI  C31319808   6.546   0.406   9.092  1.4986  1.0993 -0.3347
  174SAPI  H13X19809   6.645   0.410   9.042  2.7859 -5.4263  0.7512
  174SAPI  H13Y19810   6.512   0.495   9.149  0.5018 -0.7613  2.1452
  174SAPI  C31419811   6.445   0.390   8.972 -0.1498  0.3016  0.3980
  174SAPI  H14X19812   6.341   0.386   9.011 -0.8373  2.1689 -1.0792
  174SAPI  H14Y19813   6.468   0.295   8.920  3.1842  0.6948  0.9714
  174SAPI  C31519814   6.460   0.502   8.873 -0.4214 -0.1042 -0.4690
  174SAPI  H15X19815   6.443   0.467   8.769 -0.5999 -0.1222 -0.4346
  174SAPI  H15Y19816   6.560   0.546   8.891 -0.7512  0.8699 -0.9445
  174SAPI  C31619817   6.357   0.611   8.909 -0.3269  0.4379  0.2924
  174SAPI  H16X19818   6.404   0.647   9.003  3.3427  1.1502 -1.6157
  174SAPI  H16Y19819   6.257   0.568   8.933 -0.0261  0.3425  1.4192
  174SAPI  C31719820   6.353   0.725   8.808  0.3311  0.3883  0.1290
  174SAPI  H17X19821   6.319   0.816   8.862 -0.7112 -1.0626  2.0495
  174SAPI  H17Y19822   6.280   0.688   8.733  0.7881 -0.1216 -0.0671
  174SAPI  C31819823   6.481   0.755   8.735 -0.1392 -0.2581 -0.3951
  174SAPI  H18X19824   6.558   0.788   8.808 -2.3195 -1.4617  2.6581
  174SAPI  H18Y19825   6.455   0.836   8.664  1.1689 -0.8633 -1.6203
  174SAPI  H18Z19826   6.511   0.665   8.678 -0.5421 -1.4080  1.1360
  175SAPI   C1219827   4.864   0.013   6.529 -0.7205 -0.4059  0.0089
  175SAPI    H219828   4.772  -0.002   6.591 -0.8874  0.4238 -0.0360
  175SAPI    O219829   4.948   0.109   6.595 -0.1214 -0.2966  0.0714
  175SAPI   HO219830   4.890   0.183   6.617  0.4527  0.1948 -0.0398
  175SAPI   C1319831   4.926  -0.130   6.530  0.4325  0.1833  0.6154
  175SAPI    H319832   4.858  -0.197   6.473  1.3998 -0.9409  0.7513
  175SAPI    O319833   4.934  -0.174   6.670  0.0734 -0.3366  0.5465
  175SAPI   HO319834   4.982  -0.108   6.720  0.7769 -1.3612  1.2423
  175SAPI   C1419835   5.060  -0.133   6.460 -0.3294 -0.2217  0.5304
  175SAPI    H419836   5.130  -0.074   6.522 -0.4276 -0.4528  0.8640
  175SAPI    O419837   5.098  -0.270   6.449  0.1880 -0.1280 -0.5068
  175SAPI   HO419838   5.088  -0.310   6.536 -0.8526 -3.2759 -1.9329
  175SAPI   C1519839   5.053  -0.083   6.310  0.2133 -0.5262  0.2670
  175SAPI    H519840   4.990  -0.157   6.256  0.1732 -0.4227  0.1722
  175SAPI    O519841   5.181  -0.073   6.247 -0.1812  0.5772 -0.1618
  175SAPI   HO519842   5.244  -0.031   6.305  1.2155 -1.7064  0.0737
  175SAPI   C1619843   4.973   0.056   6.307 -0.1997  0.4075  0.3108
  175SAPI    H619844   5.048   0.127   6.348 -0.6726  0.7114  0.6596
  175SAPI    O619845   4.945   0.092   6.177 -0.2485  0.0559 -0.3395
  175SAPI   HO619846   4.850   0.083   6.161 -0.0591 -1.0583 -0.9013
  175SAPI   C1119847   4.843   0.051   6.384 -0.5113 -0.2347 -0.1078
  175SAPI    H119848   4.781  -0.032   6.344 -0.1236  0.4989 -2.3512
  175SAPI     P19849   4.628   0.185   6.312 -0.4112 -0.1349 -0.3423
  175SAPI   O1319850   4.629   0.095   6.192 -0.5651 -0.7083 -0.4629
  175SAPI   O1419851   4.586   0.323   6.291  0.1389 -0.0016 -0.6481
  175SAPI   O1219852   4.781   0.182   6.382  0.6727  0.1426 -0.0565
  175SAPI   O1119853   4.534   0.124   6.423 -0.1232  0.4217 -0.3532
  175SAPI    C119854   4.529   0.195   6.552 -0.0922  0.6354 -0.0709
  175SAPI    HA19855   4.625   0.235   6.591  0.1539  1.0840 -1.1027
  175SAPI    HB19856   4.468   0.286   6.536 -0.8149 -0.0922 -1.7205
  175SAPI    C219857   4.440   0.135   6.666  0.5762  0.0925  0.2113
  175SAPI    HS19858   4.435   0.218   6.740 -0.0878  0.4807 -0.2541
  175SAPI   O2119859   4.507   0.020   6.724 -0.1911  0.3931  0.0505
  175SAPI   C2119860   4.611   0.044   6.792 -0.9499  0.0173  0.6521
  175SAPI   O2219861   4.673   0.151   6.798  0.7112 -0.4587  0.4744
  175SAPI   C2219862   4.657  -0.091   6.866  0.2033  0.0234 -0.6008
  175SAPI   H2R19863   4.597  -0.171   6.818 -0.5791 -0.0166  0.4148
  175SAPI   H2S19864   4.765  -0.103   6.843 -0.2966 -1.6762 -2.3701
  175SAPI    C319865   4.302   0.094   6.607  0.4183 -0.4163 -0.4451
  175SAPI    HX19866   4.313   0.002   6.546  3.3791  1.2025 -2.6111
  175SAPI    HY19867   4.281   0.178   6.537 -0.9578  0.6107  1.1461
  175SAPI   O3119868   4.208   0.074   6.712  0.0957 -0.3517  0.0789
  175SAPI   C3119869   4.084   0.074   6.671  0.2220 -0.5527  0.2996
  175SAPI   O3219870   4.045   0.047   6.559  0.3504 -0.2629 -0.0732
  175SAPI   C3219871   3.986   0.113   6.781  0.1989  0.3505  0.0375
  175SAPI   H2X19872   3.902   0.169   6.736 -1.1112  1.5234  3.5760
  175SAPI   H2Y19873   4.031   0.183   6.855  0.2205  0.7213 -0.3253
  175SAPI   C2319874   4.620  -0.078   7.011  0.3559  0.1307  0.2054
  175SAPI   H3R19875   4.510  -0.080   7.025 -0.0675 -5.3635 -1.5853
  175SAPI   H3S19876   4.656   0.019   7.051  0.0957  0.3314 -0.0421
  175SAPI   C2419877   4.669  -0.197   7.093 -0.1654 -0.4859  0.6365
  175SAPI   H4R19878   4.780  -0.202   7.085 -0.2921 -1.8029 -0.9022
  175SAPI   H4S19879   4.637  -0.290   7.040  0.9744 -0.6736  0.2328
  175SAPI   C2519880   4.629  -0.192   7.233  0.0190 -0.4700 -0.4845
  175SAPI   H5R19881   4.519  -0.185   7.244  0.0368 -1.5167  0.6125
  175SAPI   C2619882   4.705  -0.170   7.341  0.2126 -0.2603  0.4046
  175SAPI   H6R19883   4.650  -0.169   7.436  0.3150  1.5260  0.4793
  175SAPI   C2719884   4.853  -0.150   7.339 -0.4577  0.5440  0.6189
  175SAPI   H7R19885   4.902  -0.105   7.250  0.1902 -1.2494  0.0256
  175SAPI   H7S19886   4.893  -0.253   7.338  0.1234  0.6187 -4.0959
  175SAPI   C2819887   4.906  -0.074   7.457  1.1606 -0.2562 -0.3617
  175SAPI   H8R19888   4.951  -0.136   7.536  0.0601 -0.0308  0.4692
  175SAPI   C2919889   4.884   0.059   7.484  0.1055  0.3874  0.2365
  175SAPI   H9R19890   4.942   0.098   7.569  2.7530  0.5767 -1.5420
  175SAPI  C21019891   4.817   0.163   7.398 -0.1139  0.1286 -0.2247
  175SAPI  H10R19892   4.722   0.190   7.448  1.0983  2.9448  0.7768
  175SAPI  H10S19893   4.783   0.132   7.296 -0.5211 -1.4292  0.3576
  175SAPI  C21119894   4.876   0.302   7.381  0.0436 -0.0935 -0.1101
  175SAPI  H11R19895   4.976   0.322   7.422  0.8370  0.9814 -2.3618
  175SAPI  C21219896   4.834   0.404   7.311  0.5648 -0.2186 -0.5360
  175SAPI  H12R19897   4.901   0.491   7.304  1.0371 -0.4781  0.4776
  175SAPI  C21319898   4.710   0.414   7.229  0.0919  0.3886 -0.6959
  175SAPI  H13R19899   4.657   0.511   7.241 -1.5218 -0.2490 -2.2547
  175SAPI  H13S19900   4.645   0.330   7.261 -0.0057  1.0023  0.8188
  175SAPI  C21419901   4.738   0.384   7.079 -0.3547 -0.7361  0.1511
  175SAPI  H14R19902   4.742   0.280   7.045  2.8233 -0.7553  0.2457
  175SAPI  C21519903   4.781   0.484   6.990  0.8323  0.2009 -0.1929
  175SAPI  H15R19904   4.780   0.467   6.882  0.7491  0.9820 -0.3217
  175SAPI  C21619905   4.803   0.627   7.028  0.4014 -0.0420 -0.7726
  175SAPI  H16R19906   4.811   0.652   7.136 -3.8049 -0.3173 -0.2339
  175SAPI  H16S19907   4.715   0.684   6.990 -0.0405  1.0945  1.7171
  175SAPI  C21719908   4.936   0.672   6.958 -0.6308 -0.1318  0.1094
  175SAPI  H17R19909   4.949   0.782   6.962 -1.5499 -0.0507  1.3992
  175SAPI  H17S19910   4.921   0.642   6.852  0.8729 -0.1776 -0.1003
  175SAPI  C21819911   5.065   0.599   7.005 -0.4340 -0.4412  0.1660
  175SAPI  H18R19912   5.056   0.488   7.009  0.3835 -0.5375 -0.2894
  175SAPI  H18S19913   5.096   0.635   7.106  0.2946  1.0286 -0.5393
  175SAPI  C21919914   5.182   0.619   6.902 -0.2552  0.0151  0.0150
  175SAPI  H19R19915   5.200   0.728   6.887  0.0687 -0.1550 -0.9348
  175SAPI  H19S19916   5.148   0.583   6.803 -0.5836  0.6683 -0.1176
  175SAPI  C22019917   5.307   0.540   6.932 -0.5257  0.3495 -0.5125
  175SAPI  H20R19918   5.402   0.581   6.889  0.2795  1.3609  2.0717
  175SAPI  H20S19919   5.303   0.434   6.898 -0.3087 -0.1081  0.8362
  175SAPI  H20T19920   5.324   0.532   7.041 -0.4197  1.5718 -0.4319
  175SAPI   C3319921   3.929  -0.006   6.862  0.2445 -0.5882 -0.9035
  175SAPI   H3X19922   3.898  -0.093   6.801  0.7085 -1.8939  0.6424
  175SAPI   H3Y19923   3.831   0.032   6.898  0.4725  1.2528 -2.0896
  175SAPI   C3419924   4.025  -0.046   6.982 -0.7172 -0.3921 -0.1281
  175SAPI   H4X19925   4.064   0.046   7.031  0.8134 -1.1110  0.0353
  175SAPI   H4Y19926   4.107  -0.114   6.953 -2.3359 -3.4165  1.7614
  175SAPI   C3519927   3.952  -0.128   7.092  0.0299  0.1009 -0.1229
  175SAPI   H5X19928   3.948  -0.232   7.054  1.5322 -0.3772  0.9094
  175SAPI   H5Y19929   3.845  -0.098   7.097 -0.3180 -0.4750 -2.8633
  175SAPI   C3619930   4.026  -0.128   7.227  0.2056  0.4003  0.2292
  175SAPI   H6X19931   4.016  -0.033   7.284  0.2001  0.9414 -0.6549
  175SAPI   H6Y19932   4.133  -0.137   7.198 -0.3669 -1.5771 -1.5458
  175SAPI   C3719933   3.971  -0.228   7.324 -0.1252 -0.4474 -0.0200
  175SAPI   H7X19934   3.982  -0.331   7.283 -1.5038  0.3344 -2.6032
  175SAPI   H7Y19935   3.862  -0.215   7.341 -0.7428 -2.4682 -1.9374
  175SAPI   C3819936   4.053  -0.232   7.450 -0.4776 -0.3129 -0.3943
  175SAPI   H8X19937   4.068  -0.128   7.488 -2.5680  0.3294 -1.1684
  175SAPI   H8Y19938   4.158  -0.265   7.433 -0.3177  0.6049 -1.2874
  175SAPI   C3919939   3.976  -0.301   7.563  0.1587  0.4883 -0.2797
  175SAPI   H9X19940   3.956  -0.404   7.526  0.5506  0.2128  0.2639
  175SAPI   H9Y19941   3.885  -0.242   7.584  0.2503  0.6043 -0.2023
  175SAPI  C31019942   4.062  -0.316   7.690  0.8867 -0.2364 -0.5337
  175SAPI  H10X19943   4.166  -0.352   7.676  0.0969 -2.0040 -2.3881
  175SAPI  H10Y19944   4.016  -0.398   7.750  0.2701  0.2918 -0.2781
  175SAPI  C31119945   4.055  -0.198   7.785  0.3974  0.0889  0.1052
  175SAPI  H11X19946   3.954  -0.157   7.764  0.0089 -0.3269  1.0884
  175SAPI  H11Y19947   4.129  -0.121   7.755  0.5928 -1.1499 -2.9357
  175SAPI  C31219948   4.059  -0.251   7.927 -0.4486  0.1008 -0.1227
  175SAPI  H12X19949   4.127  -0.336   7.948 -1.1754 -0.4297  0.1037
  175SAPI  H12Y19950   3.961  -0.292   7.957  0.0451 -0.3294  0.9673
  175SAPI  C31319951   4.095  -0.135   8.016  0.1811  0.1015 -0.0119
  175SAPI  H13X19952   4.044  -0.042   7.983  1.8421  1.4494  1.0571
  175SAPI  H13Y19953   4.201  -0.110   7.997 -0.0078  0.7048 -0.2963
  175SAPI  C31419954   4.081  -0.173   8.165 -1.2605 -0.0583  0.5526
  175SAPI  H14X19955   4.149  -0.261   8.172 -0.8613  0.0739 -1.1016
  175SAPI  H14Y19956   3.980  -0.209   8.192 -0.2961 -1.6088  2.2927
  175SAPI  C31519957   4.108  -0.049   8.248  0.3616  0.4269 -0.6673
  175SAPI  H15X19958   4.061  -0.057   8.348  1.8029 -0.6020 -0.0354
  175SAPI  H15Y19959   4.061   0.039   8.198 -1.0191 -0.4435 -0.9531
  175SAPI  C31619960   4.256  -0.033   8.273  0.2705 -0.2335  0.2686
  175SAPI  H16X19961   4.314  -0.019   8.180  1.8740 -2.6294  0.8254
  175SAPI  H16Y19962   4.303  -0.120   8.322  0.4589 -0.6914 -0.7152
  175SAPI  C31719963   4.281   0.085   8.363 -0.0777  0.7105  0.3109
  175SAPI  H17X19964   4.245   0.068   8.467 -2.5188  0.3787 -0.5144
  175SAPI  H17Y19965   4.231   0.178   8.328 -0.4790 -0.2772 -1.8295
  175SAPI  C31819966   4.432   0.101   8.374 -0.2852 -0.1564  0.6211
  175SAPI  H18X19967   4.456   0.150   8.470 -3.5231 -0.9750  1.9776
  175SAPI  H18Y19968   4.466   0.160   8.286 -1.9423 -1.3203 -0.8885
  175SAPI  H18Z19969   4.500   0.013   8.383  0.5207  0.4553  0.5965
  176SAPI   C1219970   6.503   0.630   6.495 -0.3797  0.7407 -0.6545
  176SAPI    H219971   6.516   0.669   6.599 -0.3197  1.2056 -0.8331
  176SAPI    O219972   6.621   0.655   6.419 -0.0881  0.0587  0.5820
  176SAPI   HO219973   6.648   0.739   6.457 -0.4043  0.3905  0.0805
  176SAPI   C1319974   6.474   0.481   6.514 -0.5926 -0.1164 -0.0013
  176SAPI    H319975   6.378   0.480   6.570 -0.4369  0.0913  0.2680
  176SAPI    O319976   6.581   0.417   6.590  0.2365  0.4108  0.6006
  176SAPI   HO319977   6.658   0.400   6.535 -1.4517  2.3634 -2.6822
  176SAPI   C1419978   6.458   0.413   6.386  0.1471 -0.1497  0.2658
  176SAPI    H419979   6.554   0.432   6.332  0.6514 -1.5899  0.5989
  176SAPI    O419980   6.443   0.269   6.410 -0.7098 -0.0009  0.0846
  176SAPI   HO419981   6.533   0.242   6.387 -0.4201  1.4198 -0.5615
  176SAPI   C1519982   6.340   0.468   6.303 -0.8050  0.0890 -0.1164
  176SAPI    H519983   6.243   0.448   6.352  0.3340 -2.4692  1.2891
  176SAPI    O519984   6.340   0.402   6.178  0.0899  1.1381 -0.1839
  176SAPI   HO519985   6.275   0.331   6.181  2.0439 -0.7237  1.1445
  176SAPI   C1619986   6.366   0.617   6.282  0.4924  0.1000 -0.4011
  176SAPI    H619987   6.458   0.626   6.221  1.7901 -0.2977  1.4170
  176SAPI    O619988   6.252   0.680   6.213 -0.7393  0.5500  0.3820
  176SAPI   HO619989   6.272   0.773   6.224 -0.2197  0.6855 -1.4554
  176SAPI   C1119990   6.385   0.688   6.425  0.2097 -0.2000  1.3925
  176SAPI    H119991   6.292   0.665   6.482  0.0967  0.1790  1.3686
  176SAPI     P19992   6.315   0.934   6.497 -0.1769 -0.1096  0.0112
  176SAPI   O1319993   6.174   0.885   6.508 -0.1869  0.0000 -0.1832
  176SAPI   O1419994   6.347   1.069   6.449  0.1560  0.1982 -0.3138
  176SAPI   O1219995   6.404   0.824   6.416 -0.2288  0.6215 -0.2011
  176SAPI   O1119996   6.381   0.920   6.635 -0.1438  0.2330  0.6458
  176SAPI    C119997   6.514   0.959   6.650  0.1064  0.5878  0.0928
  176SAPI    HA19998   6.579   0.871   6.627  0.4134  0.9927 -0.6151
  176SAPI    HB19999   6.538   1.052   6.595  1.7230 -1.2305 -2.5609
  176SAPI    C220000   6.547   0.991   6.799  0.3177  0.5063  0.0167
  176SAPI    HS20001   6.656   0.990   6.823 -0.2815 -1.0632  3.2084
  176SAPI   O2120002   6.489   0.893   6.887  0.1175 -0.7880  0.2973
  176SAPI   C2120003   6.535   0.771   6.894 -1.2561  0.5315  0.1357
  176SAPI   O2220004   6.638   0.724   6.842  0.1024 -0.1216  0.3121
  176SAPI   C2220005   6.437   0.691   6.985  0.1639 -0.6210 -0.1401
  176SAPI   H2R20006   6.474   0.672   7.088 -0.9429 -0.8141  0.2297
  176SAPI   H2S20007   6.341   0.747   6.990 -0.7958 -2.2268 -0.0915
  176SAPI    C320008   6.493   1.138   6.836 -0.5842 -0.0090  0.0195
  176SAPI    HX20009   6.389   1.133   6.798 -0.1824 -1.2222 -1.0061
  176SAPI    HY20010   6.546   1.217   6.778  0.4750 -0.1766  0.7345
  176SAPI   O3120011   6.501   1.176   6.973 -0.3431  0.2181 -0.2199
  176SAPI   C3120012   6.420   1.264   7.022  0.2150 -0.0207 -0.9259
  176SAPI   O3220013   6.322   1.314   6.960  0.3008  0.3625  0.3806
  176SAPI   C3220014   6.439   1.278   7.175  0.4135 -0.6710 -0.7556
  176SAPI   H2X20015   6.544   1.309   7.197  0.2114  0.2871 -1.0774
  176SAPI   H2Y20016   6.414   1.180   7.222  1.2571  0.8917  3.4499
  176SAPI   C2320017   6.385   0.570   6.907  0.3753 -0.2330  0.0607
  176SAPI   H3R20018   6.391   0.578   6.797  0.0557 -1.1755 -0.0367
  176SAPI   H3S20019   6.274   0.572   6.918  0.5963  0.1903  3.1239
  176SAPI   C2420020   6.433   0.437   6.968  1.1210  0.7791  0.7559
  176SAPI   H4R20021   6.382   0.357   6.911  1.9591  1.3992 -0.9417
  176SAPI   H4S20022   6.404   0.432   7.075 -1.8700  2.7013  0.1313
  176SAPI   C2520023   6.577   0.413   6.940  0.3021  0.0426 -0.0475
  176SAPI   H5R20024   6.601   0.422   6.833  0.0299 -1.8205 -0.2999
  176SAPI   C2620025   6.670   0.406   7.035 -0.3484  0.5319 -0.2081
  176SAPI   H6R20026   6.778   0.406   7.010  0.3511  0.6874  2.5329
  176SAPI   C2720027   6.649   0.409   7.184  0.6785 -0.2540  0.0024
  176SAPI   H7R20028   6.573   0.486   7.207  0.6968  0.2602 -1.5580
  176SAPI   H7S20029   6.750   0.435   7.223  0.9819 -1.7157  0.2746
  176SAPI   C2820030   6.610   0.277   7.244 -1.1715  0.3721  0.6880
  176SAPI   H8R20031   6.624   0.188   7.180 -2.2567  1.2255 -0.7974
  176SAPI   C2920032   6.547   0.262   7.361 -0.2901  0.1574  0.4964
  176SAPI   H9R20033   6.533   0.156   7.388 -0.4443  0.2814  0.9112
  176SAPI  C21020034   6.505   0.364   7.461  0.4855  0.2373  0.2233
  176SAPI  H10R20035   6.397   0.345   7.483 -0.7335  1.8310 -3.4375
  176SAPI  H10S20036   6.499   0.461   7.407  1.3901 -0.9072 -2.0800
  176SAPI  C21120037   6.592   0.382   7.579  0.0413  0.2709 -0.5760
  176SAPI  H11R20038   6.675   0.452   7.564  0.4380  0.3975  1.8119
  176SAPI  C21220039   6.565   0.340   7.703  1.1206  0.5428  0.6883
  176SAPI  H12R20040   6.637   0.377   7.777  1.2531  1.1936  0.2396
  176SAPI  C21320041   6.449   0.259   7.766 -0.1376 -0.2317  0.1399
  176SAPI  H13R20042   6.359   0.308   7.722 -0.6405 -0.2837  1.0791
  176SAPI  H13S20043   6.435   0.288   7.873  0.5020  1.1852 -0.1402
  176SAPI  C21420044   6.439   0.113   7.736  0.4623  0.2274 -0.0548
  176SAPI  H14R20045   6.476   0.079   7.639  2.2977 -0.2902  0.7772
  176SAPI  C21520046   6.387   0.012   7.810 -0.3584 -0.0429  0.4079
  176SAPI  H15R20047   6.391  -0.092   7.773 -2.7127 -0.4304  1.0150
  176SAPI  C21620048   6.325   0.024   7.944  0.7963  0.0340  0.2845
  176SAPI  H16R20049   6.217   0.024   7.917  1.0655 -0.9217 -0.8767
  176SAPI  H16S20050   6.350   0.115   8.002 -0.0428 -0.5358  1.5913
  176SAPI  C21720051   6.356  -0.091   8.044  0.4204 -0.3993  0.2109
  176SAPI  H17R20052   6.460  -0.088   8.083  1.8102 -1.2378 -3.0868
  176SAPI  H17S20053   6.348  -0.185   7.984  0.7641 -0.2393 -0.0909
  176SAPI  C21820054   6.260  -0.088   8.160 -0.6313  0.8541 -0.0674
  176SAPI  H18R20055   6.159  -0.108   8.117  0.1492  2.4066 -2.9203
  176SAPI  H18S20056   6.254   0.015   8.202 -0.5244  0.4409  0.9885
  176SAPI  C21920057   6.288  -0.188   8.272  0.3015  0.2251  0.2946
  176SAPI  H19R20058   6.338  -0.273   8.222  2.3188  0.3251  1.9927
  176SAPI  H19S20059   6.195  -0.226   8.319  0.6451  0.6273  1.3383
  176SAPI  C22020060   6.376  -0.122   8.385 -0.4742 -0.1934 -0.5523
  176SAPI  H20R20061   6.316  -0.047   8.441  1.3698 -0.3719  1.8304
  176SAPI  H20S20062   6.474  -0.080   8.352 -0.0854 -1.4182 -1.0064
  176SAPI  H20T20063   6.405  -0.193   8.465  2.4684  0.3710 -0.9897
  176SAPI   C3320064   6.355   1.392   7.240  0.2392 -0.0875 -0.4024
  176SAPI   H3X20065   6.246   1.374   7.235  0.1805  0.1407 -0.0037
  176SAPI   H3Y20066   6.364   1.484   7.178 -2.2240  0.9073  0.6054
  176SAPI   C3420067   6.399   1.417   7.381  0.3114 -0.8410  0.1202
  176SAPI   H4X20068   6.507   1.444   7.379  0.0636  0.3061  1.2630
  176SAPI   H4Y20069   6.396   1.330   7.450  1.1036  0.8098  2.3368
  176SAPI   C3520070   6.315   1.529   7.437 -0.8789 -0.2271  0.2084
  176SAPI   H5X20071   6.210   1.495   7.448 -1.9560  2.0261 -2.1137
  176SAPI   H5Y20072   6.305   1.611   7.363 -1.5373 -0.2282  0.2920
  176SAPI   C3620073   6.367   1.589   7.580 -0.4665 -0.0644 -0.2545
  176SAPI   H6X20074   6.287   1.655   7.621  1.3076  1.2584  1.2738
  176SAPI   H6Y20075   6.448   1.655   7.542  0.5721 -1.2523 -0.1495
  176SAPI   C3720076   6.439   1.496   7.681 -0.0825  0.4656  0.1662
  176SAPI   H7X20077   6.482   1.560   7.761 -1.0999 -0.8955  1.8777
  176SAPI   H7Y20078   6.518   1.437   7.631 -0.0699  1.4943 -1.1144
  176SAPI   C3820079   6.342   1.408   7.761 -0.0779 -0.2467  0.2003
  176SAPI   H8X20080   6.390   1.323   7.815 -0.2416  0.0760  0.8667
  176SAPI   H8Y20081   6.261   1.371   7.695 -1.1270  0.4365  1.0632
  176SAPI   C3920082   6.278   1.485   7.879 -0.4462 -0.2749  0.1555
  176SAPI   H9X20083   6.240   1.581   7.839 -2.9274 -1.9187 -1.7557
  176SAPI   H9Y20084   6.356   1.510   7.954 -0.9564  1.1531  0.2434
  176SAPI  C31020085   6.166   1.414   7.954 -1.0892  0.1385  0.1560
  176SAPI  H10X20086   6.085   1.393   7.881 -0.8456  2.3452 -0.8126
  176SAPI  H10Y20087   6.132   1.491   8.026  2.3936  1.5456  0.4920
  176SAPI  C31120088   6.209   1.291   8.043 -0.3145 -0.3713 -0.0627
  176SAPI  H11X20089   6.303   1.312   8.097 -1.6355  2.3758  1.4084
  176SAPI  H11Y20090   6.227   1.203   7.979 -2.5550 -0.4659 -0.6480
  176SAPI  C31220091   6.103   1.250   8.143  0.8097  0.5847  0.4916
  176SAPI  H12X20092   6.137   1.153   8.187  0.4963  0.0126 -0.4789
  176SAPI  H12Y20093   6.006   1.229   8.092  1.1970 -0.9130  0.3204
  176SAPI  C31320094   6.074   1.346   8.259 -0.1660  0.2548  0.9843
  176SAPI  H13X20095   6.103   1.449   8.228 -1.0032  1.0871  2.8151
  176SAPI  H13Y20096   6.146   1.317   8.338  1.0859 -0.7232 -0.4568
  176SAPI  C31420097   5.929   1.346   8.316 -0.7757  0.2332  0.0119
  176SAPI  H14X20098   5.892   1.245   8.341  0.9708 -0.1062  1.3632
  176SAPI  H14Y20099   5.862   1.381   8.234 -0.0117  1.4302 -0.1373
  176SAPI  C31520100   5.912   1.438   8.431 -0.3456 -0.7866  0.5136
  176SAPI  H15X20101   5.931   1.541   8.394 -0.6171 -1.4136 -1.4577
  176SAPI  H15Y20102   5.981   1.415   8.515  0.4966 -1.1508 -0.2677
  176SAPI  C31620103   5.768   1.427   8.495 -0.0694 -0.1338 -0.9959
  176SAPI  H16X20104   5.752   1.320   8.519 -0.2557  0.3489  1.3704
  176SAPI  H16Y20105   5.687   1.472   8.434 -2.2618 -0.5733  1.4118
  176SAPI  C31720106   5.750   1.500   8.627  0.7203 -0.4667 -0.1501
  176SAPI  H17X20107   5.645   1.481   8.657  0.5610 -0.1917 -0.5242
  176SAPI  H17Y20108   5.761   1.611   8.633 -0.1158 -0.4558  2.5933
  176SAPI  C31820109   5.840   1.435   8.741 -0.3210 -0.4270 -0.1033
  176SAPI  H18X20110   5.818   1.326   8.732  1.1525 -0.6903 -0.7842
  176SAPI  H18Y20111   5.817   1.476   8.842 -1.4190 -0.0922 -0.4756
  176SAPI  H18Z20112   5.949   1.440   8.723  0.0360  0.6338  2.0643
  177SLPC     N20113   0.487   5.693  11.015  0.2065  0.7240  0.8316
  177SLPC   C1320114   0.472   5.817  11.102  0.0346  0.8378  0.1312
  177SLPC  H13A20115   0.512   5.905  11.054 -0.7372  0.8585 -0.4948
  177SLPC  H13B20116   0.367   5.836  11.121 -0.5220 -1.9789  0.3525
  177SLPC  H13C20117   0.501   5.796  11.204 -0.2826 -0.2058  0.0169
  177SLPC   C1420118   0.397   5.695  10.901  0.2537  0.2500 -0.1023
  177SLPC  H14A20119   0.410   5.790  10.850 -1.1685  1.0479  0.9140
  177SLPC  H14B20120   0.422   5.614  10.835 -0.6222 -0.5545  0.5266
  177SLPC  H14C20121   0.291   5.691  10.925  0.2568  1.2517  0.1394
  177SLPC   C1520122   0.455   5.582  11.105 -0.2184  0.9884 -0.7170
  177SLPC  H15A20123   0.522   5.577  11.190 -0.1126 -0.7903 -0.8736
  177SLPC  H15B20124   0.355   5.594  11.145 -0.2565  1.1602 -0.8603
  177SLPC  H15C20125   0.439   5.491  11.050 -3.8592  1.6419 -0.9805
  177SLPC   C1220126   0.632   5.680  10.972  0.2292  0.6627 -0.0850
  177SLPC  H12A20127   0.647   5.589  10.917  1.7346  1.3731 -0.9169
  177SLPC  H12B20128   0.699   5.685  11.057  2.7267 -1.0381 -1.8201
  177SLPC   C1120129   0.681   5.786  10.872  0.2109 -0.3033  0.3735
  177SLPC  H11A20130   0.599   5.796  10.798  0.4613 -1.4993 -0.0918
  177SLPC  H11B20131   0.767   5.739  10.820 -0.2784 -1.0528  0.2301
  177SLPC     P20132   0.700   6.041  10.900 -0.0912 -0.2502 -0.0528
  177SLPC   O1320133   0.553   6.051  10.897  0.0130 -0.0291 -0.2235
  177SLPC   O1420134   0.778   6.138  10.980 -0.3579 -0.5327 -0.1510
  177SLPC   O1220135   0.728   5.903  10.951 -0.3281  0.2238 -0.0839
  177SLPC   O1120136   0.754   6.045  10.751  0.2762  0.0501 -0.1584
  177SLPC    C120137   0.892   6.038  10.731  0.3938 -0.4792  0.0757
  177SLPC    HA20138   0.952   6.125  10.763  0.3078  0.3180 -1.7949
  177SLPC    HB20139   0.938   5.960  10.795  1.7497 -0.3050 -0.6381
  177SLPC    C220140   0.931   6.016  10.577  0.4907 -0.0521  0.3871
  177SLPC    HS20141   1.031   6.061  10.560 -0.0339  1.6035  1.4982
  177SLPC   O2120142   0.834   6.072  10.483 -0.6086 -0.3037  0.2461
  177SLPC   C2120143   0.803   6.197  10.507 -0.2622  0.1846  0.0794
  177SLPC   O2220144   0.878   6.285  10.543 -0.2349 -0.0772 -1.3039
  177SLPC   C2220145   0.666   6.225  10.456  0.2038  0.4546  0.2708
  177SLPC   H2R20146   0.682   6.263  10.353  1.9889  0.8947  0.6722
  177SLPC   H2S20147   0.619   6.124  10.459  0.5371  0.3136  2.8510
  177SLPC    C320148   0.954   5.865  10.538  0.3287 -0.3272  0.2024
  177SLPC    HX20149   0.853   5.819  10.527 -0.6366  1.2990  1.7722
  177SLPC    HY20150   1.012   5.815  10.619  0.6322  0.9021  0.7698
  177SLPC   O3120151   1.031   5.864  10.418 -0.1059 -0.6339  0.8613
  177SLPC   C3120152   0.956   5.861  10.301 -0.1444  0.5570  0.2347
  177SLPC   O3220153   0.838   5.846  10.295  0.2788 -0.1644  0.6279
  177SLPC   C3220154   1.048   5.865  10.176 -0.8389  0.2921  0.0905
  177SLPC   H2X20155   1.126   5.786  10.181 -0.4941  0.5981 -0.3381
  177SLPC   H2Y20156   1.111   5.957  10.173  0.8558 -0.7458  1.5400
  177SLPC   C2320157   0.586   6.320  10.550 -0.1643 -0.5215  0.2913
  177SLPC   H3R20158   0.650   6.400  10.592  2.9968 -2.9842  0.5583
  177SLPC   H3S20159   0.564   6.257  10.639  1.9930 -0.5031  0.9048
  177SLPC   C2420160   0.459   6.378  10.478 -0.7226 -0.8113 -0.0839
  177SLPC   H4R20161   0.397   6.422  10.559  0.4981  3.2796 -1.1548
  177SLPC   H4S20162   0.407   6.312  10.406  1.9879 -1.8631 -1.1968
  177SLPC   C2520163   0.501   6.493  10.381  0.1901 -0.7739  0.3040
  177SLPC   H5R20164   0.598   6.462  10.338  0.9290 -1.4306  2.3037
  177SLPC   H5S20165   0.514   6.592  10.431  0.6688 -0.7486  0.1239
  177SLPC   C2620166   0.390   6.517  10.272 -0.6634  0.1824  0.0037
  177SLPC   H6R20167   0.408   6.616  10.225 -0.3293  0.9759  1.7473
  177SLPC   H6S20168   0.293   6.521  10.325  0.3800  0.8206  1.9466
  177SLPC   C2720169   0.393   6.412  10.165  0.1629  0.6839  0.4121
  177SLPC   H7R20170   0.292   6.400  10.118  0.7241  0.9047 -0.9065
  177SLPC   H7S20171   0.418   6.316  10.214  1.0228  1.3659  1.3444
  177SLPC   C2820172   0.495   6.440  10.055 -0.2510 -0.3403  0.0306
  177SLPC   H8R20173   0.600   6.446  10.092  1.0687  0.3859 -3.4628
  177SLPC   H8S20174   0.458   6.532  10.005  3.6881  0.9628 -0.8328
  177SLPC   C2920175   0.481   6.323   9.962  0.1437  0.6827 -0.6165
  177SLPC   H9R20176   0.500   6.225  10.009 -0.5867  1.5114  1.5338
  177SLPC  C21020177   0.443   6.323   9.831  0.5307 -0.1646 -0.6665
  177SLPC  H10R20178   0.440   6.227   9.777  0.4273 -0.4926 -0.0799
  177SLPC  C21120179   0.415   6.444   9.744 -0.4958 -0.3271 -0.2787
  177SLPC  H11R20180   0.405   6.532   9.812 -1.2955 -1.4276  1.0826
  177SLPC  H11S20181   0.502   6.466   9.680  0.4489 -0.9842  0.7380
  177SLPC  C21220182   0.278   6.427   9.681  0.3438  0.3508  0.1637
  177SLPC  H12R20183   0.191   6.405   9.744 -0.7496 -2.5678 -2.1590
  177SLPC  C21320184   0.249   6.422   9.550  0.1881 -0.2858 -0.2303
  177SLPC  H13R20185   0.145   6.424   9.512  0.5958  2.5460 -1.4162
  177SLPC  C21420186   0.345   6.434   9.436  0.1351  0.1017 -0.3174
  177SLPC  H14R20187   0.444   6.477   9.459  0.3495 -0.9518  0.8488
  177SLPC  H14S20188   0.310   6.505   9.358 -0.0837  0.1398 -0.1879
  177SLPC  C21520189   0.367   6.295   9.375  0.0194 -1.4686  0.1856
  177SLPC  H15R20190   0.266   6.269   9.338  0.9469 -0.2825 -3.6781
  177SLPC  H15S20191   0.404   6.222   9.451 -0.8445 -1.1395  0.9341
  177SLPC  C21620192   0.462   6.303   9.259  0.1962 -0.0215  0.0908
  177SLPC  H16R20193   0.548   6.363   9.296  0.1108  0.9289 -1.1663
  177SLPC  H16S20194   0.410   6.362   9.181  1.4279  0.8347 -0.1178
  177SLPC  C21720195   0.519   6.164   9.213  0.1083 -0.3580  0.6306
  177SLPC  H17R20196   0.581   6.130   9.299 -0.2806 -3.8390 -0.3340
  177SLPC  H17S20197   0.583   6.188   9.125 -2.7490 -0.0192 -1.5018
  177SLPC  C21820198   0.417   6.053   9.185 -0.2142  0.6442 -0.3571
  177SLPC  H18R20199   0.382   6.027   9.287 -0.0812  0.3626 -0.3822
  177SLPC  H18S20200   0.458   5.964   9.133  1.9069  0.0531  2.1533
  177SLPC  H18T20201   0.335   6.092   9.121  0.7429 -1.0730 -2.7879
  177SLPC   C3320202   0.959   5.854  10.053  0.1102  0.1733 -0.1902
  177SLPC   H3X20203   0.898   5.946  10.039 -0.8235 -0.0624  1.9942
  177SLPC   H3Y20204   0.898   5.762  10.055  1.2572 -0.6893 -1.7595
  177SLPC   C3420205   1.043   5.833   9.927 -0.5199  0.4773  0.2789
  177SLPC   H4X20206   0.980   5.783   9.850 -1.0050  0.9496  0.3647
  177SLPC   H4Y20207   1.129   5.768   9.956  0.3305  1.6556  0.4559
  177SLPC   C3520208   1.096   5.958   9.870  0.2288 -0.4873 -0.3532
  177SLPC   H5X20209   1.150   6.009   9.953  0.4533 -0.9606 -0.1983
  177SLPC   H5Y20210   1.016   6.032   9.850 -0.5713 -0.1637  3.2277
  177SLPC   C3620211   1.193   5.940   9.753  0.2114 -0.4594 -0.5441
  177SLPC   H6X20212   1.228   6.032   9.702 -0.3020  0.4121  0.6246
  177SLPC   H6Y20213   1.133   5.886   9.677 -0.8748 -1.6364  1.1017
  177SLPC   C3720214   1.318   5.859   9.784  0.2263  0.1292 -0.2324
  177SLPC   H7X20215   1.289   5.753   9.797 -0.6788  0.5844  1.8340
  177SLPC   H7Y20216   1.363   5.896   9.879  1.2256 -0.2076 -0.5632
  177SLPC   C3820217   1.413   5.858   9.660 -0.2262  0.3128  0.1407
  177SLPC   H8X20218   1.515   5.815   9.676 -0.5308 -1.9763 -3.0275
  177SLPC   H8Y20219   1.431   5.963   9.630  0.0386  0.0683 -0.5773
  177SLPC   C3920220   1.366   5.784   9.530  0.2137  1.5468  0.3199
  177SLPC   H9X20221   1.263   5.819   9.510 -0.4274  0.3230  1.2819
  177SLPC   H9Y20222   1.352   5.676   9.554  0.1997  2.1956  3.7374
  177SLPC  C31020223   1.453   5.802   9.401  0.3059 -1.2359 -0.2390
  177SLPC  H10X20224   1.473   5.910   9.384 -0.3843 -1.3297 -1.8283
  177SLPC  H10Y20225   1.394   5.779   9.309  1.0407 -1.4705 -0.6575
  177SLPC  C31120226   1.582   5.721   9.390 -0.0029  1.4202  0.0436
  177SLPC  H11X20227   1.567   5.613   9.408 -0.2290  1.4005 -0.2596
  177SLPC  H11Y20228   1.659   5.755   9.463 -0.5620  0.9589  0.8542
  177SLPC  C31220229   1.651   5.732   9.247 -0.0125 -0.0970 -0.0227
  177SLPC  H12X20230   1.707   5.827   9.236 -0.5035  0.1697 -0.2599
  177SLPC  H12Y20231   1.572   5.741   9.169 -0.0810 -0.6801 -0.0317
  177SLPC  C31320232   1.738   5.609   9.209  0.0037 -0.0505  0.8228
  177SLPC  H13X20233   1.663   5.528   9.209  0.5420 -0.7030 -2.2961
  177SLPC  H13Y20234   1.823   5.596   9.280  1.3514  2.0460 -0.2840
  177SLPC  C31420235   1.789   5.628   9.064 -0.3026 -0.8757 -0.1963
  177SLPC  H14X20236   1.842   5.725   9.055 -0.6682 -0.7058 -0.5734
  177SLPC  H14Y20237   1.707   5.629   8.989  0.0252  2.5888 -0.6675
  177SLPC  C31520238   1.902   5.518   9.037 -0.8119 -0.3552 -0.1136
  177SLPC  H15X20239   1.985   5.526   9.110 -0.1913 -2.2684 -0.5387
  177SLPC  H15Y20240   1.944   5.545   8.937  2.0790 -3.0453  0.2272
  177SLPC  C31620241   1.852   5.371   9.036 -0.3248  0.0491  0.6829
  177SLPC  H16X20242   1.786   5.364   8.947  1.7015  3.1202 -1.2660
  177SLPC  H16Y20243   1.807   5.353   9.136  1.7306 -2.5696  1.2684
  177SLPC  C31720244   1.963   5.274   9.023 -0.3874  0.5233  0.5762
  177SLPC  H17X20245   2.034   5.292   9.107 -0.8232 -0.5614  1.2128
  177SLPC  H17Y20246   2.016   5.278   8.926 -0.8946 -0.2893  0.2538
  177SLPC  C31820247   1.900   5.138   9.036  0.8762 -0.4999 -0.1938
  177SLPC  H18X20248   1.820   5.131   8.959 -0.2679 -1.5060  1.0339
  177SLPC  H18Y20249   1.855   5.109   9.133 -0.4218 -3.5068 -1.5651
  177SLPC  H18Z20250   1.979   5.063   9.016  1.1501 -0.5040  0.8435
  178SLPC     N20251   0.737   2.030  11.036  0.2680  0.0156  0.3406
  178SLPC   C1320252   0.602   2.105  11.045  0.4357  0.2463 -0.0713
  178SLPC  H13A20253   0.616   2.212  11.041 -0.7998  0.5246  1.7373
  178SLPC  H13B20254   0.533   2.060  10.975 -0.5076 -0.2732  1.1653
  178SLPC  H13C20255   0.547   2.087  11.136 -2.2865  0.2831 -1.5924
  178SLPC   C1420256   0.772   2.007  10.887 -0.0723  0.4443  0.1777
  178SLPC  H14A20257   0.696   1.942  10.848 -2.0650  1.2481  2.5019
  178SLPC  H14B20258   0.766   2.093  10.823  1.3322  1.2053  1.0154
  178SLPC  H14C20259   0.871   1.962  10.887 -0.0995  0.3865  0.5139
  178SLPC   C1520260   0.722   1.899  11.108 -0.8392 -0.8362  0.3713
  178SLPC  H15A20261   0.809   1.841  11.082 -0.5934  0.3903 -1.7837
  178SLPC  H15B20262   0.703   1.916  11.213  3.1485 -0.1550  1.1362
  178SLPC  H15C20263   0.639   1.853  11.058 -0.7029 -0.8268  0.1381
  178SLPC   C1220264   0.838   2.124  11.101  1.0802  0.2928  0.5783
  178SLPC  H12A20265   0.929   2.067  11.093  0.6042 -0.3551 -0.3642
  178SLPC  H12B20266   0.818   2.151  11.204  0.0401 -0.2845  0.5383
  178SLPC   C1120267   0.864   2.265  11.037 -0.2107 -0.3215  0.3237
  178SLPC  H11A20268   0.888   2.240  10.932 -4.9244 -0.3105 -0.9713
  178SLPC  H11B20269   0.944   2.313  11.098 -0.8421 -1.9564  2.5947
  178SLPC     P20270   0.736   2.465  10.930  0.0115  0.2417  0.3775
  178SLPC   O1320271   0.591   2.503  10.950 -0.0902  0.1933 -0.1651
  178SLPC   O1420272   0.846   2.563  10.942 -0.4564  0.0794  0.3298
  178SLPC   O1220273   0.759   2.355  11.038  0.2772  0.1625  0.2717
  178SLPC   O1120274   0.747   2.383  10.790 -0.2819 -0.2948  0.6440
  178SLPC    C120275   0.863   2.399  10.710 -0.8161  0.0223  0.7374
  178SLPC    HA20276   0.950   2.426  10.775 -0.4040 -1.6700  0.9475
  178SLPC    HB20277   0.892   2.301  10.666  1.8928  1.1059 -0.0777
  178SLPC    C220278   0.839   2.490  10.590  0.8054 -0.3039  0.5598
  178SLPC    HS20279   0.832   2.596  10.622  1.1651 -0.2098  0.3433
  178SLPC   O2120280   0.723   2.426  10.528  0.0946  0.0090 -0.2532
  178SLPC   C2120281   0.672   2.503  10.430  0.0335  0.1959 -0.7514
  178SLPC   O2220282   0.708   2.614  10.398 -0.3594 -0.1716 -0.7443
  178SLPC   C2220283   0.559   2.412  10.373  0.0067 -1.2447  0.2526
  178SLPC   H2R20284   0.583   2.306  10.354 -0.6954 -1.0491 -2.1446
  178SLPC   H2S20285   0.474   2.422  10.444 -2.4211  0.3745 -2.5979
  178SLPC    C320286   0.964   2.489  10.500 -0.2871 -1.0481 -0.1851
  178SLPC    HX20287   1.053   2.513  10.562  1.1696 -1.5499 -1.9998
  178SLPC    HY20288   0.957   2.567  10.421 -0.0886 -0.5141  0.3193
  178SLPC   O3120289   1.000   2.358  10.443  0.4845 -0.0030 -0.3322
  178SLPC   C3120290   0.983   2.332  10.313  0.2052  0.7519  0.0036
  178SLPC   O3220291   0.960   2.413  10.226  0.1872 -0.0331  0.5036
  178SLPC   C3220292   0.979   2.182  10.293  0.1723  0.1298 -0.8290
  178SLPC   H2X20293   0.917   2.126  10.366  1.7916 -1.4513 -0.6055
  178SLPC   H2Y20294   1.083   2.151  10.317  0.3455  0.8572 -0.5973
  178SLPC   C2320295   0.492   2.467  10.241 -0.8857  0.2120  1.1080
  178SLPC   H3R20296   0.487   2.578  10.240  1.1064  0.3444 -0.0803
  178SLPC   H3S20297   0.392   2.422  10.226 -0.4423 -0.5243  0.2805
  178SLPC   C2420298   0.571   2.425  10.117 -0.3575  0.0642 -0.5011
  178SLPC   H4R20299   0.567   2.314  10.107  2.3449 -0.1296 -0.0168
  178SLPC   H4S20300   0.678   2.451  10.130 -0.8554  0.7374  3.0345
  178SLPC   C2520301   0.531   2.490   9.984  0.2903 -0.4843 -0.2932
  178SLPC   H5R20302   0.548   2.600   9.984  1.6165 -0.6689 -0.5782
  178SLPC   H5S20303   0.423   2.481   9.958  0.3177  1.0070 -1.0638
  178SLPC   C2620304   0.605   2.419   9.872  0.1675  0.2724  0.3427
  178SLPC   H6R20305   0.576   2.475   9.781  0.5739 -0.2691 -0.1243
  178SLPC   H6S20306   0.569   2.314   9.865 -0.6464  0.5611 -0.0440
  178SLPC   C2720307   0.751   2.416   9.888 -0.4596  0.1142  0.3750
  178SLPC   H7R20308   0.785   2.345   9.966  0.9881  1.1030  0.7055
  178SLPC   H7S20309   0.799   2.507   9.932  0.2124 -0.5739  1.0997
  178SLPC   C2820310   0.836   2.401   9.754 -0.5353 -0.2422 -0.1966
  178SLPC   H8R20311   0.818   2.309   9.694 -1.1170 -1.6972  2.0910
  178SLPC   H8S20312   0.935   2.391   9.803 -0.0273  3.6445 -0.1141
  178SLPC   C2920313   0.854   2.526   9.671  0.6852 -0.6219  0.2649
  178SLPC   H9R20314   0.901   2.609   9.727 -1.5247  1.2282 -0.4686
  178SLPC  C21020315   0.819   2.541   9.543 -0.2083 -0.0931 -0.7581
  178SLPC  H10R20316   0.846   2.629   9.483 -0.1482  0.2276 -0.2623
  178SLPC  C21120317   0.743   2.438   9.463  0.1713  0.0207  0.6461
  178SLPC  H11R20318   0.704   2.481   9.369  1.7173 -0.6202 -0.3412
  178SLPC  H11S20319   0.648   2.412   9.515  0.9946 -0.0273  2.1855
  178SLPC  C21220320   0.823   2.318   9.423  0.6978  0.4036  0.5749
  178SLPC  H12R20321   0.915   2.306   9.481 -0.0497 -0.5305  1.6308
  178SLPC  C21320322   0.777   2.221   9.344 -0.1614 -0.6448  0.3474
  178SLPC  H13R20323   0.848   2.151   9.297 -0.7537 -0.2314 -1.2086
  178SLPC  C21420324   0.645   2.215   9.276  0.1692  0.1131 -0.0637
  178SLPC  H14R20325   0.561   2.274   9.316  0.4318  0.5729 -0.1843
  178SLPC  H14S20326   0.614   2.109   9.291  1.9108 -0.8011 -2.3078
  178SLPC  C21520327   0.641   2.227   9.120  0.1840 -0.1040 -0.2031
  178SLPC  H15R20328   0.683   2.327   9.097  1.3832 -0.3233  0.9150
  178SLPC  H15S20329   0.534   2.235   9.091 -0.3364  3.1708  2.1043
  178SLPC  C21620330   0.718   2.115   9.053  0.1382 -0.2359  0.6826
  178SLPC  H16R20331   0.689   2.017   9.096 -1.7135  0.5561  1.3417
  178SLPC  H16S20332   0.825   2.126   9.082  0.8884 -1.3900 -1.4450
  178SLPC  C21720333   0.698   2.114   8.902  0.0261  0.3800  0.3090
  178SLPC  H17R20334   0.731   2.210   8.857  0.1060  0.3028  0.2041
  178SLPC  H17S20335   0.587   2.105   8.892 -0.0828 -0.5666  1.9944
  178SLPC  C21820336   0.765   1.989   8.838 -0.7329 -0.3252  0.1882
  178SLPC  H18R20337   0.734   1.899   8.897  0.8173 -0.2928  1.1034
  178SLPC  H18S20338   0.875   2.007   8.842 -1.0221  1.4978  1.2632
  178SLPC  H18T20339   0.749   1.987   8.728  1.6894  2.9368 -0.3672
  178SLPC   C3320340   0.943   2.134  10.157 -0.2226  0.8120  1.0107
  178SLPC   H3X20341   0.861   2.191  10.108 -0.4420 -0.6519 -0.4406
  178SLPC   H3Y20342   0.912   2.027  10.158  0.0797  0.7288  1.5044
  178SLPC   C3420343   1.063   2.153  10.067  0.2886  0.4747 -0.4498
  178SLPC   H4X20344   1.156   2.119  10.118 -0.9935 -0.2120  1.5733
  178SLPC   H4Y20345   1.073   2.263  10.056 -2.0314  0.9122  1.1994
  178SLPC   C3520346   1.048   2.082   9.930 -0.3006  0.0187  0.2899
  178SLPC   H5X20347   0.947   2.104   9.888  0.4262  0.7645 -1.1623
  178SLPC   H5Y20348   1.066   1.972   9.935  1.6620  0.1877 -1.6440
  178SLPC   C3620349   1.147   2.137   9.822 -0.2008 -0.5406 -0.3095
  178SLPC   H6X20350   1.146   2.248   9.825  1.4628 -0.4942 -0.0443
  178SLPC   H6Y20351   1.109   2.104   9.724  1.4471  1.8961 -1.8813
  178SLPC   C3720352   1.295   2.103   9.840 -0.1930  0.1251  0.4101
  178SLPC   H7X20353   1.296   1.996   9.810 -1.5324 -0.0252  0.8390
  178SLPC   H7Y20354   1.324   2.120   9.946 -0.1893  2.4824  0.0792
  178SLPC   C3820355   1.403   2.178   9.750  0.1299 -0.2917 -0.8403
  178SLPC   H8X20356   1.505   2.170   9.793  0.1012 -1.3055 -0.9260
  178SLPC   H8Y20357   1.383   2.287   9.749 -0.7446 -0.4342 -0.2123
  178SLPC   C3920358   1.408   2.130   9.602 -0.6223 -0.1909  0.0127
  178SLPC   H9X20359   1.310   2.139   9.550 -0.2428  2.6348 -0.3497
  178SLPC   H9Y20360   1.429   2.021   9.597 -2.5306 -0.8793  3.5381
  178SLPC  C31020361   1.517   2.224   9.540  1.1647  1.3133 -0.8653
  178SLPC  H10X20362   1.615   2.187   9.578 -0.6034 -2.7009  0.3685
  178SLPC  H10Y20363   1.500   2.331   9.565 -1.1359  0.6389  0.8510
  178SLPC  C31120364   1.515   2.209   9.386  0.5418 -0.9356 -0.8780
  178SLPC  H11X20365   1.413   2.237   9.352 -0.3322  0.6333  2.5962
  178SLPC  H11Y20366   1.532   2.101   9.367  2.2937 -1.2555  1.9302
  178SLPC  C31220367   1.619   2.298   9.311 -0.2496 -0.6421 -0.9336
  178SLPC  H12X20368   1.716   2.300   9.366 -0.8702 -0.5162  0.1800
  178SLPC  H12Y20369   1.590   2.404   9.298 -1.0484 -0.9905 -2.0667
  178SLPC  C31320370   1.651   2.231   9.182  0.5679  0.0689  0.9661
  178SLPC  H13X20371   1.687   2.126   9.184 -2.5950 -1.1516 -0.1138
  178SLPC  H13Y20372   1.729   2.298   9.139 -1.8767  2.4111 -0.0929
  178SLPC  C31420373   1.536   2.237   9.090  0.3881 -0.5028  0.0541
  178SLPC  H14X20374   1.500   2.341   9.109 -0.3938 -1.0550  1.8985
  178SLPC  H14Y20375   1.450   2.173   9.119 -0.9863  1.5121  0.6683
  178SLPC  C31520376   1.565   2.218   8.936  0.3521  0.8186 -0.2103
  178SLPC  H15X20377   1.598   2.112   8.932  0.3333  0.8206 -0.4369
  178SLPC  H15Y20378   1.470   2.219   8.879 -0.5528 -2.3472  1.0294
  178SLPC  C31620379   1.660   2.303   8.867 -1.1391 -0.3074 -0.4992
  178SLPC  H16X20380   1.666   2.276   8.759 -1.1822 -0.4254 -0.4707
  178SLPC  H16Y20381   1.764   2.298   8.906 -0.2838 -1.0184 -2.6957
  178SLPC  C31720382   1.633   2.452   8.861 -0.4413  0.3525 -0.2629
  178SLPC  H17X20383   1.621   2.495   8.963  2.4899  0.0039  0.3327
  178SLPC  H17Y20384   1.548   2.467   8.792 -0.8594 -1.5865 -0.2009
  178SLPC  C31820385   1.752   2.520   8.781 -0.9853 -1.0629 -0.2291
  178SLPC  H18X20386   1.727   2.625   8.751  1.2013 -0.6064 -0.6011
  178SLPC  H18Y20387   1.775   2.455   8.694  1.0708  0.2803 -0.7509
  178SLPC  H18Z20388   1.845   2.534   8.840 -0.0226  2.5900 -2.2633
  179SLPC     N20389   2.700   5.152  10.571  0.3370 -0.0011  0.1226
  179SLPC   C1320390   2.650   5.256  10.665  0.7406  0.1322 -0.2185
  179SLPC  H13A20391   2.567   5.310  10.623  1.2123  0.0124 -1.3424
  179SLPC  H13B20392   2.634   5.213  10.763 -1.2559  1.8488  0.2621
  179SLPC  H13C20393   2.731   5.328  10.669 -0.1392  1.1340 -0.0639
  179SLPC   C1420394   2.820   5.089  10.641 -0.0522 -0.0483 -0.2322
  179SLPC  H14A20395   2.859   5.004  10.587  0.8087 -0.3698  0.8389
  179SLPC  H14B20396   2.900   5.162  10.641  0.4476 -0.5032  2.3610
  179SLPC  H14C20397   2.795   5.064  10.743 -1.4616  0.0902 -0.5306
  179SLPC   C1520398   2.744   5.222  10.448 -0.5027  0.0854  0.3241
  179SLPC  H15A20399   2.808   5.305  10.474 -0.9506  0.2199  1.0319
  179SLPC  H15B20400   2.801   5.160  10.381 -0.2157  0.9154 -0.2120
  179SLPC  H15C20401   2.661   5.268  10.397 -0.0492  1.4903  0.8179
  179SLPC   C1220402   2.601   5.049  10.541  1.3657 -0.2686 -0.3007
  179SLPC  H12A20403   2.516   5.097  10.494  0.7108  0.9094  1.9236
  179SLPC  H12B20404   2.582   4.991  10.630  0.0195  0.9313  0.2419
  179SLPC   C1120405   2.634   4.946  10.436  0.0728 -0.3472 -0.2971
  179SLPC  H11A20406   2.684   4.992  10.348 -2.9564 -0.2401 -2.1081
  179SLPC  H11B20407   2.547   4.891  10.394  0.5226  0.9807 -3.2490
  179SLPC     P20408   2.845   4.780  10.420  0.1855 -0.2794 -0.1286
  179SLPC   O1320409   2.960   4.858  10.471  0.5375  0.2255 -0.1746
  179SLPC   O1420410   2.844   4.637  10.445 -0.1830 -0.0990 -0.0579
  179SLPC   O1220411   2.717   4.844  10.489  0.3036  1.0358 -0.2134
  179SLPC   O1120412   2.828   4.815  10.268  0.0477  0.3365 -1.0305
  179SLPC    C120413   2.731   4.748  10.188  0.3834  0.3241 -0.1708
  179SLPC    HA20414   2.636   4.719  10.237  0.7699 -1.1082 -0.2216
  179SLPC    HB20415   2.696   4.825  10.116 -0.9874 -0.2181 -0.1062
  179SLPC    C220416   2.781   4.629  10.107  0.5824  0.1586  0.1385
  179SLPC    HS20417   2.822   4.561  10.184 -2.2103 -0.1689  1.4410
  179SLPC   O2120418   2.878   4.678  10.011  0.0387 -0.6932  0.0278
  179SLPC   C2120419   2.965   4.588   9.977  0.0485  1.0151 -0.6805
  179SLPC   O2220420   2.965   4.469  10.018  0.4292  0.2345  0.3760
  179SLPC   C2220421   3.070   4.644   9.886 -0.5281  0.0498  0.2730
  179SLPC   H2R20422   3.060   4.754   9.903  1.6023  0.0218  2.0946
  179SLPC   H2S20423   3.166   4.612   9.931 -0.5287 -0.5137 -0.1145
  179SLPC    C320424   2.659   4.555  10.036 -0.5333 -0.1213 -0.1226
  179SLPC    HX20425   2.578   4.545  10.112 -0.6955 -2.7265 -0.5234
  179SLPC    HY20426   2.670   4.446  10.015 -0.6009 -0.3495  0.9303
  179SLPC   O3120427   2.606   4.635   9.924  0.2654 -0.4820  0.1131
  179SLPC   C3120428   2.655   4.602   9.807  0.2399  0.4440 -0.0664
  179SLPC   O3220429   2.734   4.510   9.788 -0.6144 -0.0771  0.3896
  179SLPC   C3220430   2.607   4.696   9.699 -0.3324  0.4752  0.3209
  179SLPC   H2X20431   2.675   4.784   9.706  2.2710 -1.2250 -1.6782
  179SLPC   H2Y20432   2.505   4.733   9.723  0.1865  2.0644  0.1574
  179SLPC   C2320433   3.054   4.593   9.739 -0.8246  0.2992  0.0172
  179SLPC   H3R20434   2.961   4.621   9.685 -0.8837  1.5506  0.7366
  179SLPC   H3S20435   3.064   4.482   9.742  1.1891  0.4248 -0.8177
  179SLPC   C2420436   3.171   4.659   9.661 -0.3761 -0.5866  0.1933
  179SLPC   H4R20437   3.268   4.615   9.693 -0.0730 -0.6446 -0.7632
  179SLPC   H4S20438   3.164   4.768   9.682 -0.3792 -0.6308  0.4181
  179SLPC   C2520439   3.152   4.632   9.515  0.2147 -0.1397  0.6553
  179SLPC   H5R20440   3.060   4.675   9.472  1.3462  2.2392  0.4623
  179SLPC   H5S20441   3.160   4.522   9.498 -1.4541 -0.0290 -1.0123
  179SLPC   C2620442   3.270   4.698   9.441  0.8997  0.2518  0.6053
  179SLPC   H6R20443   3.362   4.651   9.484  1.2966  0.3883 -0.0740
  179SLPC   H6S20444   3.252   4.804   9.466 -1.1364  0.3872 -1.2423
  179SLPC   C2720445   3.258   4.683   9.288  0.2632 -0.2304 -0.5898
  179SLPC   H7R20446   3.157   4.710   9.252 -0.6311 -1.7975  0.6602
  179SLPC   H7S20447   3.270   4.576   9.261 -1.9686 -0.5499 -0.4432
  179SLPC   C2820448   3.349   4.787   9.213  0.2278  0.8044 -0.3362
  179SLPC   H8R20449   3.336   4.760   9.106  1.5362  1.3542 -0.6577
  179SLPC   H8S20450   3.451   4.755   9.244  0.1824  0.3788 -0.6272
  179SLPC   C2920451   3.338   4.930   9.242  0.4284 -0.5185 -0.3167
  179SLPC   H9R20452   3.360   4.971   9.342  1.4410 -0.0858 -0.7060
  179SLPC  C21020453   3.294   5.023   9.154  1.0766 -0.2714 -0.1361
  179SLPC  H10R20454   3.296   5.129   9.183 -1.3546 -0.1044 -0.3360
  179SLPC  C21120455   3.241   4.998   9.013 -0.6169  0.8831 -0.6988
  179SLPC  H11R20456   3.197   5.090   8.968  0.4968  1.8838  0.1971
  179SLPC  H11S20457   3.158   4.924   9.021 -0.4080  0.8461  2.1945
  179SLPC  C21220458   3.346   4.945   8.918 -0.0808 -0.1057 -0.5888
  179SLPC  H12R20459   3.451   4.951   8.950 -0.0486 -0.9100 -0.5149
  179SLPC  C21320460   3.317   4.879   8.803 -1.0253  0.0848  0.3625
  179SLPC  H13R20461   3.407   4.852   8.746 -0.0226  0.5517  1.6770
  179SLPC  C21420462   3.182   4.844   8.751 -0.2003 -0.7017  0.5916
  179SLPC  H14R20463   3.102   4.851   8.827 -1.5723 -0.4108 -0.8505
  179SLPC  H14S20464   3.183   4.736   8.725 -0.1973 -0.1894 -1.7478
  179SLPC  C21520465   3.124   4.927   8.629  0.1434  0.1922  0.2252
  179SLPC  H15R20466   3.101   5.030   8.664  2.7944  1.1296 -0.5008
  179SLPC  H15S20467   3.034   4.875   8.592 -0.0232  1.1226 -0.7231
  179SLPC  C21620468   3.228   4.935   8.517 -0.8419  0.1067  0.3385
  179SLPC  H16R20469   3.259   4.834   8.484  2.2857  0.8686  0.6385
  179SLPC  H16S20470   3.318   4.989   8.554 -2.2539  1.7062  1.6316
  179SLPC  C21720471   3.187   5.006   8.387  0.2085 -0.0852  0.0336
  179SLPC  H17R20472   3.242   5.102   8.385  2.0662 -1.1149 -1.8630
  179SLPC  H17S20473   3.078   5.029   8.385 -0.4938 -2.9162  0.8685
  179SLPC  C21820474   3.213   4.931   8.256  0.7849  0.0317  0.6554
  179SLPC  H18R20475   3.323   4.914   8.255  1.3740  3.0277  2.5919
  179SLPC  H18S20476   3.183   4.989   8.166  0.7221  2.2477  2.0291
  179SLPC  H18T20477   3.164   4.831   8.252 -0.0752  0.4616 -2.2922
  179SLPC   C3320478   2.632   4.632   9.553  0.0575 -0.5725 -0.5605
  179SLPC   H3X20479   2.661   4.524   9.552  2.8794  0.0946  0.5875
  179SLPC   H3Y20480   2.716   4.679   9.497 -1.2062 -0.9501 -2.8896
  179SLPC   C3420481   2.513   4.648   9.461  0.4511  0.2228 -0.1629
  179SLPC   H4X20482   2.482   4.754   9.459  2.2160  0.7747 -0.4249
  179SLPC   H4Y20483   2.444   4.580   9.515  0.9281 -1.4413 -1.5617
  179SLPC   C3520484   2.532   4.598   9.320  0.1328  0.3875  0.1921
  179SLPC   H5X20485   2.592   4.505   9.305 -0.7278 -0.2872  0.8599
  179SLPC   H5Y20486   2.588   4.674   9.261  0.2974 -0.4117 -0.7193
  179SLPC   C3620487   2.402   4.561   9.237 -0.1240  0.6789  0.0770
  179SLPC   H6X20488   2.316   4.631   9.240  0.1518  1.1338 -1.8211
  179SLPC   H6Y20489   2.359   4.464   9.272  3.3473 -0.8914  0.3623
  179SLPC   C3720490   2.437   4.563   9.086  0.3637 -0.3223  0.0549
  179SLPC   H7X20491   2.529   4.505   9.065  1.6433  1.4881  0.4293
  179SLPC   H7Y20492   2.462   4.665   9.049 -0.6915  0.2765  0.9686
  179SLPC   C3820493   2.312   4.509   9.004 -1.3742  0.2257  0.6463
  179SLPC   H8X20494   2.230   4.573   9.040 -0.5204  1.5708  0.2646
  179SLPC   H8Y20495   2.292   4.402   9.029 -2.3158 -0.4523 -2.5636
  179SLPC   C3920496   2.336   4.512   8.860 -0.2240  0.0407 -0.1350
  179SLPC   H9X20497   2.437   4.480   8.825  0.4878  0.6994  1.2545
  179SLPC   H9Y20498   2.313   4.608   8.810 -0.2984 -0.7629 -1.7121
  179SLPC  C31020499   2.252   4.410   8.778  0.4916 -0.0466  0.4524
  179SLPC  H10X20500   2.284   4.304   8.791 -3.9620 -1.7758 -0.9452
  179SLPC  H10Y20501   2.272   4.434   8.672 -2.6025 -0.1326 -0.2365
  179SLPC  C31120502   2.104   4.449   8.790  0.2174  0.6370 -0.1969
  179SLPC  H11X20503   2.090   4.559   8.779  3.8874  1.3812  1.2543
  179SLPC  H11Y20504   2.079   4.413   8.892 -0.7261 -0.5567 -0.8207
  179SLPC  C31220505   2.006   4.369   8.688  0.4718  0.0250 -0.3974
  179SLPC  H12X20506   2.026   4.260   8.694 -0.9016 -0.2983 -1.3826
  179SLPC  H12Y20507   2.025   4.401   8.583  0.6352  0.5076 -0.2263
  179SLPC  C31320508   1.855   4.385   8.712 -1.0834 -0.0029 -0.1067
  179SLPC  H13X20509   1.825   4.454   8.795 -2.4564 -0.0003 -0.5875
  179SLPC  H13Y20510   1.820   4.283   8.737 -0.7275 -0.0553  0.1942
  179SLPC  C31420511   1.769   4.430   8.597 -0.3597  0.4864 -0.3457
  179SLPC  H14X20512   1.833   4.416   8.506  1.7326  0.8097  1.0108
  179SLPC  H14Y20513   1.732   4.532   8.620 -1.4437  0.1686 -0.6003
  179SLPC  C31520514   1.648   4.335   8.578 -0.0262  0.1837 -0.7040
  179SLPC  H15X20515   1.689   4.233   8.595  0.5802  0.6707  0.9218
  179SLPC  H15Y20516   1.597   4.339   8.479  0.2544 -0.5607 -0.8883
  179SLPC  C31620517   1.530   4.346   8.679 -0.2431  0.6172 -0.1350
  179SLPC  H16X20518   1.574   4.375   8.777  0.8272 -0.5456 -0.2472
  179SLPC  H16Y20519   1.478   4.249   8.691 -0.5670  0.8154  0.0724
  179SLPC  C31720520   1.421   4.448   8.636  0.0869  0.6544 -0.4447
  179SLPC  H17X20521   1.408   4.444   8.526 -0.5738  0.4128 -0.3674
  179SLPC  H17Y20522   1.452   4.552   8.661  0.2194  0.2999  0.9211
  179SLPC  C31820523   1.287   4.416   8.707  0.3185 -0.1113 -0.0914
  179SLPC  H18X20524   1.207   4.474   8.657  1.0743  0.6524 -0.4303
  179SLPC  H18Y20525   1.295   4.430   8.817  1.6438 -0.6963 -0.0939
  179SLPC  H18Z20526   1.259   4.308   8.699  0.9793 -0.2260 -0.9880
  180SLPC     N20527   1.727   1.423  10.427 -0.2843 -0.0731  0.3966
  180SLPC   C1320528   1.710   1.399  10.570 -0.1346 -0.3637  0.2500
  180SLPC  H13A20529   1.719   1.294  10.593  2.1731 -0.3736 -0.4671
  180SLPC  H13B20530   1.770   1.450  10.644 -1.3937  0.6161  0.6387
  180SLPC  H13C20531   1.608   1.431  10.589  0.0194  1.0149 -1.0952
  180SLPC   C1420532   1.641   1.321  10.359  0.0480  0.0576 -0.4167
  180SLPC  H14A20533   1.538   1.344  10.382  0.9593  0.8396  3.8418
  180SLPC  H14B20534   1.660   1.313  10.253  1.4092  0.2160 -0.2004
  180SLPC  H14C20535   1.664   1.225  10.403  1.8106  0.2443 -0.8731
  180SLPC   C1520536   1.872   1.392  10.399 -0.6728 -0.8105  0.0674
  180SLPC  H15A20537   1.906   1.393  10.296  0.0390  0.3366  0.2904
  180SLPC  H15B20538   1.937   1.467  10.442 -1.8228  0.6178 -0.6201
  180SLPC  H15C20539   1.898   1.296  10.443 -0.9008 -0.3341  1.2905
  180SLPC   C1220540   1.702   1.569  10.394  0.1511 -0.1474  0.2274
  180SLPC  H12A20541   1.710   1.594  10.289 -1.3725 -0.6586 -0.0366
  180SLPC  H12B20542   1.785   1.624  10.434  0.3136 -0.4008  0.2463
  180SLPC   C1120543   1.572   1.625  10.440  0.5758  0.0647  0.2823
  180SLPC  H11A20544   1.492   1.550  10.422 -0.7787  0.8570  2.5237
  180SLPC  H11B20545   1.546   1.719  10.387  0.8008 -1.3863 -2.5928
  180SLPC     P20546   1.632   1.756  10.669  0.3365 -0.1494 -0.0247
  180SLPC   O1320547   1.553   1.783  10.789 -0.1380  0.5448 -0.2885
  180SLPC   O1420548   1.772   1.727  10.696 -0.0018  0.0033 -0.4007
  180SLPC   O1220549   1.557   1.647  10.582  0.0419 -0.1856 -0.4585
  180SLPC   O1120550   1.609   1.876  10.578  0.5091 -0.8406 -0.5188
  180SLPC    C120551   1.482   1.938  10.566  0.7823 -0.1259 -0.0454
  180SLPC    HA20552   1.414   1.866  10.514 -0.1348  0.9581 -0.4036
  180SLPC    HB20553   1.438   1.965  10.664  0.8986 -0.5930  0.1324
  180SLPC    C220554   1.482   2.064  10.475 -0.3792  0.4817 -0.3826
  180SLPC    HS20555   1.379   2.103  10.482 -0.3954  0.1287  1.9268
  180SLPC   O2120556   1.529   2.026  10.349 -0.1670  0.1151  0.1569
  180SLPC   C2120557   1.421   1.988  10.265  0.1088 -0.5351 -0.0990
  180SLPC   O2220558   1.306   1.991  10.299  0.0938 -0.0046 -0.2115
  180SLPC   C2220559   1.470   1.916  10.143 -0.5233 -0.3863  0.4519
  180SLPC   H2R20560   1.490   2.004  10.077 -0.5158  1.8084  3.2007
  180SLPC   H2S20561   1.565   1.868  10.175  0.0029  1.2849  1.5138
  180SLPC    C320562   1.575   2.176  10.541 -0.2605  0.3268  0.5230
  180SLPC    HX20563   1.668   2.116  10.554 -1.2444 -1.9037 -1.6594
  180SLPC    HY20564   1.537   2.210  10.639 -0.2402  1.8880  0.0138
  180SLPC   O3120565   1.591   2.290  10.448 -0.1461  0.4252  0.2427
  180SLPC   C3120566   1.485   2.371  10.451  0.2221 -0.2374  0.1101
  180SLPC   O3220567   1.390   2.371  10.530 -0.0191  0.1921  0.0791
  180SLPC   C3220568   1.511   2.483  10.358 -0.4819  0.0274 -0.1845
  180SLPC   H2X20569   1.620   2.503  10.349 -0.4013  0.3758  1.2622
  180SLPC   H2Y20570   1.475   2.569  10.417  0.8477  1.0899 -0.8705
  180SLPC   C2320571   1.361   1.827  10.088 -0.2467 -0.9375  0.6804
  180SLPC   H3R20572   1.271   1.888  10.063  0.6285  0.4189  0.7598
  180SLPC   H3S20573   1.333   1.747  10.159 -0.2095 -2.1449 -0.6176
  180SLPC   C2420574   1.422   1.763   9.956  0.2666  0.0442  0.3038
  180SLPC   H4R20575   1.510   1.705   9.991  1.5267  1.7571  0.0414
  180SLPC   H4S20576   1.460   1.851   9.901  0.0927  0.4698  0.8619
  180SLPC   C2520577   1.314   1.681   9.885 -0.3486 -0.1749  0.0892
  180SLPC   H5R20578   1.242   1.754   9.842  0.3679 -0.0282 -0.9323
  180SLPC   H5S20579   1.262   1.606   9.947 -0.3488 -0.2052  0.0520
  180SLPC   C2620580   1.369   1.611   9.769  0.4236 -0.6342 -0.1313
  180SLPC   H6R20581   1.435   1.527   9.798  1.1723 -0.8259 -2.2033
  180SLPC   H6S20582   1.429   1.674   9.700 -1.2701  0.6699 -0.4648
  180SLPC   C2720583   1.253   1.569   9.680 -0.6600  0.0160 -0.0346
  180SLPC   H7R20584   1.282   1.563   9.573  0.4184  1.6948  0.1128
  180SLPC   H7S20585   1.169   1.642   9.689  0.5271  1.3137  1.0424
  180SLPC   C2820586   1.173   1.439   9.723 -0.4585  0.2924  0.5610
  180SLPC   H8R20587   1.076   1.442   9.670 -0.7769  0.4765  1.1550
  180SLPC   H8S20588   1.144   1.444   9.830 -1.5923  0.4655  0.2532
  180SLPC   C2920589   1.249   1.307   9.689 -0.3405 -0.0267  0.8758
  180SLPC   H9R20590   1.325   1.266   9.757 -0.6848 -1.3954  0.4735
  180SLPC  C21020591   1.237   1.244   9.566 -0.0129  0.2431 -0.2351
  180SLPC  H10R20592   1.329   1.191   9.538  0.1502  0.5159 -0.2279
  180SLPC  C21120593   1.166   1.307   9.450 -0.3734  0.5986 -0.3072
  180SLPC  H11R20594   1.231   1.388   9.410 -1.6006  1.6521 -0.2424
  180SLPC  H11S20595   1.065   1.337   9.485 -0.8858 -0.3817 -0.8986
  180SLPC  C21220596   1.144   1.203   9.345  0.2634 -0.2423  0.2661
  180SLPC  H12R20597   1.068   1.125   9.363 -0.2623  0.0934 -0.4469
  180SLPC  C21320598   1.223   1.170   9.240 -0.7909 -0.7143 -0.6433
  180SLPC  H13R20599   1.184   1.088   9.178 -0.4235 -0.9402 -0.5782
  180SLPC  C21420600   1.350   1.239   9.201 -0.1024  0.1296  0.0178
  180SLPC  H14R20601   1.432   1.169   9.227  0.4239  0.2699 -1.2030
  180SLPC  H14S20602   1.366   1.331   9.260  1.9592  0.0743 -0.3784
  180SLPC  C21520603   1.351   1.303   9.060  0.2906  0.2376  0.5223
  180SLPC  H15R20604   1.447   1.355   9.041  0.2374  0.8884  1.8799
  180SLPC  H15S20605   1.268   1.375   9.047  0.2014 -0.1519 -1.2428
  180SLPC  C21620606   1.355   1.197   8.951  0.3251  0.3498 -0.7188
  180SLPC  H16R20607   1.267   1.131   8.970 -1.0023  2.2173 -0.1176
  180SLPC  H16S20608   1.438   1.127   8.974  0.3367  0.5865 -0.0377
  180SLPC  C21720609   1.381   1.240   8.804 -0.1889 -0.0988 -0.2104
  180SLPC  H17R20610   1.488   1.267   8.794  0.5991 -2.1980  1.6818
  180SLPC  H17S20611   1.325   1.332   8.776 -0.4475 -0.1967 -0.0235
  180SLPC  C21820612   1.337   1.133   8.713 -0.3984 -0.2911 -0.1687
  180SLPC  H18R20613   1.226   1.125   8.719 -0.3572 -0.2296  0.8026
  180SLPC  H18S20614   1.376   1.032   8.738  0.6279 -0.1910 -1.2753
  180SLPC  H18T20615   1.349   1.143   8.603 -4.3607 -1.3378 -0.8548
  180SLPC   C3320616   1.442   2.472  10.223  0.0691  0.3797 -0.9870
  180SLPC   H3X20617   1.343   2.424  10.242  0.3418  0.5698  1.1832
  180SLPC   H3Y20618   1.490   2.401  10.152  1.2286  0.4258 -0.2801
  180SLPC   C3420619   1.430   2.605  10.146  1.0195 -0.4660 -0.0638
  180SLPC   H4X20620   1.529   2.656  10.139  1.5486 -1.0922  2.0340
  180SLPC   H4Y20621   1.375   2.684  10.200  0.8588 -1.0644  0.6733
  180SLPC   C3520622   1.352   2.579  10.015 -0.8311 -0.9169 -0.2643
  180SLPC   H5X20623   1.269   2.508  10.035 -2.8658  1.5840  0.6056
  180SLPC   H5Y20624   1.420   2.525   9.946 -0.7005 -2.1151  0.7543
  180SLPC   C3620625   1.290   2.701   9.948  0.6720 -0.6906 -1.0973
  180SLPC   H6X20626   1.371   2.770   9.915 -1.6351  2.7966 -0.1050
  180SLPC   H6Y20627   1.236   2.760  10.025  0.5763 -1.2126 -0.7642
  180SLPC   C3720628   1.200   2.663   9.832 -0.1928  0.3269  0.5341
  180SLPC   H7X20629   1.176   2.760   9.784 -1.0915 -0.7278 -1.2669
  180SLPC   H7Y20630   1.107   2.613   9.867  1.5841 -3.0291  0.9659
  180SLPC   C3820631   1.266   2.572   9.722  0.6414  0.2855  0.7705
  180SLPC   H8X20632   1.250   2.469   9.759  0.1269  0.0676 -0.0224
  180SLPC   H8Y20633   1.375   2.596   9.716  0.7718 -0.5098 -0.8916
  180SLPC   C3920634   1.204   2.584   9.587  0.1846 -1.2455 -0.4589
  180SLPC   H9X20635   1.239   2.676   9.536 -0.5732 -1.1847 -0.8817
  180SLPC   H9Y20636   1.096   2.609   9.602  0.6392  1.0213 -0.6457
  180SLPC  C31020637   1.209   2.463   9.500  0.0189 -0.1406 -0.5657
  180SLPC  H10X20638   1.163   2.374   9.548 -1.8899  0.0590 -1.9027
  180SLPC  H10Y20639   1.313   2.447   9.465  0.0907 -0.1306 -0.3602
  180SLPC  C31120640   1.131   2.483   9.364 -0.3462  1.3100 -0.2329
  180SLPC  H11X20641   1.160   2.579   9.315  1.3855  0.4360 -1.0365
  180SLPC  H11Y20642   1.024   2.493   9.393  0.2589 -0.4132  3.0288
  180SLPC  C31220643   1.142   2.374   9.260 -0.5491  0.1613 -0.8198
  180SLPC  H12X20644   1.131   2.280   9.318  0.6110  1.6742  2.0647
  180SLPC  H12Y20645   1.247   2.383   9.224 -0.2824 -0.3967 -0.2161
  180SLPC  C31320646   1.044   2.407   9.149 -0.3878  0.1748 -0.0781
  180SLPC  H13X20647   1.067   2.509   9.111  1.8123 -1.0034 -2.1705
  180SLPC  H13Y20648   0.940   2.411   9.189 -0.8285  2.4425 -1.2579
  180SLPC  C31420649   1.050   2.299   9.032  0.1224  0.4214  0.0963
  180SLPC  H14X20650   0.950   2.305   8.984  1.1349  1.0208 -2.0643
  180SLPC  H14Y20651   1.086   2.200   9.066  4.2074  1.0604 -1.7676
  180SLPC  C31520652   1.162   2.343   8.929  0.2429 -0.9310 -0.3614
  180SLPC  H15X20653   1.258   2.319   8.980 -0.4966 -0.7462  1.1676
  180SLPC  H15Y20654   1.153   2.452   8.916 -1.7017 -0.6118  2.6060
  180SLPC  C31620655   1.164   2.268   8.793 -0.0263 -0.0426 -0.0630
  180SLPC  H16X20656   1.171   2.158   8.807 -1.5682 -0.3216 -1.1168
  180SLPC  H16Y20657   1.252   2.302   8.734 -2.0309  1.7379 -2.2379
  180SLPC  C31720658   1.043   2.296   8.703  0.0298 -0.3866  0.5223
  180SLPC  H17X20659   1.036   2.405   8.680 -4.5740 -0.5429  0.2870
  180SLPC  H17Y20660   0.958   2.260   8.763  2.0113 -2.5545  2.2206
  180SLPC  C31820661   1.025   2.214   8.570 -0.0825 -0.1877  0.9553
  180SLPC  H18X20662   1.110   2.229   8.501  0.6363 -3.6347  0.9107
  180SLPC  H18Y20663   0.930   2.244   8.521  0.7963  2.6885  0.8320
  180SLPC  H18Z20664   1.020   2.108   8.602  0.2482 -0.5540 -0.1706
  181SLPC     N20665   1.177   5.475  11.202  0.1814  0.4623 -0.1571
  181SLPC   C1320666   1.281   5.393  11.278 -0.0345  0.0958 -0.0688
  181SLPC  H13A20667   1.349   5.459  11.331  1.3327  1.2602 -3.0298
  181SLPC  H13B20668   1.235   5.340  11.360 -1.6689 -0.6067 -1.3971
  181SLPC  H13C20669   1.341   5.329  11.215 -0.6476  0.8588 -1.4685
  181SLPC   C1420670   1.125   5.580  11.293 -0.4322 -0.4093  0.1839
  181SLPC  H14A20671   1.057   5.550  11.371 -0.1694  1.4641  1.1864
  181SLPC  H14B20672   1.219   5.614  11.334  0.6883 -2.4412 -0.5525
  181SLPC  H14C20673   1.074   5.662  11.245 -0.2562 -0.4682 -0.1054
  181SLPC   C1520674   1.061   5.382  11.165 -0.3878  0.2589 -0.6254
  181SLPC  H15A20675   1.093   5.309  11.092  0.0967 -1.2528  1.0212
  181SLPC  H15B20676   1.005   5.318  11.233 -0.9968 -0.5079 -1.8100
  181SLPC  H15C20677   0.991   5.448  11.115  0.0478  2.1927  1.1852
  181SLPC   C1220678   1.242   5.531  11.077 -0.3091 -0.6578 -0.1845
  181SLPC  H12A20679   1.171   5.585  11.016 -0.6691 -1.7905 -0.8054
  181SLPC  H12B20680   1.287   5.453  11.015  0.5823  1.6713 -2.6687
  181SLPC   C1120681   1.356   5.638  11.083  0.0705  0.1848  0.0673
  181SLPC  H11A20682   1.386   5.664  10.980 -3.0182  2.5143 -0.3905
  181SLPC  H11B20683   1.443   5.589  11.131  0.5565 -0.4994 -1.4532
  181SLPC     P20684   1.425   5.872  11.156  0.1132  0.0046  1.0991
  181SLPC   O1320685   1.369   5.988  11.238  0.3437  0.3314 -0.3509
  181SLPC   O1420686   1.557   5.824  11.183 -0.1297 -0.2891 -0.6695
  181SLPC   O1220687   1.316   5.756  11.151 -0.2911 -0.3228  0.3024
  181SLPC   O1120688   1.413   5.908  10.997  0.1449 -0.2000 -0.6420
  181SLPC    C120689   1.289   5.910  10.937  0.1873  0.1274 -0.0808
  181SLPC    HA20690   1.234   5.814  10.948 -2.2864  1.6417  1.7853
  181SLPC    HB20691   1.224   5.988  10.980  0.2075  0.9858 -1.5409
  181SLPC    C220692   1.301   5.955  10.783  1.0235 -0.0216 -0.0094
  181SLPC    HS20693   1.200   5.936  10.740  1.2017  0.4068 -0.6402
  181SLPC   O2120694   1.405   5.876  10.722  0.6104 -0.5424 -0.2669
  181SLPC   C2120695   1.367   5.753  10.701 -0.5006 -0.5057  0.4596
  181SLPC   O2220696   1.256   5.706  10.718  0.4954 -0.3633 -0.1179
  181SLPC   C2220697   1.483   5.679  10.626  0.1574 -0.1131  0.1461
  181SLPC   H2R20698   1.573   5.732  10.666 -1.0163  2.1859 -0.0706
  181SLPC   H2S20699   1.470   5.571  10.648  0.3090 -0.4961 -1.4952
  181SLPC    C320700   1.328   6.107  10.788 -0.4262  0.5331 -0.1819
  181SLPC    HX20701   1.424   6.125  10.839 -0.7199  0.7592  0.3003
  181SLPC    HY20702   1.249   6.156  10.849  0.0717  0.2709  0.6802
  181SLPC   O3120703   1.328   6.153  10.656 -0.5895  0.3796 -0.2769
  181SLPC   C3120704   1.441   6.166  10.589 -0.2797 -0.7536  0.3614
  181SLPC   O3220705   1.554   6.148  10.632  0.4734  0.0639  0.1330
  181SLPC   C3220706   1.407   6.200  10.439  0.0781  0.3054  0.4694
  181SLPC   H2X20707   1.471   6.285  10.407 -0.1397  0.0053 -0.8003
  181SLPC   H2Y20708   1.300   6.231  10.427 -0.7359 -2.1450  0.8747
  181SLPC   C2320709   1.493   5.703  10.471 -0.3371  0.0719  0.2117
  181SLPC   H3R20710   1.599   5.685  10.441 -0.4808 -0.1679 -0.1583
  181SLPC   H3S20711   1.482   5.812  10.450  0.4798  0.1809  0.2872
  181SLPC   C2420712   1.385   5.632  10.389  0.4919  0.3247 -0.2577
  181SLPC   H4R20713   1.285   5.675  10.412 -0.3327 -0.5184 -2.0617
  181SLPC   H4S20714   1.376   5.525  10.417  0.4441  0.4432  0.1944
  181SLPC   C2520715   1.402   5.641  10.236  0.4867 -0.1033 -0.8409
  181SLPC   H5R20716   1.445   5.738  10.203  2.5190 -0.5421  0.3460
  181SLPC   H5S20717   1.300   5.641  10.192 -0.2585 -0.8855  0.8117
  181SLPC   C2620718   1.478   5.528  10.167  1.1344 -0.8998  0.5577
  181SLPC   H6R20719   1.433   5.433  10.203 -0.1723  0.3273  2.3456
  181SLPC   H6S20720   1.582   5.517  10.203  1.7447 -0.2830 -0.9302
  181SLPC   C2720721   1.481   5.551  10.016  0.2377  0.1540 -0.7427
  181SLPC   H7R20722   1.503   5.658   9.997 -1.2263  0.8364  1.1006
  181SLPC   H7S20723   1.380   5.537   9.971  0.3264 -1.0048 -0.6091
  181SLPC   C2820724   1.580   5.459   9.947 -0.6144 -0.3124  0.9619
  181SLPC   H8R20725   1.562   5.349   9.952 -3.4007  0.1199  3.1523
  181SLPC   H8S20726   1.685   5.466   9.984  0.4425 -1.0373 -1.6848
  181SLPC   C2920727   1.595   5.506   9.798 -0.2510 -1.3004 -0.5520
  181SLPC   H9R20728   1.603   5.616   9.788 -3.2807 -0.7076  1.9805
  181SLPC  C21020729   1.609   5.426   9.691 -0.5284 -0.0771  0.1405
  181SLPC  H10R20730   1.636   5.461   9.591  1.8100  0.9114  1.0502
  181SLPC  C21120731   1.610   5.277   9.694  0.2838 -0.2823  0.8325
  181SLPC  H11R20732   1.566   5.231   9.603  0.9747 -4.5384  2.4195
  181SLPC  H11S20733   1.543   5.243   9.776 -1.5460 -0.0498 -0.5266
  181SLPC  C21220734   1.743   5.225   9.729 -0.4387  0.4071 -0.2517
  181SLPC  H12R20735   1.773   5.250   9.832 -1.1902 -0.9043  0.3112
  181SLPC  C21320736   1.819   5.169   9.635 -0.6039  0.8782 -0.8151
  181SLPC  H13R20737   1.921   5.139   9.663 -0.9199  0.1738 -0.3820
  181SLPC  C21420738   1.789   5.129   9.489 -0.1510 -0.0196  0.5235
  181SLPC  H14R20739   1.865   5.179   9.425  2.0985 -2.1676  1.3577
  181SLPC  H14S20740   1.695   5.179   9.457 -0.1810  2.4221  3.9067
  181SLPC  C21520741   1.802   4.973   9.470 -0.1434 -0.6507 -0.0027
  181SLPC  H15R20742   1.764   4.953   9.368  0.2030 -1.0429 -0.0587
  181SLPC  H15S20743   1.741   4.927   9.551  1.5882 -0.0160  1.7465
  181SLPC  C21620744   1.948   4.918   9.485  0.5212 -0.1703 -0.1786
  181SLPC  H16R20745   1.995   4.953   9.579 -0.3179 -0.0242  0.1996
  181SLPC  H16S20746   2.006   4.972   9.407  0.3183 -1.8670 -1.5709
  181SLPC  C21720747   1.953   4.767   9.460  0.9101 -0.1807  0.1207
  181SLPC  H17R20748   1.914   4.737   9.360 -2.4943  0.0246  1.2340
  181SLPC  H17S20749   1.883   4.716   9.529 -1.0804 -0.5631 -2.0317
  181SLPC  C21820750   2.093   4.704   9.465 -0.3822  0.0725  0.0747
  181SLPC  H18R20751   2.121   4.703   9.572 -1.0889  1.3083  0.2853
  181SLPC  H18S20752   2.163   4.775   9.415  1.0397 -1.6090 -0.4254
  181SLPC  H18T20753   2.102   4.601   9.425  3.6391  0.8383 -1.5067
  181SLPC   C3320754   1.426   6.083  10.337  0.6490  0.2633 -0.7446
  181SLPC   H3X20755   1.344   6.010  10.352  1.5812 -0.6811 -0.1149
  181SLPC   H3Y20756   1.515   6.022  10.363 -1.4745 -3.3782 -1.3332
  181SLPC   C3420757   1.439   6.122  10.189 -0.1424  0.7008 -0.6442
  181SLPC   H4X20758   1.426   6.024  10.138  2.6514 -0.2660  0.3244
  181SLPC   H4Y20759   1.538   6.165  10.162 -0.4673  2.3106  0.6050
  181SLPC   C3520760   1.340   6.220  10.131  0.4214 -1.2474  0.0539
  181SLPC   H5X20761   1.358   6.324  10.167 -0.7325 -0.3228 -1.9131
  181SLPC   H5Y20762   1.236   6.195  10.162 -0.4044  2.0967  0.3396
  181SLPC   C3620763   1.354   6.222   9.982  0.2464  0.2119 -0.2524
  181SLPC   H6X20764   1.261   6.264   9.938 -0.1632  1.3334  1.5655
  181SLPC   H6Y20765   1.371   6.121   9.938 -2.5370  0.3159 -1.8070
  181SLPC   C3720766   1.472   6.306   9.923 -0.2710  0.1575  0.2629
  181SLPC   H7X20767   1.573   6.285   9.966 -0.5837  0.6151  1.2671
  181SLPC   H7Y20768   1.457   6.415   9.941 -2.0782  0.1591 -1.0005
  181SLPC   C3820769   1.469   6.280   9.774  0.4133 -0.1059  0.2135
  181SLPC   H8X20770   1.373   6.325   9.743  0.2211  0.6482  1.7726
  181SLPC   H8Y20771   1.465   6.170   9.755 -0.2371  0.0866 -0.8137
  181SLPC   C3920772   1.578   6.338   9.689  0.1339 -0.5732 -0.1977
  181SLPC   H9X20773   1.671   6.304   9.739  0.3233 -1.0565 -0.8520
  181SLPC   H9Y20774   1.576   6.449   9.683 -1.6464 -0.4314  1.7782
  181SLPC  C31020775   1.577   6.279   9.544  0.1318  0.3472  0.5893
  181SLPC  H10X20776   1.559   6.170   9.540  2.4940 -0.1325  0.9321
  181SLPC  H10Y20777   1.677   6.310   9.506  0.3013 -0.4525  0.3754
  181SLPC  C31120778   1.464   6.336   9.451  0.6553  0.1185 -0.4075
  181SLPC  H11X20779   1.489   6.441   9.427 -0.7890  0.8763  1.2402
  181SLPC  H11Y20780   1.368   6.346   9.506  1.3260 -0.1571  0.8261
  181SLPC  C31220781   1.443   6.256   9.323  0.2205  0.7689  0.1864
  181SLPC  H12X20782   1.343   6.277   9.280 -0.9237 -0.3670  2.1580
  181SLPC  H12Y20783   1.444   6.148   9.346  1.3197  1.2297  2.6292
  181SLPC  C31320784   1.550   6.282   9.222 -0.2937  0.6328 -0.7184
  181SLPC  H13X20785   1.556   6.189   9.161  0.5464  1.3572 -1.7722
  181SLPC  H13Y20786   1.649   6.284   9.272 -0.8683 -0.6766  0.5563
  181SLPC  C31420787   1.532   6.413   9.136  1.1417 -0.2705  1.2337
  181SLPC  H14X20788   1.533   6.499   9.206 -0.9458  0.3573  0.5635
  181SLPC  H14Y20789   1.439   6.409   9.076  2.2565  0.3643 -0.6458
  181SLPC  C31520790   1.652   6.422   9.037 -0.1988  0.4939  0.7172
  181SLPC  H15X20791   1.635   6.350   8.954 -0.9759  1.3835  0.0709
  181SLPC  H15Y20792   1.747   6.410   9.093  0.7314  0.5952 -0.7750
  181SLPC  C31620793   1.648   6.566   8.987 -0.2299  0.3701 -0.5165
  181SLPC  H16X20794   1.657   6.627   9.079  0.0808  1.1799 -1.0687
  181SLPC  H16Y20795   1.554   6.581   8.928 -1.2621 -1.1624  0.6676
  181SLPC  C31720796   1.771   6.612   8.902 -0.2620 -1.0009  0.1111
  181SLPC  H17X20797   1.857   6.596   8.970  0.8195 -2.4225 -1.5141
  181SLPC  H17Y20798   1.765   6.723   8.891 -2.6969 -1.3229 -3.3031
  181SLPC  C31820799   1.803   6.546   8.774 -0.1037  0.3256 -0.3524
  181SLPC  H18X20800   1.891   6.591   8.722  0.3461 -1.9594 -1.6724
  181SLPC  H18Y20801   1.723   6.557   8.698 -1.1913  2.6631  0.9900
  181SLPC  H18Z20802   1.818   6.437   8.784 -2.2626 -0.2936 -2.7445
  182SLPC     N20803   4.067   6.396  10.905  0.7000  0.6507  0.2037
  182SLPC   C1320804   4.038   6.258  10.836  0.3305 -0.1969  0.1401
  182SLPC  H13A20805   4.129   6.226  10.787 -0.2973 -0.4612 -0.8986
  182SLPC  H13B20806   4.009   6.191  10.914 -0.2417 -1.5472 -1.1842
  182SLPC  H13C20807   3.953   6.264  10.768  0.2192  0.5058  0.3345
  182SLPC   C1420808   4.175   6.377  11.006  0.3594 -0.1195  0.3684
  182SLPC  H14A20809   4.210   6.469  11.050 -3.0116  0.7550  1.5264
  182SLPC  H14B20810   4.141   6.320  11.091  0.1805 -0.6088 -0.0246
  182SLPC  H14C20811   4.254   6.322  10.958 -1.3436 -2.0241 -0.4113
  182SLPC   C1520812   3.950   6.438  10.980  0.9533  0.2165 -0.4455
  182SLPC  H15A20813   3.861   6.456  10.921  0.9061  1.9129  0.0965
  182SLPC  H15B20814   3.919   6.356  11.042  0.1846 -0.8428 -2.1549
  182SLPC  H15C20815   3.971   6.530  11.033  1.1058  0.8446 -1.5725
  182SLPC   C1220816   4.100   6.500  10.803 -0.2334 -0.0762 -0.2206
  182SLPC  H12A20817   4.103   6.595  10.853 -0.1215  0.8785 -1.9555
  182SLPC  H12B20818   4.008   6.515  10.747 -1.9017 -1.4505  1.9820
  182SLPC   C1120819   4.220   6.479  10.710  0.4222 -0.1382  0.6788
  182SLPC  H11A20820   4.225   6.570  10.646  0.9317 -0.8433 -0.2924
  182SLPC  H11B20821   4.198   6.392  10.646  1.5934  0.0630 -0.0313
  182SLPC     P20822   4.466   6.521  10.771  0.0495  0.0183  0.0349
  182SLPC   O1320823   4.444   6.652  10.844 -0.4846 -0.5343  0.3417
  182SLPC   O1420824   4.587   6.444  10.812  0.1274 -0.4617  0.2117
  182SLPC   O1220825   4.335   6.432  10.777  0.1271  0.0123  0.5713
  182SLPC   O1120826   4.466   6.538  10.618 -0.1782  0.0838 -0.0161
  182SLPC    C120827   4.492   6.670  10.567  0.0408  0.1061  0.4785
  182SLPC    HA20828   4.411   6.740  10.599 -1.2703 -0.3353 -1.6368
  182SLPC    HB20829   4.585   6.711  10.613 -0.0968 -0.8805  1.6719
  182SLPC    C220830   4.513   6.670  10.414 -0.1837  1.1039 -0.1515
  182SLPC    HS20831   4.613   6.716  10.398  1.2001 -0.9669  1.8991
  182SLPC   O2120832   4.415   6.749  10.350  0.3026  0.0672  0.0845
  182SLPC   C2120833   4.439   6.880  10.350 -0.0861  0.2450  0.4374
  182SLPC   O2220834   4.523   6.933  10.421  0.1932  0.4444 -0.3495
  182SLPC   C2220835   4.356   6.960  10.250  0.2846 -0.3183 -0.0687
  182SLPC   H2R20836   4.249   6.945  10.275 -0.1463  2.3360 -0.0806
  182SLPC   H2S20837   4.382   7.067  10.263 -0.3373 -0.1989  0.2051
  182SLPC    C320838   4.518   6.529  10.354 -0.7250 -0.0221 -0.3725
  182SLPC    HX20839   4.418   6.486  10.380 -0.9821  0.6079 -0.2998
  182SLPC    HY20840   4.595   6.475  10.414 -0.6791 -0.0479 -0.4545
  182SLPC   O3120841   4.543   6.518  10.213 -0.2775 -0.8655  0.1165
  182SLPC   C3120842   4.665   6.543  10.162  0.5841 -0.3617 -0.1743
  182SLPC   O3220843   4.756   6.606  10.215  0.1310 -0.0253 -0.3092
  182SLPC   C3220844   4.671   6.488  10.023 -0.3271  0.0237  0.3873
  182SLPC   H2X20845   4.579   6.504   9.964  0.6481  0.4078 -1.0878
  182SLPC   H2Y20846   4.691   6.380  10.044  2.7691  0.1839 -1.1695
  182SLPC   C2320847   4.367   6.924  10.104 -0.5162  0.2242 -0.4275
  182SLPC   H3R20848   4.268   6.947  10.059 -0.8902 -1.7056 -0.6829
  182SLPC   H3S20849   4.386   6.818  10.077  0.3146  0.9575 -2.9773
  182SLPC   C2420850   4.472   7.008  10.028 -0.3977 -0.6502  1.1183
  182SLPC   H4R20851   4.572   6.979  10.068  0.3894 -0.0453 -0.3274
  182SLPC   H4S20852   4.459   7.115  10.054 -0.9565 -0.6171  0.7027
  182SLPC   C2520853   4.461   6.994   9.878  0.0906 -0.0022  0.4697
  182SLPC   H5R20854   4.357   7.021   9.850 -0.0547 -1.7247 -0.8371
  182SLPC   H5S20855   4.483   6.890   9.847  0.9016 -0.6085  2.8867
  182SLPC   C2620856   4.557   7.089   9.806 -0.3752  0.4328  0.1219
  182SLPC   H6R20857   4.661   7.051   9.809 -0.9963 -1.3428  0.1750
  182SLPC   H6S20858   4.565   7.185   9.861  0.4200  0.1266  0.5629
  182SLPC   C2720859   4.517   7.100   9.662  0.6518 -0.2077  0.1491
  182SLPC   H7R20860   4.409   7.124   9.649  0.8116 -0.2211 -1.3948
  182SLPC   H7S20861   4.538   6.997   9.626  0.0392  0.1765 -1.4066
  182SLPC   C2820862   4.603   7.184   9.567 -0.1865 -0.0832  0.8721
  182SLPC   H8R20863   4.710   7.154   9.565 -1.0629 -3.6212  0.4536
  182SLPC   H8S20864   4.603   7.292   9.592  2.1720  0.6619 -1.7256
  182SLPC   C2920865   4.550   7.178   9.432  1.1263 -0.1715 -0.2583
  182SLPC   H9R20866   4.451   7.225   9.422  1.1923  0.6404  2.1559
  182SLPC  C21020867   4.609   7.136   9.317 -0.4830 -0.4717 -0.3114
  182SLPC  H10R20868   4.554   7.139   9.222  0.6167  0.4438 -0.9478
  182SLPC  C21120869   4.754   7.090   9.310  0.4452 -0.3050 -0.0388
  182SLPC  H11R20870   4.748   6.988   9.267  0.9178 -0.1074 -0.5836
  182SLPC  H11S20871   4.793   7.086   9.414 -0.7771  2.0466  0.5689
  182SLPC  C21220872   4.846   7.173   9.226  0.3361  0.3878  0.6700
  182SLPC  H12R20873   4.915   7.236   9.285  1.0357 -0.0683  0.3601
  182SLPC  C21320874   4.844   7.181   9.092 -0.7196 -0.6085  0.0732
  182SLPC  H13R20875   4.909   7.254   9.042 -1.5378 -0.8541 -1.4038
  182SLPC  C21420876   4.753   7.119   8.986  0.2991 -0.5469  0.2578
  182SLPC  H14R20877   4.676   7.047   9.021  0.7447 -0.5914  1.1741
  182SLPC  H14S20878   4.819   7.063   8.917  1.3927 -2.0750  2.4312
  182SLPC  C21520879   4.680   7.227   8.914  0.0384 -0.0804  0.8178
  182SLPC  H15R20880   4.617   7.178   8.836  2.0927 -0.1126 -0.9386
  182SLPC  H15S20881   4.748   7.304   8.871  1.0655 -1.4271 -0.0836
  182SLPC  C21620882   4.575   7.289   9.000 -0.4469 -0.3001 -0.0233
  182SLPC  H16R20883   4.624   7.325   9.093 -1.9950  1.5115  0.1601
  182SLPC  H16S20884   4.507   7.205   9.026 -1.6484  1.2592  2.4047
  182SLPC  C21720885   4.502   7.406   8.937 -0.5546  1.0466  0.0768
  182SLPC  H17R20886   4.516   7.391   8.827 -2.4398  1.1507 -0.2185
  182SLPC  H17S20887   4.545   7.506   8.958 -0.0330  0.8256  0.0756
  182SLPC  C21820888   4.352   7.411   8.970 -0.5681  0.2099  0.0447
  182SLPC  H18R20889   4.346   7.417   9.081  0.3546 -2.5237  0.3184
  182SLPC  H18S20890   4.297   7.322   8.932  0.3745 -0.0625 -0.7307
  182SLPC  H18T20891   4.291   7.493   8.926 -0.6227  0.0441 -0.1916
  182SLPC   C3320892   4.794   6.545   9.946  0.2283 -0.0993  0.3887
  182SLPC   H3X20893   4.808   6.503   9.843  0.7186  2.3357 -0.5964
  182SLPC   H3Y20894   4.888   6.519   9.999  2.3742  0.9414 -2.6312
  182SLPC   C3420895   4.786   6.696   9.926  0.2303 -0.0747  0.3715
  182SLPC   H4X20896   4.756   6.744  10.022  0.3744 -1.5096  1.1508
  182SLPC   H4Y20897   4.700   6.709   9.857 -0.1559 -0.2516  0.8147
  182SLPC   C3520898   4.918   6.762   9.880  0.4691  0.0611 -0.1613
  182SLPC   H5X20899   4.999   6.708   9.933  1.9078  1.8950 -0.3914
  182SLPC   H5Y20900   4.917   6.867   9.916 -1.7534 -0.7645  2.6015
  182SLPC   C3620901   4.949   6.746   9.731 -0.8705 -0.4567  0.0627
  182SLPC   H6X20902   4.864   6.755   9.661 -0.7699 -2.6381 -0.4046
  182SLPC   H6Y20903   4.982   6.641   9.715  0.3769  0.2522 -2.6876
  182SLPC   C3720904   5.052   6.850   9.681  0.2935 -0.7528 -0.2108
  182SLPC   H7X20905   5.154   6.826   9.718  0.2470 -1.3668 -0.4695
  182SLPC   H7Y20906   5.021   6.945   9.730  1.4337 -1.6039  2.3243
  182SLPC   C3820907   5.054   6.876   9.527  0.1857 -1.4771  0.7639
  182SLPC   H8X20908   4.949   6.899   9.500  0.8310  1.0682  0.0766
  182SLPC   H8Y20909   5.077   6.788   9.463  1.6268 -0.8605  0.3999
  182SLPC   C3920910   5.162   6.975   9.492 -0.3919 -0.0550  0.1482
  182SLPC   H9X20911   5.256   6.932   9.534  0.1246 -0.6425 -1.5038
  182SLPC   H9Y20912   5.149   7.069   9.549  3.4793 -1.6219  4.2061
  182SLPC  C31020913   5.167   7.004   9.345  0.1385 -0.6661  0.3285
  182SLPC  H10X20914   5.072   7.051   9.312 -0.3352 -0.0027  2.4777
  182SLPC  H10Y20915   5.181   6.911   9.286 -0.0187 -0.6948  0.3373
  182SLPC  C31120916   5.288   7.097   9.320 -0.1559 -0.1248 -0.7505
  182SLPC  H11X20917   5.368   7.021   9.328 -0.4306 -0.4245 -0.8511
  182SLPC  H11Y20918   5.292   7.172   9.402 -0.3254 -0.7473 -0.1650
  182SLPC  C31220919   5.301   7.149   9.173  0.4427 -0.6951  0.5921
  182SLPC  H12X20920   5.270   7.072   9.098 -0.2981  0.6568 -0.5350
  182SLPC  H12Y20921   5.409   7.166   9.156  0.5152 -1.2670  0.4581
  182SLPC  C31320922   5.234   7.283   9.130 -0.9553 -0.6051 -0.6978
  182SLPC  H13X20923   5.290   7.349   9.201 -1.4115  0.9373 -1.7239
  182SLPC  H13Y20924   5.125   7.289   9.153 -0.8268 -1.0115  0.0371
  182SLPC  C31420925   5.264   7.334   8.989 -0.2881  0.1259  0.7351
  182SLPC  H14X20926   5.371   7.323   8.962 -0.5526 -0.7908 -0.0110
  182SLPC  H14Y20927   5.222   7.435   8.973 -2.1536 -0.7793 -0.4593
  182SLPC  C31520928   5.192   7.242   8.886  0.1608  0.6329 -0.7903
  182SLPC  H15X20929   5.088   7.233   8.924  0.3707 -0.2291 -0.3986
  182SLPC  H15Y20930   5.238   7.141   8.888  1.1695  1.0723 -0.8737
  182SLPC  C31620931   5.193   7.298   8.739  0.0058  0.7430 -0.6676
  182SLPC  H16X20932   5.288   7.279   8.686  0.8343  0.0044  1.0072
  182SLPC  H16Y20933   5.188   7.407   8.757  0.9205  0.3544  2.7751
  182SLPC  C31720934   5.070   7.256   8.656  0.2838  0.1198 -0.1014
  182SLPC  H17X20935   4.979   7.270   8.718  1.0423 -0.6607  1.2297
  182SLPC  H17Y20936   5.076   7.147   8.640 -0.0972  0.1257 -0.2921
  182SLPC  C31820937   5.053   7.328   8.524 -0.6603 -0.7627 -0.1928
  182SLPC  H18X20938   4.977   7.409   8.530 -0.0908 -0.3035  1.1061
  182SLPC  H18Y20939   5.029   7.259   8.440  1.9988 -0.6419 -1.1596
  182SLPC  H18Z20940   5.151   7.377   8.501 -2.0864  2.1379 -0.6296
  183SLPC     N20941   0.027   1.777  11.118 -1.0029  0.4949  0.8424
  183SLPC   C1320942  -0.113   1.819  11.138  0.1689 -0.1012  0.1619
  183SLPC  H13A20943  -0.165   1.749  11.202  3.7719 -1.4967  1.8376
  183SLPC  H13B20944  -0.126   1.918  11.179  1.7288  0.5912 -0.9294
  183SLPC  H13C20945  -0.164   1.834  11.044 -3.0158 -0.9047  1.6101
  183SLPC   C1420946   0.099   1.782  11.251 -0.0337  0.1885 -0.0933
  183SLPC  H14A20947   0.203   1.756  11.238 -0.5252 -0.6691 -3.0518
  183SLPC  H14B20948   0.101   1.884  11.286  1.1444 -0.3743  1.5699
  183SLPC  H14C20949   0.049   1.724  11.327 -1.1148 -0.3113 -1.1412
  183SLPC   C1520950   0.084   1.871  11.018 -0.4568 -0.3396 -0.3690
  183SLPC  H15A20951   0.096   1.973  11.051  0.4279  0.1592 -2.1025
  183SLPC  H15B20952   0.175   1.826  10.980 -0.7514 -0.6762 -0.6799
  183SLPC  H15C20953   0.019   1.872  10.932 -3.1557  1.1836  1.5568
  183SLPC   C1220954   0.039   1.628  11.077  1.4488 -0.3068  0.2619
  183SLPC  H12A20955  -0.026   1.617  10.991 -0.4976  3.0847  1.1257
  183SLPC  H12B20956   0.010   1.573  11.166  1.8976  0.0765  0.6454
  183SLPC   C1120957   0.188   1.572  11.046  0.2940  0.7926 -0.0352
  183SLPC  H11A20958   0.169   1.462  11.049 -0.1215  0.8421 -0.5318
  183SLPC  H11B20959   0.256   1.601  11.129 -0.5945  0.3531  0.8709
  183SLPC     P20960   0.336   1.551  10.829  0.0386 -0.1678 -0.4272
  183SLPC   O1320961   0.460   1.630  10.845  0.4720 -0.0689  0.5597
  183SLPC   O1420962   0.355   1.407  10.857  0.0162 -0.2032  0.0484
  183SLPC   O1220963   0.219   1.623  10.914 -0.1287 -0.5478 -0.3810
  183SLPC   O1120964   0.292   1.563  10.682 -0.2317 -0.0786 -0.3125
  183SLPC    C120965   0.256   1.695  10.636  0.3557 -0.0765  0.2266
  183SLPC    HA20966   0.333   1.770  10.663  2.3307 -0.8384 -2.8474
  183SLPC    HB20967   0.270   1.685  10.526  1.5881  2.6681  0.0647
  183SLPC    C220968   0.103   1.729  10.653 -1.1056  1.1044  0.2098
  183SLPC    HS20969   0.101   1.747  10.763  1.1255  0.8871  0.3380
  183SLPC   O2120970   0.034   1.602  10.612  0.2669 -0.2902 -0.1166
  183SLPC   C2120971  -0.093   1.598  10.657  0.2307  0.1599 -0.3089
  183SLPC   O2220972  -0.131   1.664  10.753 -0.2439 -0.5058  0.1300
  183SLPC   C2220973  -0.176   1.496  10.582  1.0725 -0.1408  0.3199
  183SLPC   H2R20974  -0.212   1.539  10.486 -0.8209  0.0201  1.0637
  183SLPC   H2S20975  -0.113   1.408  10.559 -1.4165 -1.1453 -3.5164
  183SLPC    C320976   0.054   1.861  10.587 -0.0126 -1.0184  0.3174
  183SLPC    HX20977   0.124   1.939  10.623 -2.0988  0.0046  2.4615
  183SLPC    HY20978  -0.046   1.893  10.623 -0.2358 -0.4532 -0.7733
  183SLPC   O3120979   0.074   1.858  10.445 -0.3242  0.1710 -0.1936
  183SLPC   C3120980  -0.029   1.811  10.377  0.0006 -0.0289 -0.5455
  183SLPC   O3220981  -0.134   1.785  10.428  0.5270  0.4947 -0.1511
  183SLPC   C3220982   0.008   1.788  10.230  0.0752  0.3867 -0.3646
  183SLPC   H2X20983   0.089   1.713  10.222  1.2341  1.3236  1.6260
  183SLPC   H2Y20984   0.049   1.883  10.191 -1.5052  1.2509 -0.0171
  183SLPC   C2320985  -0.301   1.450  10.660 -0.4131 -0.0455  0.1187
  183SLPC   H3R20986  -0.379   1.528  10.675 -0.7232  0.3734 -3.0739
  183SLPC   H3S20987  -0.274   1.399  10.756  2.4965  0.2542 -0.4389
  183SLPC   C2420988  -0.385   1.348  10.575 -0.5850 -0.0228  0.5507
  183SLPC   H4R20989  -0.320   1.258  10.583  1.7759  1.6172  0.8669
  183SLPC   H4S20990  -0.392   1.394  10.474 -0.0060  0.8417  0.8941
  183SLPC   C2520991  -0.529   1.342  10.623  0.1576 -0.3584 -0.1563
  183SLPC   H5R20992  -0.590   1.413  10.564 -0.3402 -0.4623  0.2315
  183SLPC   H5S20993  -0.542   1.366  10.731  2.2999  0.3634  0.0020
  183SLPC   C2620994  -0.601   1.217  10.586 -0.4596  0.1591  0.0894
  183SLPC   H6R20995  -0.569   1.176  10.487 -0.0697 -0.5707  0.5082
  183SLPC   H6S20996  -0.710   1.227  10.600 -0.5062  0.0089 -0.1554
  183SLPC   C2720997  -0.546   1.095  10.669  0.3426  0.4572  0.3154
  183SLPC   H7R20998  -0.554   1.109  10.779  1.9145 -1.7571  0.7950
  183SLPC   H7S20999  -0.436   1.089  10.656  0.2529 -0.3795 -0.1266
  183SLPC   C2821000  -0.601   0.955  10.626 -0.1887 -0.2755 -0.1258
  183SLPC   H8R21001  -0.551   0.881  10.691 -0.5922 -0.1549  0.3259
  183SLPC   H8S21002  -0.576   0.923  10.522 -1.5866  2.3641 -1.3929
  183SLPC   C2921003  -0.751   0.943  10.648  0.7640  0.6777 -0.6006
  183SLPC   H9R21004  -0.796   0.987  10.739  0.2318 -0.3926 -0.3157
  183SLPC  C21021005  -0.846   0.905  10.558  0.3061  0.1426 -0.1340
  183SLPC  H10R21006  -0.947   0.894  10.601 -0.0604  0.3885 -0.9159
  183SLPC  C21121007  -0.824   0.857  10.417 -0.1593 -0.0747  0.4880
  183SLPC  H11R21008  -0.765   0.931  10.359 -0.3724 -1.3308 -1.3988
  183SLPC  H11S21009  -0.924   0.842  10.372  1.3257  0.4644 -3.2917
  183SLPC  C21221010  -0.750   0.725  10.414  0.6339  0.0966 -0.7828
  183SLPC  H12R21011  -0.740   0.669  10.508  0.3153 -1.5782 -1.6914
  183SLPC  C21321012  -0.716   0.654  10.311 -0.1554  0.1544 -0.0563
  183SLPC  H13R21013  -0.689   0.548  10.324 -0.2370 -0.3206 -3.0650
  183SLPC  C21421014  -0.729   0.692  10.170  0.2535  0.4798 -0.0603
  183SLPC  H14R21015  -0.627   0.662  10.140  0.8889 -2.2461  3.9647
  183SLPC  H14S21016  -0.740   0.802  10.159  2.1308  0.6816 -0.2441
  183SLPC  C21521017  -0.827   0.606  10.088  0.8902 -0.2286 -0.4931
  183SLPC  H15R21018  -0.926   0.604  10.139  1.2817 -0.9614  0.2785
  183SLPC  H15S21019  -0.786   0.503  10.087  0.6262 -0.3424 -0.0371
  183SLPC  C21621020  -0.842   0.647   9.937 -0.2835  0.1298  0.2658
  183SLPC  H16R21021  -0.885   0.747   9.914 -0.6841 -0.1612 -0.2898
  183SLPC  H16S21022  -0.906   0.569   9.890  1.4856 -0.6355 -0.9855
  183SLPC  C21721023  -0.702   0.642   9.868 -1.4580  0.0266  0.2645
  183SLPC  H17R21024  -0.639   0.729   9.897 -0.1794 -0.3603 -1.2355
  183SLPC  H17S21025  -0.728   0.667   9.762  0.4445  1.0149 -0.0241
  183SLPC  C21821026  -0.625   0.506   9.871  0.8971  0.6717 -0.2982
  183SLPC  H18R21027  -0.522   0.503   9.832  0.5757 -1.9353 -1.1341
  183SLPC  H18S21028  -0.674   0.423   9.815 -0.2441  0.3943  1.0369
  183SLPC  H18T21029  -0.602   0.484   9.978 -0.9098  1.0703  0.2029
  183SLPC   C3321030  -0.105   1.736  10.137 -0.1743  0.2760  0.7448
  183SLPC   H3X21031  -0.158   1.830  10.110 -0.6546 -0.0588  0.5150
  183SLPC   H3Y21032  -0.176   1.666  10.186  0.1712 -2.1062 -1.9601
  183SLPC   C3421033  -0.055   1.669  10.014  0.2851  0.2696  0.5289
  183SLPC   H4X21034  -0.137   1.616   9.960  0.9248  2.2258 -2.6903
  183SLPC   H4Y21035   0.014   1.585  10.036  1.0432  1.1350  1.5574
  183SLPC   C3521036  -0.010   1.770   9.913  0.3739  0.0685 -0.4274
  183SLPC   H5X21037   0.088   1.810   9.946 -0.1962  0.2845  1.0605
  183SLPC   H5Y21038  -0.082   1.853   9.899  0.9696  0.5885 -0.4439
  183SLPC   C3621039   0.018   1.709   9.777 -0.0192 -0.2444  1.0966
  183SLPC   H6X21040  -0.075   1.653   9.754  0.0670  0.1239 -0.2007
  183SLPC   H6Y21041   0.101   1.637   9.791 -0.2139 -0.2606  2.3210
  183SLPC   C3721042   0.057   1.815   9.670 -0.2988 -0.9887  0.9469
  183SLPC   H7X21043   0.160   1.854   9.687 -0.7100 -0.1310  1.5109
  183SLPC   H7Y21044  -0.013   1.900   9.677  2.0559  1.5543 -2.5921
  183SLPC   C3821045   0.050   1.757   9.532 -0.2047  0.3282  1.0087
  183SLPC   H8X21046  -0.055   1.738   9.502 -0.8255  2.5464  1.5493
  183SLPC   H8Y21047   0.116   1.669   9.519  0.1536  0.9341 -2.4511
  183SLPC   C3921048   0.094   1.854   9.428 -0.2501 -0.5717  0.3128
  183SLPC   H9X21049   0.197   1.882   9.459  0.3813 -0.6219 -1.5991
  183SLPC   H9Y21050   0.024   1.940   9.426 -0.0044 -0.3741  0.0881
  183SLPC  C31021051   0.092   1.793   9.290  0.0727  0.8203 -0.2417
  183SLPC  H10X21052   0.002   1.824   9.233  0.9839  2.4559 -0.8760
  183SLPC  H10Y21053   0.100   1.683   9.304  1.2400  1.1022  1.6502
  183SLPC  C31121054   0.209   1.829   9.200  0.4818  0.6044 -0.5770
  183SLPC  H11X21055   0.303   1.809   9.257 -0.9347 -2.1789  0.9506
  183SLPC  H11Y21056   0.205   1.938   9.178 -0.3964  0.6335 -0.3032
  183SLPC  C31221057   0.217   1.753   9.070  0.2324 -0.4916  1.0170
  183SLPC  H12X21058   0.256   1.651   9.090 -0.0093 -1.1904 -1.6815
  183SLPC  H12Y21059   0.293   1.805   9.009  0.6603 -0.4420  1.5870
  183SLPC  C31321060   0.084   1.742   8.989  0.1953 -0.0034  0.1378
  183SLPC  H13X21061   0.049   1.847   8.978  2.0909  0.6424 -0.1931
  183SLPC  H13Y21062   0.010   1.690   9.053  1.9703 -0.9433  1.5317
  183SLPC  C31421063   0.096   1.685   8.846 -0.1783 -0.8201 -0.2144
  183SLPC  H14X21064   0.141   1.584   8.850  1.1405 -0.2142  2.5607
  183SLPC  H14Y21065   0.171   1.748   8.794 -0.6136  1.0440  1.2847
  183SLPC  C31521066  -0.038   1.700   8.774 -0.1777  0.3559  0.3561
  183SLPC  H15X21067  -0.047   1.809   8.752  1.2463  0.0752 -1.9336
  183SLPC  H15Y21068  -0.125   1.677   8.839 -0.4358  1.1029  0.2930
  183SLPC  C31621069  -0.074   1.615   8.648  0.2892  0.3785 -0.0736
  183SLPC  H16X21070  -0.175   1.651   8.619 -0.0975 -0.9342 -0.4260
  183SLPC  H16Y21071  -0.083   1.506   8.669 -1.1952  0.3636 -0.6425
  183SLPC  C31721072   0.028   1.639   8.544 -0.3797 -0.2020 -0.1934
  183SLPC  H17X21073   0.124   1.584   8.550  0.6362  0.9956 -3.4922
  183SLPC  H17Y21074   0.059   1.746   8.536  3.0899 -1.0335  0.3034
  183SLPC  C31821075  -0.036   1.594   8.416  0.4048  0.7009  0.3947
  183SLPC  H18X21076  -0.131   1.648   8.394  1.4264  1.2836 -3.1963
  183SLPC  H18Y21077  -0.066   1.487   8.424 -0.4254  1.0385  2.6391
  183SLPC  H18Z21078   0.033   1.608   8.330 -0.8172 -1.1701 -0.9731
  184SLPC     N21079   5.171   4.638  10.704  0.1830  0.0302  0.1638
  184SLPC   C1321080   5.031   4.592  10.703  0.8400 -0.0898 -0.7089
  184SLPC  H13A21081   5.022   4.501  10.761 -0.1839  0.1334 -0.4935
  184SLPC  H13B21082   4.967   4.669  10.745 -2.3889 -2.6157 -0.5785
  184SLPC  H13C21083   4.999   4.572  10.602 -0.5882  0.0512 -0.3097
  184SLPC   C1421084   5.257   4.512  10.693  0.3528  0.3870 -0.8152
  184SLPC  H14A21085   5.249   4.430  10.763 -0.4280 -1.7618 -3.2412
  184SLPC  H14B21086   5.241   4.466  10.597 -1.3814  3.7348 -2.2926
  184SLPC  H14C21087   5.360   4.543  10.694  0.5164 -0.1171 -1.4951
  184SLPC   C1521088   5.207   4.702  10.836 -0.3725 -0.0653 -0.0435
  184SLPC  H15A21089   5.151   4.664  10.920 -0.5321  0.2274 -0.0135
  184SLPC  H15B21090   5.313   4.719  10.850 -0.3360 -1.2313  1.2934
  184SLPC  H15C21091   5.169   4.803  10.824  2.3104  0.8519 -1.9635
  184SLPC   C1221092   5.209   4.736  10.590  0.0167 -0.0262 -0.6130
  184SLPC  H12A21093   5.139   4.818  10.595 -1.4139 -1.2432  0.2933
  184SLPC  H12B21094   5.182   4.677  10.503 -0.0923 -1.5636  0.4161
  184SLPC   C1121095   5.343   4.802  10.582 -0.3962 -0.4225 -0.4664
  184SLPC  H11A21096   5.378   4.802  10.477 -0.5438 -0.5995 -0.5165
  184SLPC  H11B21097   5.411   4.732  10.635  0.8005 -1.6166 -3.4069
  184SLPC     P21098   5.410   5.056  10.580 -0.2729 -0.6786  0.0632
  184SLPC   O1321099   5.357   5.180  10.631  0.1133 -0.6059 -0.0212
  184SLPC   O1421100   5.551   5.029  10.596 -0.0693 -0.3031 -0.2440
  184SLPC   O1221101   5.333   4.931  10.647  0.1214  1.2979 -0.2266
  184SLPC   O1121102   5.366   5.049  10.426 -0.0210 -0.7070  0.6849
  184SLPC    C121103   5.229   5.086  10.381  0.3799  0.3617 -0.5083
  184SLPC    HA21104   5.153   5.015  10.423  1.8614 -1.4062 -0.6734
  184SLPC    HB21105   5.192   5.183  10.421  0.1340 -0.3743  1.1459
  184SLPC    C221106   5.226   5.104  10.230 -0.2093 -0.0356 -0.0105
  184SLPC    HS21107   5.134   5.151  10.188 -0.4713 -1.6560 -1.3671
  184SLPC   O2121108   5.248   4.978  10.161 -0.8357  0.2547  0.2925
  184SLPC   C2121109   5.133   4.911  10.154 -0.4867  0.0995 -0.4266
  184SLPC   O2221110   5.022   4.951  10.176  0.8464  0.5477  0.0539
  184SLPC   C2221111   5.154   4.771  10.092  0.5890 -0.0098  0.1484
  184SLPC   H2R21112   5.213   4.709  10.162 -1.3019 -0.1923  1.6726
  184SLPC   H2S21113   5.049   4.734  10.080  1.2531 -1.5359 -1.3040
  184SLPC    C321114   5.336   5.207  10.185  0.2736  0.2169 -0.0222
  184SLPC    HX21115   5.436   5.168  10.214  0.3232  0.3890  0.0407
  184SLPC    HY21116   5.306   5.302  10.234 -2.1673 -0.3503 -0.2902
  184SLPC   O3121117   5.333   5.224  10.044  0.1784 -0.2973 -0.0243
  184SLPC   C3121118   5.435   5.179   9.973  0.1428  0.0765 -0.0659
  184SLPC   O3221119   5.528   5.112  10.019 -0.4220 -0.1773 -0.0254
  184SLPC   C3221120   5.419   5.223   9.827 -1.2641 -0.0228 -0.2444
  184SLPC   H2X21121   5.424   5.334   9.838  1.2242  0.0388 -1.3670
  184SLPC   H2Y21122   5.315   5.198   9.796 -1.2059  1.3118 -1.6387
  184SLPC   C2321123   5.235   4.786   9.953  0.0265  0.0366  0.2065
  184SLPC   H3R21124   5.246   4.686   9.906 -0.1219  1.0377 -2.0683
  184SLPC   H3S21125   5.339   4.826   9.960  0.3233 -0.7771  0.6676
  184SLPC   C2421126   5.156   4.877   9.855 -0.0453 -0.1622 -0.3678
  184SLPC   H4R21127   5.186   4.981   9.879  1.1431  0.0774 -2.6382
  184SLPC   H4S21128   5.049   4.865   9.883 -0.0252 -0.4659 -0.4216
  184SLPC   C2521129   5.170   4.842   9.712  0.6764  0.0462 -0.0977
  184SLPC   H5R21130   5.102   4.899   9.646  0.8009 -0.3056 -0.5320
  184SLPC   H5S21131   5.140   4.735   9.712 -0.8440  0.4318  0.5172
  184SLPC   C2621132   5.306   4.869   9.650  0.1750  0.4050 -0.0720
  184SLPC   H6R21133   5.393   4.826   9.704  0.0300 -2.6535 -2.0413
  184SLPC   H6S21134   5.318   4.979   9.655 -0.3640  0.8323 -4.3028
  184SLPC   C2721135   5.318   4.827   9.501  0.5153 -0.1433  0.0804
  184SLPC   H7R21136   5.414   4.864   9.458  0.6018  0.3559  0.6872
  184SLPC   H7S21137   5.236   4.872   9.440  3.0546  1.8141 -2.1378
  184SLPC   C2821138   5.322   4.673   9.494 -0.2114  0.4080  0.1204
  184SLPC   H8R21139   5.239   4.627   9.551 -0.5598 -1.2425 -1.6201
  184SLPC   H8S21140   5.416   4.641   9.544  1.7263 -0.8852 -3.9060
  184SLPC   C2921141   5.326   4.618   9.351 -0.5144 -0.0992  0.6640
  184SLPC   H9R21142   5.424   4.591   9.308 -0.8925 -2.5116  1.1312
  184SLPC  C21021143   5.213   4.596   9.274 -0.1578  0.1632 -1.0891
  184SLPC  H10R21144   5.226   4.557   9.172 -1.4371 -1.0259 -0.8163
  184SLPC  C21121145   5.068   4.630   9.315  0.4612 -0.2752  0.4851
  184SLPC  H11R21146   5.033   4.694   9.231 -1.0452 -0.8990  0.5980
  184SLPC  H11S21147   5.076   4.683   9.413  3.1556 -1.1891  0.8314
  184SLPC  C21221148   4.982   4.504   9.333 -0.1618 -0.3601 -0.3235
  184SLPC  H12R21149   4.998   4.444   9.424  1.9972  0.0515 -0.3742
  184SLPC  C21321150   4.888   4.463   9.247  0.0925 -0.6875 -0.3210
  184SLPC  H13R21151   4.834   4.370   9.269  2.1255 -1.4951  1.6946
  184SLPC  C21421152   4.834   4.512   9.114  0.7189 -1.1283 -0.5298
  184SLPC  H14R21153   4.911   4.574   9.063 -0.1785  0.0919 -0.4191
  184SLPC  H14S21154   4.739   4.567   9.125  0.6800 -1.7225  4.4300
  184SLPC  C21521155   4.804   4.402   9.013  0.1532 -0.0078 -0.2874
  184SLPC  H15R21156   4.890   4.333   8.997  0.0123  0.2721 -2.7215
  184SLPC  H15S21157   4.802   4.451   8.913 -2.2759 -1.0398 -0.8194
  184SLPC  C21621158   4.683   4.302   9.034  0.3173 -0.1144 -0.3322
  184SLPC  H16R21159   4.591   4.364   9.043  0.5389  0.0894  0.7710
  184SLPC  H16S21160   4.697   4.239   9.125  0.2885 -0.4076 -0.5297
  184SLPC  C21721161   4.647   4.200   8.929 -0.3195 -0.0118  0.1858
  184SLPC  H17R21162   4.545   4.164   8.953  0.2414 -1.2186  0.7974
  184SLPC  H17S21163   4.734   4.132   8.939 -0.4296  0.0230  1.4473
  184SLPC  C21821164   4.644   4.246   8.782 -0.2714  0.1083 -0.2754
  184SLPC  H18R21165   4.614   4.159   8.719 -0.0319  0.3258 -0.6976
  184SLPC  H18S21166   4.745   4.281   8.753  0.0508 -0.4394  0.1538
  184SLPC  H18T21167   4.566   4.323   8.766 -1.2499  0.6227  5.0749
  184SLPC   C3321168   5.522   5.165   9.726 -0.4994 -0.8773  0.1625
  184SLPC   H3X21169   5.509   5.055   9.724  1.1671 -1.1092 -0.3513
  184SLPC   H3Y21170   5.631   5.184   9.742 -0.7695  2.3581 -1.0817
  184SLPC   C3421171   5.496   5.211   9.575  0.2984 -0.3938  0.3412
  184SLPC   H4X21172   5.517   5.320   9.564  0.6542 -0.4547  0.4044
  184SLPC   H4Y21173   5.390   5.186   9.554 -0.0060  1.8389 -1.1356
  184SLPC   C3521174   5.578   5.125   9.482  0.2336  0.9570 -0.1712
  184SLPC   H5X21175   5.570   5.015   9.497  1.0258  1.1856  2.3482
  184SLPC   H5Y21176   5.686   5.141   9.499  0.0804  0.0519  2.0256
  184SLPC   C3621177   5.561   5.152   9.333  0.5693 -0.9686  0.3966
  184SLPC   H6X21178   5.586   5.259   9.319  3.1942 -1.6155 -0.2878
  184SLPC   H6Y21179   5.454   5.129   9.310  1.5227 -3.6879 -1.8661
  184SLPC   C3721180   5.660   5.074   9.242 -0.2056 -0.5778 -0.0056
  184SLPC   H7X21181   5.627   4.968   9.238  0.3227 -0.7935  0.9276
  184SLPC   H7Y21182   5.757   5.094   9.294  0.3137  0.9440 -1.4719
  184SLPC   C3821183   5.683   5.123   9.096  0.1721 -0.7414  0.6175
  184SLPC   H8X21184   5.682   5.234   9.081  4.4891 -0.8682 -2.6311
  184SLPC   H8Y21185   5.594   5.078   9.046 -0.5320  0.6580  0.5593
  184SLPC   C3921186   5.801   5.059   9.028 -0.6604  0.2878 -0.2291
  184SLPC   H9X21187   5.809   4.951   9.051  0.6333  0.4035 -0.0436
  184SLPC   H9Y21188   5.896   5.100   9.068 -1.6518  1.4484  1.0311
  184SLPC  C31021189   5.806   5.081   8.875 -0.3544 -0.4545 -0.1588
  184SLPC  H10X21190   5.817   5.187   8.844  0.5507 -0.2830  0.6963
  184SLPC  H10Y21191   5.714   5.028   8.842 -2.4439  1.0613  2.8067
  184SLPC  C31121192   5.926   5.004   8.818  0.8497 -0.5546 -0.0957
  184SLPC  H11X21193   5.926   4.900   8.857  2.6063 -0.2120  0.9227
  184SLPC  H11Y21194   6.020   5.059   8.837  0.7427  0.0661 -1.2776
  184SLPC  C31221195   5.906   4.995   8.664 -1.2923 -0.4113  0.0576
  184SLPC  H12X21196   5.801   4.962   8.649 -0.9810 -0.6337 -1.9247
  184SLPC  H12Y21197   5.959   4.913   8.611 -0.1695  0.1679  0.2521
  184SLPC  C31321198   5.925   5.122   8.577 -0.2832  0.4320 -0.0228
  184SLPC  H13X21199   5.866   5.206   8.620  0.0583  0.4688  0.3792
  184SLPC  H13Y21200   5.888   5.101   8.475 -1.2627 -2.1748  0.7771
  184SLPC  C31421201   6.069   5.171   8.567  0.3702 -0.5328 -0.4826
  184SLPC  H14X21202   6.134   5.091   8.525 -0.3105 -1.6356  0.5238
  184SLPC  H14Y21203   6.116   5.198   8.664  1.5957 -2.3274 -0.5145
  184SLPC  C31521204   6.081   5.290   8.473  0.4336 -0.4890  0.7753
  184SLPC  H15X21205   6.027   5.282   8.377  0.6832  2.6168  0.2954
  184SLPC  H15Y21206   6.183   5.287   8.428  0.4531 -1.5237  0.8570
  184SLPC  C31621207   6.055   5.430   8.528  0.2853 -0.1304 -0.0531
  184SLPC  H16X21208   6.121   5.447   8.615 -0.9056  0.3255  0.7748
  184SLPC  H16Y21209   5.947   5.439   8.553 -0.3408 -0.8147 -2.2175
  184SLPC  C31721210   6.080   5.545   8.435 -0.2870  0.2003  0.0992
  184SLPC  H17X21211   6.011   5.521   8.351 -0.9474 -0.9841  0.9648
  184SLPC  H17Y21212   6.186   5.552   8.402 -1.0663  0.0176 -2.7284
  184SLPC  C31821213   6.041   5.677   8.491 -0.3208 -0.1956  0.0269
  184SLPC  H18X21214   6.119   5.706   8.565 -0.6204  0.7575 -0.0184
  184SLPC  H18Y21215   5.946   5.656   8.545 -0.0207 -1.8925 -0.0713
  184SLPC  H18Z21216   6.031   5.756   8.414 -1.4568 -1.8601 -1.5782
  185SLPC     N21217   5.596   1.125   5.838  0.1209 -0.3841 -0.1668
  185SLPC   C1321218   5.506   1.005   5.817 -0.4127  0.1738  0.4977
  185SLPC  H13A21219   5.526   0.972   5.716  1.8928  0.3146  0.8401
  185SLPC  H13B21220   5.544   0.929   5.884 -0.1549 -0.7222 -0.6305
  185SLPC  H13C21221   5.400   1.022   5.826 -0.7098  0.7434 -2.7522
  185SLPC   C1421222   5.551   1.242   5.754 -0.8352 -0.4679  0.4519
  185SLPC  H14A21223   5.563   1.217   5.650 -1.3944 -0.9928  0.5119
  185SLPC  H14B21224   5.446   1.264   5.773 -0.2741  1.5540  1.4882
  185SLPC  H14C21225   5.611   1.332   5.764  1.1311 -1.7202  0.3044
  185SLPC   C1521226   5.738   1.090   5.801  0.5893 -0.4301  0.0615
  185SLPC  H15A21227   5.801   1.179   5.802  1.5367 -1.0857  0.5783
  185SLPC  H15B21228   5.782   1.018   5.869 -1.6022 -1.3724  0.5464
  185SLPC  H15C21229   5.742   1.042   5.705 -0.7430  1.4199 -0.9971
  185SLPC   C1221230   5.596   1.181   5.979  0.0217 -0.6083  0.2525
  185SLPC  H12A21231   5.491   1.195   5.997  0.0184  1.2379 -0.9352
  185SLPC  H12B21232   5.653   1.273   5.981  1.8912 -1.6925 -0.2782
  185SLPC   C1121233   5.657   1.092   6.091  0.0642 -0.0376  0.4775
  185SLPC  H11A21234   5.644   1.153   6.184  2.3774  2.2133 -0.5409
  185SLPC  H11B21235   5.768   1.084   6.084 -0.0765 -1.4882 -0.5256
  185SLPC     P21236   5.475   0.929   6.172 -0.0888 -0.2164 -0.2811
  185SLPC   O1321237   5.370   1.028   6.128 -0.0412 -0.0295  0.4759
  185SLPC   O1421238   5.437   0.788   6.167  0.2271 -0.3885 -0.2675
  185SLPC   O1221239   5.611   0.961   6.096  0.4373 -0.8007 -0.1833
  185SLPC   O1121240   5.521   0.975   6.325  0.3404  0.1684 -0.4964
  185SLPC    C121241   5.577   0.865   6.406  0.5039  0.5384 -0.4661
  185SLPC    HA21242   5.504   0.782   6.417  0.3729  0.9107  2.1559
  185SLPC    HB21243   5.668   0.828   6.355 -0.6343  1.2442 -3.2396
  185SLPC    C221244   5.603   0.895   6.556  0.0692 -0.3671 -0.2633
  185SLPC    HS21245   5.653   0.994   6.562  0.8956 -0.6387 -1.9765
  185SLPC   O2121246   5.681   0.785   6.605 -0.2455 -0.1981  0.7135
  185SLPC   C2121247   5.772   0.810   6.685 -0.2160  0.5825 -0.3711
  185SLPC   O2221248   5.812   0.920   6.727 -0.3773 -0.1133  0.0186
  185SLPC   C2221249   5.834   0.683   6.734  0.0655 -0.1168 -0.5520
  185SLPC   H2R21250   5.872   0.630   6.644 -0.8668  0.2749 -1.1927
  185SLPC   H2S21251   5.919   0.703   6.802 -1.1055 -0.6267  1.1524
  185SLPC    C321252   5.469   0.912   6.637 -0.6421  0.3781  0.0251
  185SLPC    HX21253   5.393   0.832   6.627  0.5716 -0.9329  0.9833
  185SLPC    HY21254   5.414   1.003   6.604 -0.0122 -0.1710 -2.7414
  185SLPC   O3121255   5.499   0.906   6.777 -0.3134  0.1767 -0.3698
  185SLPC   C3121256   5.544   1.014   6.841  0.6178 -0.3263 -0.2795
  185SLPC   O3221257   5.543   1.126   6.803  0.7538 -0.4152  0.2009
  185SLPC   C3221258   5.598   0.967   6.974 -0.8063 -0.1587  0.0872
  185SLPC   H2X21259   5.695   1.014   7.001  0.0147 -1.6482 -0.1053
  185SLPC   H2Y21260   5.628   0.860   6.984  0.8068  0.3389  0.9341
  185SLPC   C2321261   5.729   0.598   6.803 -0.2627  0.4903 -0.9994
  185SLPC   H3R21262   5.647   0.564   6.736 -1.4554  0.6100  0.3519
  185SLPC   H3S21263   5.687   0.668   6.878 -0.4388 -1.7936  1.1858
  185SLPC   C2421264   5.787   0.473   6.871 -0.1558 -0.2867  0.2613
  185SLPC   H4R21265   5.865   0.524   6.931 -1.1572  0.8370  0.6502
  185SLPC   H4S21266   5.825   0.404   6.794 -1.0081 -2.3272  1.5828
  185SLPC   C2521267   5.678   0.398   6.946  0.4830  0.1716 -0.3226
  185SLPC   H5R21268   5.686   0.290   6.971 -2.0033  0.4928  2.3916
  185SLPC   H5S21269   5.592   0.406   6.877 -0.1490  2.3141  0.6370
  185SLPC   C2621270   5.634   0.465   7.081 -0.3443  0.0297  0.8098
  185SLPC   H6R21271   5.525   0.453   7.099 -0.0891 -1.7308  1.4070
  185SLPC   H6S21272   5.648   0.575   7.069 -0.0446 -0.0042  0.8468
  185SLPC   C2721273   5.702   0.421   7.204 -0.3880  0.0754 -0.0581
  185SLPC   H7R21274   5.811   0.437   7.190 -0.2941 -1.6708 -1.6658
  185SLPC   H7S21275   5.692   0.311   7.213 -0.1461  0.0327 -0.2985
  185SLPC   C2821276   5.657   0.493   7.339 -0.2168  0.4311  0.2240
  185SLPC   H8R21277   5.632   0.595   7.303 -0.2591  0.2449 -0.2944
  185SLPC   H8S21278   5.734   0.495   7.418 -1.2163  1.9034  1.2171
  185SLPC   C2921279   5.523   0.443   7.383  0.7419 -0.0867 -0.3569
  185SLPC   H9R21280   5.447   0.440   7.304  2.0126 -1.6366 -1.5678
  185SLPC  C21021281   5.492   0.407   7.512  0.4388 -0.8406 -0.2823
  185SLPC  H10R21282   5.388   0.380   7.539 -0.6889  0.7080 -2.6943
  185SLPC  C21121283   5.586   0.408   7.632  0.2308 -0.0723  0.6227
  185SLPC  H11R21284   5.679   0.351   7.614 -0.0327  0.5089 -3.5733
  185SLPC  H11S21285   5.529   0.360   7.715 -0.6192  1.8615  1.2296
  185SLPC  C21221286   5.629   0.555   7.667  0.4298  0.3376 -0.7483
  185SLPC  H12R21287   5.660   0.621   7.585  0.2632  2.0373  0.5229
  185SLPC  C21321288   5.632   0.616   7.789  0.0882 -0.0989  0.6832
  185SLPC  H13R21289   5.689   0.711   7.791  0.4257 -0.2577 -0.4648
  185SLPC  C21421290   5.585   0.563   7.925  1.2945  0.7094  0.5136
  185SLPC  H14R21291   5.646   0.473   7.948 -0.2790  0.0990  2.6080
  185SLPC  H14S21292   5.482   0.523   7.910  1.3295  1.1236 -1.0435
  185SLPC  C21521293   5.591   0.659   8.044  0.0382 -0.5784  0.1523
  185SLPC  H15R21294   5.533   0.748   8.008  1.5544  0.8489  1.1201
  185SLPC  H15S21295   5.694   0.699   8.053  0.3212 -0.7832 -1.7843
  185SLPC  C21621296   5.526   0.600   8.169 -0.0222  0.2750 -0.3803
  185SLPC  H16R21297   5.606   0.537   8.214  1.2402  1.2298 -1.2154
  185SLPC  H16S21298   5.432   0.545   8.148  0.1812 -0.1652 -0.1482
  185SLPC  C21721299   5.490   0.716   8.267  0.2202  0.6649 -0.3913
  185SLPC  H17R21300   5.406   0.772   8.220  1.0349 -0.5666 -3.6239
  185SLPC  H17S21301   5.574   0.789   8.270  1.6400 -0.9237  0.0922
  185SLPC  C21821302   5.459   0.680   8.413  0.4248 -0.7692 -0.3947
  185SLPC  H18R21303   5.427   0.769   8.470  1.6644  0.0287 -0.9010
  185SLPC  H18S21304   5.548   0.644   8.469 -0.1451  0.6071  1.4822
  185SLPC  H18T21305   5.380   0.603   8.424 -0.4445 -0.0433 -1.4086
  185SLPC   C3321306   5.495   0.996   7.084  0.0426  0.7816  0.3332
  185SLPC   H3X21307   5.459   1.101   7.072 -2.0064  0.1303  0.3937
  185SLPC   H3Y21308   5.534   1.001   7.188 -0.6990 -2.2041  0.8318
  185SLPC   C3421309   5.369   0.906   7.064 -0.6063  0.2879 -1.1857
  185SLPC   H4X21310   5.401   0.802   7.044  0.4328 -0.0593  1.8408
  185SLPC   H4Y21311   5.316   0.939   6.972  1.7106  0.7916 -2.4043
  185SLPC   C3521312   5.258   0.924   7.172 -0.8804  0.8915 -0.3628
  185SLPC   H5X21313   5.183   0.845   7.151 -0.4584  0.1316  0.9018
  185SLPC   H5Y21314   5.203   1.020   7.159 -0.8210  1.0423  0.4464
  185SLPC   C3621315   5.300   0.921   7.314  0.2266  0.0933 -0.3450
  185SLPC   H6X21316   5.209   0.937   7.375  0.5289 -2.0350  0.7857
  185SLPC   H6Y21317   5.375   1.001   7.334  0.3863 -0.5393  1.9223
  185SLPC   C3721318   5.354   0.790   7.361 -0.2300 -0.0951  0.7138
  185SLPC   H7X21319   5.462   0.772   7.345 -0.8614 -3.9677 -0.2849
  185SLPC   H7Y21320   5.308   0.707   7.303  0.7033 -0.8947  1.0931
  185SLPC   C3821321   5.333   0.769   7.510  0.3094 -0.5121 -0.5456
  185SLPC   H8X21322   5.349   0.661   7.532  0.1142 -0.1976  1.2832
  185SLPC   H8Y21323   5.227   0.792   7.533  0.6524 -1.0643  1.9358
  185SLPC   C3921324   5.408   0.863   7.610  0.4642  0.2685 -0.2488
  185SLPC   H9X21325   5.375   0.968   7.598  1.6383  0.5249 -1.4553
  185SLPC   H9Y21326   5.518   0.853   7.597  0.2758 -1.1191 -1.0030
  185SLPC  C31021327   5.381   0.817   7.758  0.4044 -0.3901  0.0880
  185SLPC  H10X21328   5.474   0.829   7.818 -0.8908  0.6160  1.9740
  185SLPC  H10Y21329   5.357   0.709   7.750 -1.1939 -0.0679  0.2840
  185SLPC  C31121330   5.258   0.889   7.821  0.5038  0.1692  0.2578
  185SLPC  H11X21331   5.179   0.880   7.743  1.7270  2.3563 -1.3297
  185SLPC  H11Y21332   5.288   0.995   7.830 -0.2151  0.3358  0.7286
  185SLPC  C31221333   5.230   0.832   7.958 -0.0725 -0.1540  0.0365
  185SLPC  H12X21334   5.160   0.898   8.014  1.4763  1.2470  0.4143
  185SLPC  H12Y21335   5.313   0.838   8.031 -2.3616  0.4326  2.7838
  185SLPC  C31321336   5.167   0.691   7.956  0.7186  0.1265 -0.3247
  185SLPC  H13X21337   5.238   0.621   7.906  1.6125 -0.6487  1.9289
  185SLPC  H13Y21338   5.070   0.684   7.902 -0.0485 -0.4550  1.0885
  185SLPC  C31421339   5.151   0.645   8.099 -0.4476  0.0130 -0.3614
  185SLPC  H14X21340   5.075   0.713   8.145  0.0729  1.0108 -0.9442
  185SLPC  H14Y21341   5.243   0.665   8.157 -0.2463  1.9870 -1.2897
  185SLPC  C31521342   5.100   0.502   8.117 -0.6014 -0.3532  1.1426
  185SLPC  H15X21343   5.031   0.486   8.031  1.2679  1.3765 -0.8183
  185SLPC  H15Y21344   5.050   0.482   8.214  0.5214  0.3409  1.8747
  185SLPC  C31621345   5.214   0.402   8.099 -0.3305 -0.1151 -0.2422
  185SLPC  H16X21346   5.288   0.407   8.181  1.0041 -0.9399 -1.3611
  185SLPC  H16Y21347   5.273   0.421   8.007  0.1242 -0.7564 -0.0894
  185SLPC  C31721348   5.168   0.255   8.096 -0.4427 -0.0870 -0.4495
  185SLPC  H17X21349   5.057   0.262   8.093 -0.5427 -1.6507 -2.1285
  185SLPC  H17Y21350   5.186   0.210   8.196 -0.2195 -0.3408 -0.6021
  185SLPC  C31821351   5.212   0.182   7.976 -0.1212  0.2459  1.1518
  185SLPC  H18X21352   5.203   0.243   7.883  1.7381  0.4851  1.0940
  185SLPC  H18Y21353   5.159   0.086   7.960 -0.0215  0.0633  1.9082
  185SLPC  H18Z21354   5.320   0.157   7.968 -0.0393  0.9492 -0.5176
  186SLPC     N21355   3.291   1.766   5.904 -0.6888  0.0572 -0.2711
  186SLPC   C1321356   3.302   1.630   5.964 -0.1428  0.6179 -0.0285
  186SLPC  H13A21357   3.408   1.611   5.959 -0.0797  0.1771  2.0777
  186SLPC  H13B21358   3.258   1.633   6.063 -0.8874 -0.3758 -0.3164
  186SLPC  H13C21359   3.246   1.554   5.911  0.1949  0.4778 -0.1875
  186SLPC   C1421360   3.150   1.803   5.882 -0.8945  0.8042 -0.0889
  186SLPC  H14A21361   3.096   1.721   5.838  1.5165 -0.7731 -0.3542
  186SLPC  H14B21362   3.099   1.823   5.975  3.4951 -1.1744  3.1543
  186SLPC  H14C21363   3.140   1.893   5.825  0.1681  0.7205 -0.4313
  186SLPC   C1521364   3.365   1.755   5.773  0.8186 -0.2126  0.3282
  186SLPC  H15A21365   3.368   1.847   5.716 -1.9565 -0.0667  0.2807
  186SLPC  H15B21366   3.469   1.735   5.795  0.7303 -1.2715 -0.1762
  186SLPC  H15C21367   3.326   1.680   5.706  0.1854 -1.2730  1.8287
  186SLPC   C1221368   3.365   1.871   5.984  0.4389 -0.1134  0.4226
  186SLPC  H12A21369   3.291   1.906   6.054 -1.5208 -0.3743 -1.4159
  186SLPC  H12B21370   3.378   1.950   5.911  0.9487 -1.3667 -0.8969
  186SLPC   C1121371   3.503   1.848   6.048 -0.3462  0.7457 -0.1676
  186SLPC  H11A21372   3.557   1.942   6.070 -0.3285  0.2296  2.2504
  186SLPC  H11B21373   3.563   1.790   5.974 -0.9015 -1.2877  0.8897
  186SLPC     P21374   3.427   1.828   6.293 -0.1935  0.3669 -0.4707
  186SLPC   O1321375   3.516   1.940   6.337  0.0327 -1.1236 -0.6617
  186SLPC   O1421376   3.281   1.857   6.273  0.1250  0.1628  0.3088
  186SLPC   O1221377   3.484   1.765   6.160  0.6069  0.0864  0.2693
  186SLPC   O1121378   3.444   1.711   6.393 -0.0426  0.0629  0.1943
  186SLPC    C121379   3.547   1.605   6.365  0.5087 -1.1622 -0.1215
  186SLPC    HA21380   3.514   1.531   6.290  0.0507 -0.9332 -0.1545
  186SLPC    HB21381   3.645   1.637   6.325  0.8005 -1.9484 -0.0431
  186SLPC    C221382   3.572   1.528   6.494 -0.1901  0.5613 -0.0762
  186SLPC    HS21383   3.576   1.420   6.470 -1.5461  0.9892 -2.6307
  186SLPC   O2121384   3.459   1.549   6.575 -0.2746 -0.3924 -0.1314
  186SLPC   C2121385   3.352   1.487   6.543 -0.0546  0.9290  0.8590
  186SLPC   O2221386   3.344   1.394   6.462  0.6310  0.2126 -0.4029
  186SLPC   C2221387   3.241   1.540   6.627 -0.4978  0.3217  0.0969
  186SLPC   H2R21388   3.251   1.650   6.636 -0.6094  0.3440 -0.0439
  186SLPC   H2S21389   3.142   1.512   6.584 -0.1729  0.7954 -0.9768
  186SLPC    C321390   3.703   1.579   6.564 -0.1061  0.1117  0.1974
  186SLPC    HX21391   3.715   1.689   6.568  0.8778 -0.0156  1.7472
  186SLPC    HY21392   3.787   1.535   6.507  0.8230  1.9071  0.0973
  186SLPC   O3121393   3.716   1.510   6.690  0.0395 -0.3967  0.0849
  186SLPC   C3121394   3.665   1.581   6.792 -0.2631  0.0049  0.2079
  186SLPC   O3221395   3.625   1.697   6.781  0.1068  0.2502 -0.4512
  186SLPC   C3221396   3.673   1.498   6.922  0.2972  0.6403  0.3222
  186SLPC   H2X21397   3.771   1.451   6.942 -0.7261 -1.6484  0.2544
  186SLPC   H2Y21398   3.594   1.420   6.910  0.5235  0.1521  1.8904
  186SLPC   C2321399   3.236   1.489   6.774  0.0047 -0.4117 -0.2634
  186SLPC   H3R21400   3.161   1.552   6.828  1.5763  2.7192 -1.4773
  186SLPC   H3S21401   3.329   1.518   6.826 -0.3843  1.8394 -0.7269
  186SLPC   C2421402   3.186   1.345   6.790 -0.3860  0.1882 -0.0326
  186SLPC   H4R21403   3.272   1.283   6.753  1.7226  2.4210  0.8487
  186SLPC   H4S21404   3.105   1.329   6.715 -0.0622  0.2064 -0.3927
  186SLPC   C2521405   3.154   1.304   6.934 -0.0151 -0.5671 -0.1673
  186SLPC   H5R21406   3.160   1.193   6.935  1.5006 -0.5437 -1.7151
  186SLPC   H5S21407   3.052   1.342   6.955  1.1134  2.7527 -0.2330
  186SLPC   C2621408   3.258   1.362   7.031 -0.4881  0.5515  0.0974
  186SLPC   H6R21409   3.258   1.473   7.041 -0.2789  0.6008 -0.4255
  186SLPC   H6S21410   3.356   1.319   7.000 -0.6330  1.7824 -2.2863
  186SLPC   C2721411   3.236   1.313   7.170 -0.2970 -0.2412 -0.4004
  186SLPC   H7R21412   3.334   1.329   7.220  0.0002 -1.1285 -0.6911
  186SLPC   H7S21413   3.216   1.205   7.183  1.3532 -0.5375 -0.1040
  186SLPC   C2821414   3.135   1.398   7.244  0.1272  0.2006 -0.1356
  186SLPC   H8R21415   3.065   1.430   7.164  2.4730  1.6006 -1.7873
  186SLPC   H8S21416   3.185   1.481   7.299 -0.0817  0.0276  0.3144
  186SLPC   C2921417   3.061   1.317   7.357 -0.8674  0.1569 -0.0588
  186SLPC   H9R21418   2.995   1.236   7.321 -1.8457  0.7372  0.4148
  186SLPC  C21021419   3.071   1.342   7.488  0.1468  0.7986  0.1565
  186SLPC  H10R21420   3.014   1.271   7.551 -1.2185 -0.2606 -2.1307
  186SLPC  C21121421   3.141   1.451   7.562 -0.2986  0.2995  0.0841
  186SLPC  H11R21422   3.056   1.505   7.610 -0.8734 -2.0731  1.9462
  186SLPC  H11S21423   3.195   1.524   7.498 -0.3638  0.2504 -0.0272
  186SLPC  C21221424   3.236   1.412   7.671  0.8148 -0.3631  0.2524
  186SLPC  H12R21425   3.336   1.449   7.644  1.0326 -0.7656  0.5008
  186SLPC  C21321426   3.228   1.338   7.786 -0.0273 -0.3390  0.2588
  186SLPC  H13R21427   3.321   1.311   7.837 -0.5985  0.0871  1.5745
  186SLPC  C21421428   3.094   1.272   7.836 -0.5225  0.1137  0.1927
  186SLPC  H14R21429   3.114   1.165   7.855 -0.3017  0.3339  1.2753
  186SLPC  H14S21430   3.001   1.289   7.778 -2.4520  1.3467  3.3844
  186SLPC  C21521431   3.050   1.324   7.981  0.2633 -0.1544  0.6037
  186SLPC  H15R21432   3.035   1.434   7.971 -0.1512 -0.2289  0.3532
  186SLPC  H15S21433   3.130   1.306   8.055  1.2793  3.1104  0.4539
  186SLPC  C21621434   2.908   1.271   8.030  0.0012 -0.2365  0.1185
  186SLPC  H16R21435   2.828   1.296   7.958 -1.2083  0.5716  1.6888
  186SLPC  H16S21436   2.885   1.322   8.126 -1.3857  2.0321 -1.3176
  186SLPC  C21721437   2.921   1.124   8.053  0.5633  0.3234 -0.1465
  186SLPC  H17R21438   2.958   1.099   8.154 -0.8125 -1.6017 -0.0737
  186SLPC  H17S21439   2.985   1.068   7.982 -2.5735 -1.3864 -1.8765
  186SLPC  C21821440   2.775   1.068   8.056 -0.9342  0.0115  0.1446
  186SLPC  H18R21441   2.768   0.958   8.075  0.2000  0.1763  1.7216
  186SLPC  H18S21442   2.727   1.091   7.958 -1.5543 -0.0396  0.4348
  186SLPC  H18T21443   2.719   1.116   8.139  0.8702 -0.9274  1.9816
  186SLPC   C3321444   3.625   1.579   7.044  0.1664  0.0065  0.0381
  186SLPC   H3X21445   3.528   1.631   7.025 -0.3366  0.6778  3.7323
  186SLPC   H3Y21446   3.700   1.656   7.071 -0.1121  1.3027 -2.5494
  186SLPC   C3421447   3.606   1.495   7.175  0.1745  0.4392  0.1647
  186SLPC   H4X21448   3.708   1.466   7.208 -0.1790 -0.5272  0.4404
  186SLPC   H4Y21449   3.537   1.408   7.168 -0.0551  0.6688 -0.5036
  186SLPC   C3521450   3.537   1.577   7.288 -0.0208  0.4763 -0.9246
  186SLPC   H5X21451   3.434   1.610   7.263 -0.6935 -2.3326 -2.2339
  186SLPC   H5Y21452   3.602   1.663   7.316 -2.0029  1.5271  0.6464
  186SLPC   C3621453   3.540   1.485   7.414  0.3436  0.3428 -0.1954
  186SLPC   H6X21454   3.588   1.386   7.401  1.2775  0.7552 -0.0098
  186SLPC   H6Y21455   3.435   1.461   7.442  0.5110  0.5175  0.6303
  186SLPC   C3721456   3.610   1.552   7.537  0.1843  0.0878 -0.1303
  186SLPC   H7X21457   3.720   1.554   7.526  0.6930 -0.0387  3.6771
  186SLPC   H7Y21458   3.606   1.477   7.618  1.1062 -2.4702 -2.3055
  186SLPC   C3821459   3.551   1.681   7.595  0.4945 -0.1470  0.3118
  186SLPC   H8X21460   3.446   1.662   7.625 -0.0478 -2.0339 -2.4123
  186SLPC   H8Y21461   3.555   1.765   7.522  0.1297 -2.4523 -2.5440
  186SLPC   C3921462   3.630   1.730   7.720  0.2519  0.4643  0.5496
  186SLPC   H9X21463   3.600   1.835   7.739 -0.8171 -0.0268  1.7561
  186SLPC   H9Y21464   3.734   1.727   7.681  0.4526 -2.1334  1.1183
  186SLPC  C31021465   3.629   1.644   7.848  0.3350 -0.4019  0.2026
  186SLPC  H10X21466   3.694   1.683   7.929 -2.4808  0.7421  2.0492
  186SLPC  H10Y21467   3.676   1.546   7.825  0.2181 -0.3482 -0.2755
  186SLPC  C31121468   3.492   1.613   7.913  0.1414  0.2844  0.1693
  186SLPC  H11X21469   3.434   1.560   7.835  2.2390 -0.7875 -0.7291
  186SLPC  H11Y21470   3.448   1.710   7.946 -0.3477  0.2976 -0.4956
  186SLPC  C31221471   3.511   1.512   8.023  0.6664 -0.2859 -0.5504
  186SLPC  H12X21472   3.562   1.571   8.103 -0.8910 -0.9939  1.0446
  186SLPC  H12Y21473   3.569   1.423   7.989 -1.2371 -1.5300 -0.6694
  186SLPC  C31321474   3.376   1.463   8.074  0.3538  0.0077 -0.8714
  186SLPC  H13X21475   3.331   1.385   8.010 -4.0316  0.9263  0.7710
  186SLPC  H13Y21476   3.304   1.547   8.082  0.6603  0.2417 -0.4945
  186SLPC  C31421477   3.394   1.372   8.203 -0.0237  0.2294  0.5440
  186SLPC  H14X21478   3.485   1.414   8.251  0.5977 -0.4425 -0.0171
  186SLPC  H14Y21479   3.418   1.268   8.174 -0.8285  0.5814 -1.5702
  186SLPC  C31521480   3.281   1.398   8.296  0.9386 -0.5410 -0.0534
  186SLPC  H15X21481   3.263   1.303   8.351 -0.1068 -0.8984 -0.9782
  186SLPC  H15Y21482   3.191   1.425   8.237  1.2074 -0.3145 -0.3612
  186SLPC  C31621483   3.302   1.501   8.408 -0.0530  0.1902 -0.0648
  186SLPC  H16X21484   3.361   1.457   8.492 -1.2832 -0.5378  0.4562
  186SLPC  H16Y21485   3.208   1.534   8.457 -0.0170 -0.0396  0.1612
  186SLPC  C31721486   3.362   1.635   8.365  0.3590  0.7266  0.2131
  186SLPC  H17X21487   3.454   1.622   8.304 -0.2167 -0.3258 -0.4593
  186SLPC  H17Y21488   3.405   1.676   8.459  1.2949  0.5794 -0.1327
  186SLPC  C31821489   3.269   1.739   8.311  0.1451 -0.0064 -0.1414
  186SLPC  H18X21490   3.177   1.741   8.373  0.4717  1.3166  0.3249
  186SLPC  H18Y21491   3.241   1.731   8.203  2.9876 -0.0654 -0.9444
  186SLPC  H18Z21492   3.321   1.837   8.322  3.0004 -1.4134 -0.2690
  187SLPC     N21493   0.278   1.367   6.226 -0.4999 -0.1486  0.0514
  187SLPC   C1321494   0.413   1.342   6.173 -0.8236  0.2151  0.3789
  187SLPC  H13A21495   0.492   1.356   6.245  0.1107 -0.3845 -0.5076
  187SLPC  H13B21496   0.421   1.237   6.149 -1.1880  0.9593 -3.5706
  187SLPC  H13C21497   0.446   1.401   6.089 -1.2432  0.9875  0.7404
  187SLPC   C1421498   0.181   1.321   6.124 -0.1641 -0.2678 -0.1139
  187SLPC  H14A21499   0.080   1.318   6.164 -0.7686 -1.0726 -1.6240
  187SLPC  H14B21500   0.180   1.385   6.037  1.2865  0.5017  0.4034
  187SLPC  H14C21501   0.203   1.218   6.100 -1.1173 -0.1485 -1.6460
  187SLPC   C1521502   0.266   1.523   6.250  0.3387 -0.5263 -0.4804
  187SLPC  H15A21503   0.333   1.543   6.332 -1.8108  1.1244  0.9973
  187SLPC  H15B21504   0.289   1.571   6.156 -1.6269  0.1066 -0.6780
  187SLPC  H15C21505   0.170   1.557   6.286  1.1497 -0.9221  2.2496
  187SLPC   C1221506   0.254   1.300   6.364 -0.1522  0.0487 -0.5407
  187SLPC  H12A21507   0.258   1.192   6.350 -1.3031 -0.0459 -0.2457
  187SLPC  H12B21508   0.153   1.329   6.388 -0.8861 -3.4531  1.3587
  187SLPC   C1121509   0.345   1.333   6.487 -0.4075  0.3767  0.1821
  187SLPC  H11A21510   0.454   1.310   6.477 -0.4517 -0.9744  2.1708
  187SLPC  H11B21511   0.295   1.278   6.569 -0.7603 -0.4470 -0.5744
  187SLPC     P21512   0.219   1.529   6.601 -0.0585 -0.1725  0.1532
  187SLPC   O1321513   0.208   1.671   6.582 -0.1398 -0.1659 -0.1840
  187SLPC   O1421514   0.103   1.444   6.567 -0.2842 -0.0080 -0.7704
  187SLPC   O1221515   0.335   1.472   6.512 -0.3066  0.2121  0.7973
  187SLPC   O1121516   0.269   1.497   6.753  0.3996 -0.0856  0.4849
  187SLPC    C121517   0.405   1.451   6.772  0.0766 -0.0469  0.2919
  187SLPC    HA21518   0.418   1.344   6.746 -0.9843 -0.3171  0.8131
  187SLPC    HB21519   0.481   1.516   6.723 -0.9346  1.7072  0.9538
  187SLPC    C221520   0.446   1.455   6.928  0.4732  0.1309 -0.0453
  187SLPC    HS21521   0.380   1.381   6.978 -1.9857  0.7624 -2.1778
  187SLPC   O2121522   0.422   1.586   6.973  0.1505  0.1377 -0.8741
  187SLPC   C2121523   0.377   1.585   7.098  0.8461 -0.2375 -0.5297
  187SLPC   O2221524   0.338   1.488   7.163 -0.2844 -0.4653 -0.4218
  187SLPC   C2221525   0.374   1.736   7.143  0.0589  0.0600 -1.5300
  187SLPC   H2R21526   0.447   1.788   7.077 -0.8583  3.3083 -0.1675
  187SLPC   H2S21527   0.274   1.769   7.109 -0.3840 -0.4013 -0.7019
  187SLPC    C321528   0.594   1.407   6.951 -0.3617 -0.1820  0.1595
  187SLPC    HX21529   0.664   1.483   6.910  0.2512  0.3768  2.1497
  187SLPC    HY21530   0.620   1.313   6.898  0.1357  1.1559 -2.1106
  187SLPC   O3121531   0.619   1.412   7.099  0.2127 -0.0077  0.3395
  187SLPC   C3121532   0.598   1.296   7.153  0.5677 -0.4692 -0.3614
  187SLPC   O3221533   0.556   1.192   7.101  0.1593  0.1947 -0.5865
  187SLPC   C3221534   0.636   1.305   7.302 -0.0551 -0.0416  0.1308
  187SLPC   H2X21535   0.587   1.401   7.329  0.0393  0.2422 -0.6781
  187SLPC   H2Y21536   0.746   1.309   7.313 -0.1182  1.1848  0.4623
  187SLPC   C2321537   0.390   1.765   7.295  0.0808 -0.1438 -0.3723
  187SLPC   H3R21538   0.311   1.713   7.353 -1.4160  1.9885 -0.3829
  187SLPC   H3S21539   0.384   1.874   7.317  0.0261  0.2681 -2.2423
  187SLPC   C2421540   0.527   1.721   7.337  0.8056  0.8755  0.5097
  187SLPC   H4R21541   0.602   1.800   7.313  0.0150  0.9475 -1.9979
  187SLPC   H4S21542   0.552   1.626   7.285  2.2843  1.2182  0.5569
  187SLPC   C2521543   0.535   1.680   7.483  0.0353  1.0244  0.0685
  187SLPC   H5R21544   0.642   1.660   7.501 -0.0909 -1.7495 -1.5720
  187SLPC   H5S21545   0.478   1.585   7.494  2.0113 -0.1806  0.2903
  187SLPC   C2621546   0.495   1.779   7.588 -0.1541 -0.4853  0.3566
  187SLPC   H6R21547   0.386   1.801   7.581  0.0854  0.3590 -1.4383
  187SLPC   H6S21548   0.556   1.870   7.566 -0.2857 -0.5615 -0.3464
  187SLPC   C2721549   0.522   1.732   7.731 -0.6551  0.6141  0.4748
  187SLPC   H7R21550   0.616   1.673   7.735 -2.0021 -2.0432 -2.3508
  187SLPC   H7S21551   0.458   1.646   7.762  0.1603  0.0031  0.4904
  187SLPC   C2821552   0.514   1.833   7.844  0.3886  0.0084 -0.2453
  187SLPC   H8R21553   0.575   1.919   7.811  1.8028 -0.4840  0.9597
  187SLPC   H8S21554   0.552   1.774   7.930  3.2344  2.8326  0.6131
  187SLPC   C2921555   0.372   1.890   7.862 -0.1592 -0.3463 -0.1558
  187SLPC   H9R21556   0.329   1.934   7.771  0.1453  1.6125  0.5973
  187SLPC  C21021557   0.310   1.909   7.981 -0.4203  0.2601  0.2281
  187SLPC  H10R21558   0.207   1.946   7.977  0.0245  1.5093 -0.2702
  187SLPC  C21121559   0.359   1.864   8.114  0.5257 -1.0455  0.0742
  187SLPC  H11R21560   0.423   1.940   8.166  0.5301  0.0141 -1.4165
  187SLPC  H11S21561   0.416   1.770   8.102  2.0634  0.0667 -2.0504
  187SLPC  C21221562   0.238   1.824   8.192  0.3151  1.0376  0.2908
  187SLPC  H12R21563   0.248   1.716   8.213 -0.3890  0.8142 -0.4929
  187SLPC  C21321564   0.140   1.891   8.243 -0.1171 -0.1130 -0.9032
  187SLPC  H13R21565   0.072   1.838   8.311  1.4966  0.8330  1.5774
  187SLPC  C21421566   0.129   2.046   8.240  0.0710  0.4017  0.9431
  187SLPC  H14R21567   0.063   2.073   8.154  0.5887 -0.6167  0.2140
  187SLPC  H14S21568   0.231   2.080   8.211 -0.5069 -0.1065 -2.0330
  187SLPC  C21521569   0.073   2.109   8.364 -0.4731  0.3222 -0.3510
  187SLPC  H15R21570   0.072   2.219   8.354  0.4624  0.4270  0.5015
  187SLPC  H15S21571   0.152   2.086   8.439  0.0381  0.8848 -0.7098
  187SLPC  C21621572  -0.052   2.053   8.418 -0.3988  0.1013 -0.6287
  187SLPC  H16R21573  -0.087   2.123   8.497 -0.7028  0.4183 -1.0468
  187SLPC  H16S21574  -0.026   1.958   8.470  1.9808 -0.0569 -1.9955
  187SLPC  C21721575  -0.167   2.044   8.317 -0.2450 -0.5072 -0.2941
  187SLPC  H17R21576  -0.148   1.953   8.256 -0.4656 -0.3722 -0.5636
  187SLPC  H17S21577  -0.160   2.129   8.247  1.0148 -0.2336  0.1465
  187SLPC  C21821578  -0.305   2.059   8.381  0.2172  0.0989  0.9434
  187SLPC  H18R21579  -0.314   2.152   8.441 -1.4487 -0.8545  2.2811
  187SLPC  H18S21580  -0.322   1.981   8.458 -1.4882  0.4105  0.9260
  187SLPC  H18T21581  -0.380   2.049   8.299 -0.5915 -2.1258  1.8721
  187SLPC   C3321582   0.577   1.188   7.392 -0.4183  0.3957 -0.1723
  187SLPC   H3X21583   0.648   1.184   7.478  1.5684  2.4609 -1.5953
  187SLPC   H3Y21584   0.580   1.093   7.335  0.4123  1.1323 -1.4156
  187SLPC   C3421585   0.430   1.216   7.421  0.1295  0.5396 -0.3927
  187SLPC   H4X21586   0.363   1.201   7.334 -1.8535 -0.9305  1.2780
  187SLPC   H4Y21587   0.430   1.327   7.433 -0.1737  0.8653 -2.8529
  187SLPC   C3521588   0.374   1.153   7.544  0.0916  0.4331  0.1931
  187SLPC   H5X21589   0.444   1.160   7.630 -1.1369 -1.8796  1.4828
  187SLPC   H5Y21590   0.347   1.046   7.527  0.6891  0.6295 -2.3856
  187SLPC   C3621591   0.246   1.210   7.591 -0.9325  0.2396 -0.0649
  187SLPC   H6X21592   0.178   1.230   7.505  1.3670  0.4324 -1.9189
  187SLPC   H6Y21593   0.270   1.313   7.625  4.1337 -0.4919 -0.6686
  187SLPC   C3721594   0.180   1.130   7.711  0.0779 -0.1322 -1.2007
  187SLPC   H7X21595   0.084   1.174   7.742 -0.3112 -1.3134 -0.6442
  187SLPC   H7Y21596   0.156   1.027   7.674 -0.5606 -1.1171  1.7089
  187SLPC   C3821597   0.262   1.085   7.838  0.2735  0.0136 -0.4122
  187SLPC   H8X21598   0.332   1.166   7.868  1.3989 -0.1891 -2.2738
  187SLPC   H8Y21599   0.334   1.007   7.804 -2.3514 -1.7764 -2.3040
  187SLPC   C3921600   0.167   1.035   7.949  0.3224 -0.1617 -0.4454
  187SLPC   H9X21601   0.096   0.970   7.892  1.5292 -0.9594 -1.0662
  187SLPC   H9Y21602   0.115   1.127   7.984 -1.2309 -1.1579  0.0162
  187SLPC  C31021603   0.232   0.951   8.053 -0.0288  0.1365 -0.0137
  187SLPC  H10X21604   0.332   0.987   8.085 -0.0781  1.1888 -0.9975
  187SLPC  H10Y21605   0.245   0.845   8.022  1.1501 -0.0906  1.1704
  187SLPC  C31121606   0.152   0.931   8.183  0.5018 -0.1518 -0.6367
  187SLPC  H11X21607   0.058   0.879   8.156  1.4373 -0.4576 -3.7041
  187SLPC  H11Y21608   0.121   1.031   8.221 -0.6808 -1.1305  1.1247
  187SLPC  C31221609   0.234   0.859   8.293  0.0769 -0.1598  0.2089
  187SLPC  H12X21610   0.327   0.919   8.306  0.7728 -0.7364 -1.6848
  187SLPC  H12Y21611   0.264   0.761   8.250  1.2047  0.3863 -0.3122
  187SLPC  C31321612   0.177   0.855   8.431  0.4825 -0.3656  0.7493
  187SLPC  H13X21613   0.163   0.959   8.467 -0.0845 -0.0033 -0.4418
  187SLPC  H13Y21614   0.246   0.809   8.505 -0.4904 -0.8301  1.3904
  187SLPC  C31421615   0.043   0.786   8.440  0.8678  0.5312  0.0374
  187SLPC  H14X21616   0.046   0.680   8.410 -1.9765  0.6234 -0.8435
  187SLPC  H14Y21617  -0.040   0.831   8.381 -1.0174 -2.3607  0.2798
  187SLPC  C31521618  -0.019   0.777   8.582  0.1434 -0.5390  0.4310
  187SLPC  H15X21619  -0.125   0.743   8.573  0.4015 -1.3974  0.5680
  187SLPC  H15Y21620  -0.026   0.879   8.626 -1.2515 -1.1554  1.7589
  187SLPC  C31621621   0.060   0.688   8.676 -0.0560  0.4245 -0.4057
  187SLPC  H16X21622   0.142   0.743   8.726  0.4918 -2.2570  1.8476
  187SLPC  H16Y21623   0.112   0.611   8.615  0.4088 -0.4462  1.0448
  187SLPC  C31721624  -0.025   0.617   8.780  0.1725  0.0642 -0.4020
  187SLPC  H17X21625  -0.105   0.560   8.728  1.8822 -3.4154  0.4729
  187SLPC  H17Y21626  -0.078   0.688   8.847 -0.9756  0.4618 -1.6937
  187SLPC  C31821627   0.050   0.507   8.857  0.5823 -0.1775 -0.4540
  187SLPC  H18X21628   0.134   0.560   8.906  0.7322  2.2882 -3.0778
  187SLPC  H18Y21629   0.091   0.439   8.779 -2.6999 -0.8323 -1.7873
  187SLPC  H18Z21630  -0.010   0.453   8.933  1.1446 -1.8235 -1.1306
  188SLPC     N21631   2.038   1.646   6.222 -0.2137  0.1763  0.7412
  188SLPC   C1321632   2.043   1.540   6.112  0.2414  0.1259 -1.0073
  188SLPC  H13A21633   2.143   1.508   6.084  0.3307  1.2091 -2.0007
  188SLPC  H13B21634   1.997   1.453   6.158 -0.2634  0.5500 -0.7107
  188SLPC  H13C21635   1.996   1.574   6.021  0.8840  0.2932 -1.2868
  188SLPC   C1421636   1.895   1.673   6.267 -0.7475  0.0727  0.2098
  188SLPC  H14A21637   1.884   1.770   6.313  2.7327 -0.3459  2.2787
  188SLPC  H14B21638   1.825   1.676   6.185 -1.5216 -0.9338  0.7975
  188SLPC  H14C21639   1.858   1.596   6.334  0.7952  0.7517  1.9246
  188SLPC   C1521640   2.093   1.778   6.162  0.0446  0.4350 -0.2180
  188SLPC  H15A21641   2.074   1.859   6.231 -0.6809  0.7592 -0.7896
  188SLPC  H15B21642   2.200   1.771   6.147  0.0042  0.9831 -0.8083
  188SLPC  H15C21643   2.031   1.803   6.078 -2.8145  1.0798  1.9209
  188SLPC   C1221644   2.116   1.610   6.344  0.6029  0.2976 -0.3456
  188SLPC  H12A21645   2.122   1.691   6.415  2.2092 -1.6736  1.9269
  188SLPC  H12B21646   2.222   1.601   6.327  1.2260 -1.0093  3.4473
  188SLPC   C1121647   2.065   1.496   6.425  0.0936  0.5412 -0.4632
  188SLPC  H11A21648   1.973   1.525   6.481  0.5212  0.4182  0.3289
  188SLPC  H11B21649   2.142   1.478   6.504 -0.0038  1.6371 -0.1029
  188SLPC     P21650   2.135   1.255   6.354 -0.0127  0.1322  0.4768
  188SLPC   O1321651   2.143   1.193   6.223  0.3788  0.2107  0.6506
  188SLPC   O1421652   2.260   1.278   6.424  0.6661  0.9160 -0.0634
  188SLPC   O1221653   2.037   1.379   6.345 -0.3845 -0.1988 -0.3755
  188SLPC   O1121654   2.049   1.158   6.453 -0.4833  0.0944 -0.5111
  188SLPC    C121655   1.979   1.209   6.560  1.2150 -1.0074 -0.2342
  188SLPC    HA21656   1.917   1.298   6.537  0.8897 -0.7225  1.5989
  188SLPC    HB21657   1.891   1.143   6.577 -0.6407  1.3241 -0.3810
  188SLPC    C221658   2.057   1.224   6.694  0.7923 -0.3125 -0.0790
  188SLPC    HS21659   2.141   1.296   6.687 -0.3635  1.1625  0.5690
  188SLPC   O2121660   2.098   1.090   6.722  0.4212  0.3914  0.1000
  188SLPC   C2121661   2.223   1.076   6.776 -0.1963 -0.6203  0.2413
  188SLPC   O2221662   2.293   1.169   6.812 -0.8457  0.3320 -0.7208
  188SLPC   C2221663   2.270   0.931   6.771  0.4935  1.4080  0.2552
  188SLPC   H2R21664   2.179   0.868   6.782  1.2065  0.5613  1.7383
  188SLPC   H2S21665   2.310   0.916   6.669 -0.6656 -0.0460 -0.0234
  188SLPC    C321666   1.959   1.276   6.804 -0.1109 -0.2026  0.2782
  188SLPC    HX21667   1.883   1.194   6.803  0.4418 -0.7231 -0.3805
  188SLPC    HY21668   1.908   1.372   6.781  3.5121  1.8357 -0.0167
  188SLPC   O3121669   2.028   1.279   6.934 -0.2162  0.1351 -0.6345
  188SLPC   C3121670   2.107   1.388   6.948  0.9647 -0.2663  0.5433
  188SLPC   O3221671   2.105   1.483   6.863 -0.7524  0.0794 -0.7024
  188SLPC   C3221672   2.210   1.388   7.066 -0.4045  0.4715 -0.4328
  188SLPC   H2X21673   2.206   1.490   7.111 -1.5159  1.1689 -1.9859
  188SLPC   H2Y21674   2.312   1.405   7.026 -1.1661  3.4307 -1.3825
  188SLPC   C2321675   2.367   0.888   6.892 -0.2160 -0.1544  0.3083
  188SLPC   H3R21676   2.453   0.958   6.898 -0.9342  0.6572  1.4118
  188SLPC   H3S21677   2.404   0.785   6.874 -2.1568 -1.1124  1.4319
  188SLPC   C2421678   2.305   0.901   7.024  0.3023  0.1439 -0.1293
  188SLPC   H4R21679   2.217   0.834   7.031  1.1411 -0.8395  1.5635
  188SLPC   H4S21680   2.268   1.004   7.040 -0.5636 -0.4613  2.2232
  188SLPC   C2521681   2.415   0.869   7.141  0.8155 -0.6044  0.3750
  188SLPC   H5R21682   2.469   0.965   7.156  0.7402 -0.4404 -0.3749
  188SLPC   H5S21683   2.479   0.784   7.109  2.6495  1.6801 -2.5188
  188SLPC   C2621684   2.343   0.827   7.273  0.3319  0.0205  0.0401
  188SLPC   H6R21685   2.281   0.736   7.255  0.5151  0.2401 -1.8580
  188SLPC   H6S21686   2.290   0.921   7.299  2.4791  1.5743 -0.8710
  188SLPC   C2721687   2.438   0.787   7.392  0.5069 -0.6561 -0.1954
  188SLPC   H7R21688   2.523   0.857   7.380 -0.7780  0.6235 -2.4542
  188SLPC   H7S21689   2.481   0.686   7.376  1.2905 -0.5541  1.1192
  188SLPC   C2821690   2.366   0.806   7.523  0.1507 -0.5753 -0.5853
  188SLPC   H8R21691   2.294   0.721   7.525  0.3325 -0.7330 -0.6677
  188SLPC   H8S21692   2.314   0.904   7.523  2.7526  0.8898  0.1289
  188SLPC   C2921693   2.463   0.791   7.631 -0.3049  0.7839 -0.2638
  188SLPC   H9R21694   2.547   0.720   7.619  0.4767  1.1433  2.4520
  188SLPC  C21021695   2.449   0.856   7.746 -0.0488  0.0153 -0.5544
  188SLPC  H10R21696   2.510   0.821   7.831 -1.9547 -3.0302 -0.2834
  188SLPC  C21121697   2.350   0.955   7.787 -0.5954 -0.3429 -0.0324
  188SLPC  H11R21698   2.256   0.904   7.816 -0.5155 -1.0888 -1.0091
  188SLPC  H11S21699   2.310   1.012   7.700 -0.4839 -2.1464 -1.3195
  188SLPC  C21221700   2.387   1.048   7.888 -0.2641  0.1424 -0.1992
  188SLPC  H12R21701   2.397   1.151   7.853  0.9828  0.6146  1.4425
  188SLPC  C21321702   2.402   1.027   8.021  0.6167  0.1905 -0.2080
  188SLPC  H13R21703   2.431   1.111   8.085 -0.3151  0.7114 -0.4426
  188SLPC  C21421704   2.374   0.910   8.098  0.3184  0.4656 -0.9239
  188SLPC  H14R21705   2.363   0.826   8.027 -1.7132 -0.3004  0.1914
  188SLPC  H14S21706   2.278   0.917   8.154  0.1648 -0.7004 -1.0270
  188SLPC  C21521707   2.478   0.869   8.211 -0.4374  0.4012  0.3027
  188SLPC  H15R21708   2.479   0.954   8.283 -0.2235  0.9448 -0.3238
  188SLPC  H15S21709   2.575   0.857   8.158 -0.0442 -0.7942  1.2506
  188SLPC  C21621710   2.451   0.744   8.300  0.1806  0.0304  0.5959
  188SLPC  H16R21711   2.480   0.647   8.254 -0.8111  0.2482 -0.5481
  188SLPC  H16S21712   2.340   0.747   8.301  0.1974  2.1694  0.4858
  188SLPC  C21721713   2.514   0.764   8.439 -0.0061  0.2625  0.8102
  188SLPC  H17R21714   2.458   0.698   8.508  0.1801 -1.4523 -0.6108
  188SLPC  H17S21715   2.485   0.866   8.473 -0.9929  0.8929 -1.6306
  188SLPC  C21821716   2.660   0.748   8.443  0.0599  0.9892  0.0486
  188SLPC  H18R21717   2.705   0.657   8.399  1.4565  1.1711  1.0089
  188SLPC  H18S21718   2.676   0.747   8.553 -4.1672  2.3861  0.8746
  188SLPC  H18T21719   2.708   0.837   8.396  1.5810 -1.3828 -3.2844
  188SLPC   C3321720   2.194   1.265   7.165 -0.4480 -0.2162 -0.0096
  188SLPC   H3X21721   2.296   1.258   7.208  0.5941  1.1198 -2.1150
  188SLPC   H3Y21722   2.172   1.165   7.121  1.2787 -0.3379 -0.6667
  188SLPC   C3421723   2.107   1.303   7.288  0.3604  0.3463  0.2158
  188SLPC   H4X21724   2.006   1.264   7.264  0.3871  0.4213 -0.0248
  188SLPC   H4Y21725   2.097   1.412   7.303 -1.1442  0.5288 -1.6815
  188SLPC   C3521726   2.153   1.242   7.432  0.1494  0.3553  0.2842
  188SLPC   H5X21727   2.258   1.275   7.447  0.3406  1.8904 -3.4856
  188SLPC   H5Y21728   2.152   1.130   7.434  1.8348  0.3301  0.9773
  188SLPC   C3621729   2.071   1.301   7.541 -1.1740  0.3663 -0.3936
  188SLPC   H6X21730   1.964   1.272   7.530 -1.3711  1.2240 -0.8242
  188SLPC   H6Y21731   2.076   1.412   7.540 -0.5202  0.3433 -1.8624
  188SLPC   C3721732   2.104   1.243   7.679 -0.1938  0.3002  0.9463
  188SLPC   H7X21733   2.212   1.261   7.692 -0.3576  2.0285  0.1590
  188SLPC   H7Y21734   2.091   1.133   7.671  0.0028  0.2719  1.0220
  188SLPC   C3821735   2.022   1.307   7.783 -0.3582 -0.2593  0.1487
  188SLPC   H8X21736   1.913   1.293   7.773 -0.1584 -1.5263 -0.4724
  188SLPC   H8Y21737   2.040   1.415   7.765  3.7291 -0.9687 -1.2192
  188SLPC   C3921738   2.071   1.285   7.929 -0.0367 -0.4350 -0.1052
  188SLPC   H9X21739   2.182   1.291   7.932 -0.1239  1.6474  2.2773
  188SLPC   H9Y21740   2.039   1.187   7.971 -1.7350 -0.2052 -0.8227
  188SLPC  C31021741   2.035   1.397   8.030  0.8257  0.6057  0.3163
  188SLPC  H10X21742   1.924   1.402   8.038  0.7599 -0.9394  0.7569
  188SLPC  H10Y21743   2.071   1.494   7.991 -0.9489  0.9577 -0.5738
  188SLPC  C31121744   2.087   1.374   8.175  0.9393  0.3988 -0.1538
  188SLPC  H11X21745   2.197   1.362   8.177  0.9805  0.4109  3.4879
  188SLPC  H11Y21746   2.045   1.277   8.209  1.5286 -0.1960 -1.0666
  188SLPC  C31221747   2.054   1.492   8.281 -0.1467  0.0473  0.1515
  188SLPC  H12X21748   1.947   1.521   8.269 -0.0357  1.4314  2.0631
  188SLPC  H12Y21749   2.108   1.583   8.248  1.0932 -0.9582 -0.6800
  188SLPC  C31321750   2.092   1.449   8.415  0.0397  0.4033 -0.3727
  188SLPC  H13X21751   2.181   1.383   8.409 -1.8635 -2.4816  0.8290
  188SLPC  H13Y21752   2.009   1.381   8.444  0.3769  0.1274 -0.0547
  188SLPC  C31421753   2.113   1.579   8.510 -0.4665  0.1732  0.6091
  188SLPC  H14X21754   2.024   1.643   8.494 -0.9994 -0.5546  0.6435
  188SLPC  H14Y21755   2.200   1.638   8.473 -1.1148  0.6372 -0.1908
  188SLPC  C31521756   2.118   1.552   8.656  0.5318 -0.0042 -0.0250
  188SLPC  H15X21757   2.200   1.481   8.683 -0.7571 -0.8115  1.9804
  188SLPC  H15Y21758   2.026   1.509   8.700 -2.7510  1.9738 -4.1765
  188SLPC  C31621759   2.165   1.675   8.740  0.2522  0.3798 -0.7084
  188SLPC  H16X21760   2.092   1.759   8.731 -3.1714 -1.9641  2.1708
  188SLPC  H16Y21761   2.270   1.704   8.717  0.3546 -1.3455 -2.6187
  188SLPC  C31721762   2.171   1.636   8.889  0.0556 -0.6841  0.3277
  188SLPC  H17X21763   2.249   1.558   8.886  0.6283 -0.1077 -0.2195
  188SLPC  H17Y21764   2.074   1.592   8.921  0.4745 -0.7127  1.5707
  188SLPC  C31821765   2.205   1.761   8.967 -0.5742 -0.1027  0.2351
  188SLPC  H18X21766   2.119   1.831   8.968  0.8372  1.7222  1.8138
  188SLPC  H18Y21767   2.303   1.790   8.923 -0.6748 -2.4730 -1.7614
  188SLPC  H18Z21768   2.222   1.736   9.074 -1.5923 -1.5224  0.0913
  189SLPC     N21769   2.860   3.051   6.266 -0.5364  0.1091 -0.3750
  189SLPC   C1321770   2.983   3.131   6.228  0.1869  0.3299  0.5646
  189SLPC  H13A21771   2.971   3.179   6.132  2.3023 -1.8721 -0.9266
  189SLPC  H13B21772   2.992   3.210   6.301  2.6975  0.0427  0.6655
  189SLPC  H13C21773   3.073   3.071   6.234  0.2607  0.2949 -0.6913
  189SLPC   C1421774   2.886   2.971   6.392  0.4334  0.5402  0.7884
  189SLPC  H14A21775   2.796   2.923   6.426 -0.2965  1.7812  0.6680
  189SLPC  H14B21776   2.957   2.891   6.374 -2.2134 -1.7698 -0.0497
  189SLPC  H14C21777   2.930   3.032   6.470 -0.0606  0.4427  1.1465
  189SLPC   C1521778   2.812   2.949   6.162 -0.4420 -0.3457 -0.6957
  189SLPC  H15A21779   2.768   3.009   6.084 -1.5901  1.0215  0.9284
  189SLPC  H15B21780   2.899   2.898   6.124  0.3634  0.8395 -0.4971
  189SLPC  H15C21781   2.738   2.878   6.195  0.5482 -1.1212 -0.0760
  189SLPC   C1221782   2.743   3.141   6.294 -0.2333 -0.4373 -0.0155
  189SLPC  H12A21783   2.656   3.080   6.315 -0.8460  1.1915  2.6348
  189SLPC  H12B21784   2.717   3.197   6.205  1.8043 -1.5328 -1.3760
  189SLPC   C1121785   2.745   3.235   6.416  0.3890 -0.1335 -0.3610
  189SLPC  H11A21786   2.756   3.173   6.507  2.8994  1.7190  0.7429
  189SLPC  H11B21787   2.649   3.285   6.440  0.4774 -1.2214  2.7320
  189SLPC     P21788   2.828   3.456   6.297  0.4564 -0.2059  0.1796
  189SLPC   O1321789   2.825   3.405   6.158 -0.0659 -0.0339  0.2603
  189SLPC   O1421790   2.707   3.531   6.338  0.2440  0.3588 -0.2037
  189SLPC   O1221791   2.848   3.335   6.405  0.1345 -0.8290  0.2092
  189SLPC   O1121792   2.956   3.543   6.311 -0.1738  0.3135  0.3064
  189SLPC    C121793   3.053   3.508   6.404  0.5381  0.7219 -0.1656
  189SLPC    HA21794   3.092   3.404   6.398 -1.0086  0.0682  0.5621
  189SLPC    HB21795   3.140   3.576   6.390  0.6992  0.7188  0.7743
  189SLPC    C221796   3.014   3.556   6.549 -0.7284  0.1343 -0.5118
  189SLPC    HS21797   2.957   3.475   6.598  2.2066 -0.2809  2.6028
  189SLPC   O2121798   2.945   3.684   6.547  0.2489 -0.1352  0.6444
  189SLPC   C2121799   2.880   3.725   6.655  0.0769 -0.2175 -0.5295
  189SLPC   O2221800   2.892   3.678   6.764 -0.1725  0.2392 -0.7703
  189SLPC   C2221801   2.796   3.847   6.611  0.0783  0.7688 -0.3832
  189SLPC   H2R21802   2.856   3.913   6.545  1.4630 -2.1528 -2.2203
  189SLPC   H2S21803   2.710   3.798   6.562 -0.0639 -0.8297  1.3326
  189SLPC    C321804   3.136   3.573   6.640 -0.2141  0.0755 -0.3717
  189SLPC    HX21805   3.106   3.593   6.745  0.3400  1.0233 -0.3889
  189SLPC    HY21806   3.182   3.668   6.607 -0.4436  0.2586 -0.1704
  189SLPC   O3121807   3.232   3.460   6.625  0.1537  0.0371 -0.5596
  189SLPC   C3121808   3.348   3.484   6.693 -0.2179 -0.4717  0.3612
  189SLPC   O3221809   3.366   3.575   6.771 -0.2346 -0.2087  0.0660
  189SLPC   C3221810   3.446   3.375   6.655 -0.4307  0.2457  0.0265
  189SLPC   H2X21811   3.509   3.422   6.577 -2.3294  1.0670 -1.0867
  189SLPC   H2Y21812   3.401   3.282   6.612  0.0020  0.3906 -0.7628
  189SLPC   C2321813   2.753   3.937   6.732  0.2792  0.6308  0.0334
  189SLPC   H3R21814   2.715   4.029   6.682 -0.2377  0.0417 -0.6896
  189SLPC   H3S21815   2.842   3.973   6.788 -0.4247  2.7348 -0.0772
  189SLPC   C2421816   2.654   3.875   6.838 -0.3310  0.1903  0.1246
  189SLPC   H4R21817   2.724   3.827   6.910  0.2137  1.9920  0.8524
  189SLPC   H4S21818   2.583   3.801   6.796 -2.3581  1.4192  1.2093
  189SLPC   C2521819   2.573   3.984   6.920 -0.4698  0.8226 -0.2654
  189SLPC   H5R21820   2.520   4.051   6.849 -0.7356  0.9860  0.0816
  189SLPC   H5S21821   2.637   4.042   6.990 -1.1753 -1.4545  2.4624
  189SLPC   C2621822   2.471   3.916   7.019 -0.4162  0.1272 -1.1470
  189SLPC   H6R21823   2.389   3.876   6.955 -0.2018  0.0399 -1.3649
  189SLPC   H6S21824   2.424   3.994   7.082 -0.4496 -1.3375  0.7192
  189SLPC   C2721825   2.529   3.796   7.103 -0.0398  0.3259  0.2881
  189SLPC   H7R21826   2.557   3.707   7.042  1.7566  1.0446 -0.0124
  189SLPC   H7S21827   2.444   3.756   7.163  0.1373  1.1130  1.0874
  189SLPC   C2821828   2.635   3.858   7.200  0.7719 -0.5623  0.1421
  189SLPC   H8R21829   2.695   3.929   7.139 -0.3188  0.0845 -0.2001
  189SLPC   H8S21830   2.708   3.778   7.225  0.0750 -1.1599  0.2793
  189SLPC   C2921831   2.580   3.919   7.327 -0.2707 -0.5536 -0.7972
  189SLPC   H9R21832   2.538   4.019   7.313  0.8460 -0.1780 -1.6102
  189SLPC  C21021833   2.575   3.869   7.455 -0.4962  0.1040  1.0114
  189SLPC  H10R21834   2.560   3.947   7.532  0.3359 -1.0483  2.3846
  189SLPC  C21121835   2.615   3.732   7.514  0.3562 -0.1389  0.0756
  189SLPC  H11R21836   2.586   3.645   7.451  1.5390  0.4062 -1.2669
  189SLPC  H11S21837   2.566   3.716   7.613  0.0797 -2.2780 -0.3588
  189SLPC  C21221838   2.767   3.723   7.539 -0.6262 -0.6848 -0.2324
  189SLPC  H12R21839   2.828   3.789   7.476  0.3037 -2.1527 -0.9282
  189SLPC  C21321840   2.840   3.661   7.641  0.6826 -0.3935  0.3043
  189SLPC  H13R21841   2.949   3.664   7.633  0.6261 -1.3935 -1.2208
  189SLPC  C21421842   2.775   3.590   7.758 -0.1483  0.1146 -0.5378
  189SLPC  H14R21843   2.782   3.480   7.738 -0.0204 -0.0114  0.1736
  189SLPC  H14S21844   2.668   3.618   7.766 -0.5072 -0.6615 -2.1941
  189SLPC  C21521845   2.844   3.607   7.898  0.4761 -0.2642  0.5001
  189SLPC  H15R21846   2.847   3.717   7.909 -1.2360 -0.0733 -0.6337
  189SLPC  H15S21847   2.950   3.575   7.890  1.2023  1.9581  0.5391
  189SLPC  C21621848   2.755   3.541   8.010 -0.2686 -0.5922 -0.8876
  189SLPC  H16R21849   2.754   3.431   7.999 -0.9839 -0.9627  2.1571
  189SLPC  H16S21850   2.650   3.575   7.999 -0.1306  0.4275  0.6644
  189SLPC  C21721851   2.800   3.568   8.159 -0.1277  0.4312  0.3471
  189SLPC  H17R21852   2.800   3.678   8.176 -0.2628  0.4909 -0.0296
  189SLPC  H17S21853   2.908   3.548   8.173 -0.1104  1.5079  2.0829
  189SLPC  C21821854   2.725   3.482   8.255  0.6705 -0.3320  0.2221
  189SLPC  H18R21855   2.617   3.506   8.257  1.0645  1.5448  0.6991
  189SLPC  H18S21856   2.764   3.488   8.359 -3.3856  0.0253  1.9037
  189SLPC  H18T21857   2.719   3.373   8.230 -0.3192  0.0318 -1.2539
  189SLPC   C3321858   3.537   3.339   6.775 -0.4263 -0.6549 -0.5554
  189SLPC   H3X21859   3.585   3.428   6.820 -1.1958 -0.5463  0.0793
  189SLPC   H3Y21860   3.621   3.270   6.752  0.6741  0.5086 -0.1271
  189SLPC   C3421861   3.453   3.276   6.889  1.0121 -0.0166 -0.2406
  189SLPC   H4X21862   3.399   3.190   6.844 -0.6771 -0.2731  2.1352
  189SLPC   H4Y21863   3.380   3.340   6.942  3.3325 -0.1006  3.4696
  189SLPC   C3521864   3.546   3.227   7.002 -0.6555  0.3853 -0.0762
  189SLPC   H5X21865   3.599   3.313   7.049  0.4080 -0.3037  0.0005
  189SLPC   H5Y21866   3.632   3.164   6.974 -1.2827 -1.0340  1.0950
  189SLPC   C3621867   3.455   3.163   7.110 -0.3695 -0.1890  0.2204
  189SLPC   H6X21868   3.406   3.069   7.078  1.7815 -1.0629 -0.7202
  189SLPC   H6Y21869   3.381   3.242   7.136 -0.8586 -0.8877  1.0061
  189SLPC   C3721870   3.532   3.137   7.240 -0.9820 -0.1955  0.6234
  189SLPC   H7X21871   3.464   3.068   7.294 -0.2032  1.4020  3.8791
  189SLPC   H7Y21872   3.549   3.232   7.294  2.3935 -0.3107 -0.0386
  189SLPC   C3821873   3.662   3.060   7.235  0.1552  0.6027 -0.0282
  189SLPC   H8X21874   3.739   3.109   7.172 -0.9965  1.1784 -1.0221
  189SLPC   H8Y21875   3.657   2.957   7.194  1.0759  0.1277  0.9918
  189SLPC   C3921876   3.727   3.052   7.372 -0.1680  0.2462  0.6468
  189SLPC   H9X21877   3.754   3.157   7.397  0.9225  0.0944  0.1551
  189SLPC   H9Y21878   3.821   2.993   7.368  0.2620  0.9710 -0.1607
  189SLPC  C31021879   3.624   3.010   7.481 -1.5302  0.0283 -0.7495
  189SLPC  H10X21880   3.587   2.910   7.449  0.4709 -1.0499  0.1139
  189SLPC  H10Y21881   3.539   3.079   7.499 -0.5782  1.4004 -1.3255
  189SLPC  C31121882   3.692   2.992   7.616  0.5826  0.1496  0.5691
  189SLPC  H11X21883   3.723   3.090   7.659  1.1736  1.4973 -2.6411
  189SLPC  H11Y21884   3.790   2.940   7.609 -0.1476 -1.1670 -0.2997
  189SLPC  C31221885   3.608   2.905   7.715  0.1019 -0.6934  0.5431
  189SLPC  H12X21886   3.577   2.805   7.677  0.5865 -0.4255 -0.5770
  189SLPC  H12Y21887   3.520   2.964   7.749 -1.0292 -2.9174  1.7291
  189SLPC  C31321888   3.694   2.885   7.849 -0.0150 -0.3504  0.2836
  189SLPC  H13X21889   3.732   2.981   7.889  0.4232 -0.9190  1.2531
  189SLPC  H13Y21890   3.781   2.824   7.818  2.1184  2.5285  0.2586
  189SLPC  C31421891   3.623   2.819   7.964  0.0602 -0.2069 -1.3963
  189SLPC  H14X21892   3.536   2.876   8.002  2.2939  1.3469  1.9016
  189SLPC  H14Y21893   3.690   2.820   8.053 -1.6085  3.4915 -0.0074
  189SLPC  C31521894   3.573   2.677   7.942  0.3983  0.3319  0.7158
  189SLPC  H15X21895   3.572   2.641   7.837 -1.0348 -1.0681  1.1653
  189SLPC  H15Y21896   3.471   2.673   7.987 -0.1598  1.1886 -0.4160
  189SLPC  C31621897   3.658   2.574   8.019  0.2062  0.5715 -0.3804
  189SLPC  H16X21898   3.756   2.623   8.033  0.0872  1.2316 -1.6674
  189SLPC  H16Y21899   3.684   2.486   7.956 -1.4687 -0.1683 -0.0851
  189SLPC  C31721900   3.591   2.530   8.151 -1.1349 -0.5973  0.0954
  189SLPC  H17X21901   3.600   2.421   8.171 -0.4640 -0.1553  2.4712
  189SLPC  H17Y21902   3.482   2.549   8.136 -0.9885 -0.7182 -1.2348
  189SLPC  C31821903   3.649   2.606   8.265 -0.8378 -0.2884 -0.5625
  189SLPC  H18X21904   3.760   2.599   8.262 -0.6653  0.7154  1.5217
  189SLPC  H18Y21905   3.621   2.556   8.360  1.0111 -0.7810 -0.2368
  189SLPC  H18Z21906   3.630   2.715   8.255  1.5211  0.3158  0.5827
  190SLPC     N21907   1.996   5.711   6.030  0.1417  0.1612  0.1156
  190SLPC   C1321908   2.010   5.679   6.181 -0.8209 -0.1414  0.4612
  190SLPC  H13A21909   1.934   5.607   6.209 -0.1829 -0.1975  2.1677
  190SLPC  H13B21910   2.107   5.636   6.200 -1.7500 -1.2065  3.5204
  190SLPC  H13C21911   1.995   5.771   6.237 -0.9030  2.1461 -3.0314
  190SLPC   C1421912   2.097   5.823   6.006  0.1306  0.8619 -0.0047
  190SLPC  H14A21913   2.081   5.909   6.069  1.8866  0.5345  0.9559
  190SLPC  H14B21914   2.198   5.788   6.022 -0.0901  0.0313 -0.3417
  190SLPC  H14C21915   2.099   5.850   5.901 -2.2581  0.1992 -0.2627
  190SLPC   C1521916   1.860   5.756   6.016  0.5157  0.1089 -0.2761
  190SLPC  H15A21917   1.784   5.680   6.029  1.3475 -0.8017 -0.6793
  190SLPC  H15B21918   1.839   5.823   6.099  0.2057 -0.6735  0.2865
  190SLPC  H15C21919   1.844   5.800   5.919 -0.9677 -0.0135 -0.1122
  190SLPC   C1221920   2.028   5.587   5.948 -0.0280  0.4570  0.5003
  190SLPC  H12A21921   2.134   5.567   5.962 -0.2070 -1.3704 -0.4400
  190SLPC  H12B21922   2.011   5.624   5.849  2.0956 -1.6907 -0.7717
  190SLPC   C1121923   1.951   5.458   5.984  0.4832 -0.7577 -0.3316
  190SLPC  H11A21924   1.999   5.438   6.082  2.7282 -0.8309 -1.3635
  190SLPC  H11B21925   1.969   5.377   5.909 -0.2608 -0.4849 -0.8130
  190SLPC     P21926   1.712   5.417   6.099  0.3154  0.0262 -0.0337
  190SLPC   O1321927   1.585   5.489   6.086 -0.2780  0.2815  0.5053
  190SLPC   O1421928   1.711   5.272   6.085  0.5293  0.4376 -0.1916
  190SLPC   O1221929   1.806   5.482   5.995 -0.5286 -0.1833  0.8050
  190SLPC   O1121930   1.795   5.454   6.239  0.1667  0.0793 -0.9215
  190SLPC    C121931   1.723   5.521   6.347 -0.4999  0.6072 -0.5921
  190SLPC    HA21932   1.765   5.621   6.368 -1.2576  0.2005  3.7020
  190SLPC    HB21933   1.619   5.551   6.321 -0.1384  1.6841 -0.8427
  190SLPC    C221934   1.713   5.439   6.482 -0.0318 -0.3499  0.4081
  190SLPC    HS21935   1.660   5.508   6.551 -1.6425 -0.8883 -0.2382
  190SLPC   O2121936   1.838   5.400   6.545 -0.0790 -0.1467 -0.2794
  190SLPC   C2121937   1.834   5.397   6.677 -0.0848 -0.3401  0.6280
  190SLPC   O2221938   1.747   5.453   6.746 -0.9692 -0.2189  0.0070
  190SLPC   C2221939   1.956   5.321   6.729  0.5709  0.6336  0.0812
  190SLPC   H2R21940   1.954   5.221   6.681 -1.9296  0.1162  1.1190
  190SLPC   H2S21941   2.038   5.392   6.707  1.0306  0.1774  0.3061
  190SLPC    C321942   1.624   5.309   6.456 -1.3626  0.0485  0.0951
  190SLPC    HX21943   1.688   5.251   6.386 -2.1327 -0.8386  0.1173
  190SLPC    HY21944   1.530   5.342   6.407 -0.5034  2.1393 -0.2952
  190SLPC   O3121945   1.593   5.236   6.577 -0.1372 -0.2329 -0.5931
  190SLPC   C3121946   1.675   5.129   6.610  0.2529 -0.2720  0.2389
  190SLPC   O3221947   1.768   5.086   6.547  0.5751 -0.0567  0.8994
  190SLPC   C3221948   1.625   5.075   6.744  0.1987 -0.7568 -0.8849
  190SLPC   H2X21949   1.530   5.022   6.722 -0.1242 -0.9834  0.8903
  190SLPC   H2Y21950   1.613   5.163   6.811 -0.2544  0.0908 -2.0499
  190SLPC   C2321951   1.946   5.295   6.881  0.1032  0.5473 -0.2658
  190SLPC   H3R21952   1.848   5.245   6.896 -0.6448  2.4359  1.4776
  190SLPC   H3S21953   1.938   5.388   6.940 -0.9317 -0.7764  1.7820
  190SLPC   C2421954   2.062   5.206   6.930 -0.8733 -0.5081  0.3204
  190SLPC   H4R21955   2.153   5.269   6.932 -0.1595 -1.4837 -0.3336
  190SLPC   H4S21956   2.075   5.119   6.862 -1.3780 -0.4849  0.1850
  190SLPC   C2521957   2.044   5.147   7.073  0.2689  0.4192 -0.3339
  190SLPC   H5R21958   1.964   5.072   7.057  1.8376 -1.1533 -1.2202
  190SLPC   H5S21959   2.008   5.230   7.138  0.5729 -0.1694  0.6066
  190SLPC   C2621960   2.163   5.074   7.131 -0.4124  0.6989 -0.0020
  190SLPC   H6R21961   2.245   5.141   7.166 -0.8484  0.6811  1.0928
  190SLPC   H6S21962   2.202   4.998   7.060 -0.7865  0.4661  0.0414
  190SLPC   C2721963   2.132   4.989   7.249  0.1463  0.5330  0.2243
  190SLPC   H7R21964   2.049   4.918   7.227  0.2650  0.8051 -1.2298
  190SLPC   H7S21965   2.087   5.057   7.324 -1.4959 -0.4669  0.1970
  190SLPC   C2821966   2.250   4.918   7.319  0.6365  0.0881 -0.4423
  190SLPC   H8R21967   2.300   4.836   7.264  1.5917 -0.4045  1.0881
  190SLPC   H8S21968   2.203   4.863   7.403  1.0820 -1.4963 -1.1982
  190SLPC   C2921969   2.346   5.012   7.374  0.7478  0.2438 -0.3364
  190SLPC   H9R21970   2.430   5.040   7.308  1.2135  0.3753  0.3045
  190SLPC  C21021971   2.341   5.057   7.500 -0.5929 -0.5397  0.6863
  190SLPC  H10R21972   2.420   5.123   7.540 -1.1808  0.3623  0.3877
  190SLPC  C21121973   2.239   5.010   7.597  0.3755  0.3436 -0.3861
  190SLPC  H11R21974   2.270   4.908   7.629 -2.8618 -1.0838 -1.4122
  190SLPC  H11S21975   2.142   4.997   7.545 -0.2201  1.7730  0.2980
  190SLPC  C21221976   2.214   5.105   7.715 -0.9111 -0.2657 -0.2508
  190SLPC  H12R21977   2.124   5.167   7.715  0.2048  1.4092  0.1024
  190SLPC  C21321978   2.280   5.126   7.832 -0.7426  0.6718  0.4232
  190SLPC  H13R21979   2.237   5.203   7.897  0.8743  0.5628  1.6775
  190SLPC  C21421980   2.411   5.064   7.874  0.3535  0.0290  0.1810
  190SLPC  H14R21981   2.481   5.138   7.920 -0.3527  1.4992 -1.0216
  190SLPC  H14S21982   2.465   5.020   7.788  0.7652 -0.6700  0.7879
  190SLPC  C21521983   2.387   4.954   7.980 -0.1277  0.3016 -0.0058
  190SLPC  H15R21984   2.484   4.921   8.025  0.9668  1.0182 -1.7184
  190SLPC  H15S21985   2.352   4.866   7.921  2.3076 -1.4237  0.9382
  190SLPC  C21621986   2.298   4.985   8.103 -0.2687 -0.4272  0.3774
  190SLPC  H16R21987   2.275   4.891   8.156  1.4318 -0.1431  1.7045
  190SLPC  H16S21988   2.203   5.032   8.068  0.3262  0.3510 -0.2395
  190SLPC  C21721989   2.377   5.082   8.192  0.4024  0.4448 -0.3428
  190SLPC  H17R21990   2.401   5.170   8.128 -0.3789  0.5216 -0.5383
  190SLPC  H17S21991   2.478   5.041   8.218 -0.0547  0.2899  1.2754
  190SLPC  C21821992   2.306   5.128   8.314  0.0225 -0.4653  0.8964
  190SLPC  H18R21993   2.230   5.203   8.284 -1.4039 -1.3040  2.2094
  190SLPC  H18S21994   2.378   5.184   8.378  0.7500  0.7621 -0.9205
  190SLPC  H18T21995   2.261   5.041   8.367  0.8153 -1.3975  0.0638
  190SLPC   C3321996   1.717   4.971   6.800 -0.1687  0.4464  0.4950
  190SLPC   H3X21997   1.810   5.020   6.837 -0.6101  1.7262 -0.0566
  190SLPC   H3Y21998   1.746   4.890   6.730  0.6660 -0.7124  2.0857
  190SLPC   C3421999   1.655   4.897   6.917  1.5374 -0.1532 -0.0348
  190SLPC   H4X22000   1.559   4.847   6.892  0.4159  2.3087 -1.0034
  190SLPC   H4Y22001   1.615   4.965   6.996  1.7849  1.5466 -1.3292
  190SLPC   C3522002   1.738   4.782   6.969  0.0996  0.8572 -0.8827
  190SLPC   H5X22003   1.841   4.819   6.990  1.8997 -2.3432 -3.1471
  190SLPC   H5Y22004   1.750   4.704   6.891  0.7817  0.3182 -0.2578
  190SLPC   C3622005   1.689   4.734   7.108 -0.5639 -0.7861  0.2801
  190SLPC   H6X22006   1.720   4.627   7.108  0.5653 -0.5969 -3.0156
  190SLPC   H6Y22007   1.579   4.716   7.109 -0.7227  0.0994  1.4263
  190SLPC   C3722008   1.748   4.817   7.230 -0.1170  0.1885  0.3184
  190SLPC   H7X22009   1.702   4.918   7.230  0.1481  0.3121  0.3012
  190SLPC   H7Y22010   1.858   4.824   7.213 -0.3704  2.5703 -0.8028
  190SLPC   C3822011   1.726   4.745   7.365 -0.1306  0.5025  0.0259
  190SLPC   H8X22012   1.779   4.647   7.367 -0.5424  0.2842  1.1024
  190SLPC   H8Y22013   1.618   4.747   7.391 -0.4776  1.2010 -1.3861
  190SLPC   C3922014   1.788   4.824   7.482  0.4559 -0.4168  0.1196
  190SLPC   H9X22015   1.737   4.922   7.495  0.1459 -0.2772 -1.8032
  190SLPC   H9Y22016   1.896   4.831   7.460  0.4084 -3.6299 -1.7452
  190SLPC  C31022017   1.790   4.745   7.615 -0.5195  0.1300 -0.5188
  190SLPC  H10X22018   1.825   4.641   7.596 -0.1037  0.2094 -0.2012
  190SLPC  H10Y22019   1.687   4.739   7.658 -0.2459 -1.8595 -0.0155
  190SLPC  C31122020   1.879   4.802   7.729  0.2648  0.1476 -0.2238
  190SLPC  H11X22021   1.828   4.894   7.763 -0.4610 -0.1720 -0.4137
  190SLPC  H11Y22022   1.981   4.824   7.691 -0.6557  0.9898 -2.3815
  190SLPC  C31222023   1.896   4.697   7.839  0.0351  0.3307 -0.1461
  190SLPC  H12X22024   1.959   4.615   7.798  5.7858  4.9066 -1.6915
  190SLPC  H12Y22025   1.795   4.662   7.872  0.3828 -0.5572  0.0021
  190SLPC  C31322026   1.948   4.747   7.975 -0.1576 -0.6903 -0.4797
  190SLPC  H13X22027   1.891   4.835   8.011 -1.1507 -2.0830  1.5133
  190SLPC  H13Y22028   2.051   4.778   7.948 -0.6769  1.3857 -0.2412
  190SLPC  C31422029   1.956   4.636   8.079 -0.3770  0.2369 -0.4293
  190SLPC  H14X22030   1.983   4.541   8.027  0.3758  0.4655 -0.4653
  190SLPC  H14Y22031   1.855   4.610   8.117  0.8083 -1.1678  1.9917
  190SLPC  C31522032   2.045   4.670   8.199  0.4364  0.1415 -0.1477
  190SLPC  H15X22033   2.141   4.701   8.154  0.3219 -1.3491 -1.4781
  190SLPC  H15Y22034   2.080   4.573   8.239 -1.8175 -0.6051  0.1542
  190SLPC  C31622035   1.989   4.741   8.314  0.4959 -0.1003  0.1047
  190SLPC  H16X22036   1.889   4.702   8.344  1.1294 -0.0061  2.6272
  190SLPC  H16Y22037   1.976   4.847   8.284  1.7874 -0.8316 -3.5225
  190SLPC  C31722038   2.063   4.740   8.448  0.1197 -0.1994 -0.4630
  190SLPC  H17X22039   2.158   4.792   8.425  0.1308 -0.6673 -1.4886
  190SLPC  H17Y22040   2.082   4.636   8.481 -0.9184 -0.8342 -1.7674
  190SLPC  C31822041   1.983   4.798   8.568  0.0980  0.6608  0.2439
  190SLPC  H18X22042   2.030   4.783   8.667  0.8041 -0.3838 -0.2325
  190SLPC  H18Y22043   1.882   4.751   8.575 -0.3127  1.2623 -1.2442
  190SLPC  H18Z22044   1.978   4.908   8.553  1.9600  0.8112  0.4897
  191SLPC     N22045   4.020   4.310   5.923 -1.1009 -0.5007  0.5530
  191SLPC   C1322046   3.937   4.195   5.974 -0.1934  0.6452 -0.0744
  191SLPC  H13A22047   3.944   4.109   5.909 -0.6888  0.4595  0.1172
  191SLPC  H13B22048   3.949   4.151   6.072 -0.6782 -0.3980 -0.4669
  191SLPC  H13C22049   3.838   4.237   5.966  0.2596  1.5401 -1.1292
  191SLPC   C1422050   3.968   4.341   5.787  0.8773 -0.2132 -0.1128
  191SLPC  H14A22051   3.860   4.345   5.784  0.9093  0.7186 -2.4422
  191SLPC  H14B22052   3.987   4.441   5.751 -1.4858 -0.0995 -1.2677
  191SLPC  H14C22053   4.010   4.274   5.713 -1.6690  0.0474 -1.9473
  191SLPC   C1522054   4.165   4.268   5.914 -0.3407 -0.0464 -0.5901
  191SLPC  H15A22055   4.199   4.241   6.013 -0.7107  2.5035  0.2941
  191SLPC  H15B22056   4.178   4.178   5.855 -0.2237 -0.4877  0.0911
  191SLPC  H15C22057   4.228   4.342   5.867 -1.0788  1.3509  0.5423
  191SLPC   C1222058   4.019   4.425   6.022  1.1052 -0.0546  0.3573
  191SLPC  H12A22059   4.064   4.515   5.981  0.4479 -0.6193 -1.7053
  191SLPC  H12B22060   4.080   4.401   6.109 -0.3109 -0.5831  1.2351
  191SLPC   C1122061   3.881   4.462   6.083  0.0797 -0.7760 -0.0292
  191SLPC  H11A22062   3.910   4.515   6.176  2.1454 -0.7510 -0.6508
  191SLPC  H11B22063   3.826   4.368   6.109  0.2247 -1.7932 -3.0537
  191SLPC     P22064   3.659   4.497   5.950 -0.0660  0.2089  0.1152
  191SLPC   O1322065   3.579   4.619   5.929  0.0180  0.1575 -0.2365
  191SLPC   O1422066   3.673   4.407   5.834 -0.9938  0.1728 -0.5344
  191SLPC   O1222067   3.803   4.545   6.003  0.8435  0.0458  0.2171
  191SLPC   O1122068   3.595   4.410   6.068 -0.2263 -0.7766 -0.2475
  191SLPC    C122069   3.546   4.489   6.179  0.1597  0.3860  0.2259
  191SLPC    HA22070   3.604   4.584   6.182 -0.5574  0.9393 -1.8381
  191SLPC    HB22071   3.439   4.510   6.160 -0.5885 -1.8132  1.6477
  191SLPC    C222072   3.559   4.411   6.316  0.1383 -0.1443  0.6797
  191SLPC    HS22073   3.500   4.461   6.395  0.4391 -0.9490  1.4307
  191SLPC   O2122074   3.698   4.406   6.361  0.4122  0.2995 -0.2800
  191SLPC   C2122075   3.742   4.512   6.419  0.0868  0.5240  0.4032
  191SLPC   O2222076   3.687   4.624   6.427 -0.2780  0.3243  0.4344
  191SLPC   C2222077   3.878   4.460   6.483 -0.4444  0.5513 -0.0144
  191SLPC   H2R22078   3.914   4.382   6.413  2.0267 -1.6394  3.3360
  191SLPC   H2S22079   3.940   4.551   6.501 -1.0032  0.7184  1.1924
  191SLPC    C322080   3.513   4.268   6.295  0.2068  0.3016 -0.1547
  191SLPC    HX22081   3.582   4.218   6.223 -0.0006 -0.3785  0.1168
  191SLPC    HY22082   3.412   4.269   6.249 -0.1006  0.9529  0.5160
  191SLPC   O3122083   3.500   4.208   6.423  0.1718 -0.3086 -0.1661
  191SLPC   C3122084   3.549   4.091   6.433  0.6595  0.2993 -0.4209
  191SLPC   O3222085   3.641   4.041   6.367  0.0879 -0.2415 -0.3840
  191SLPC   C3222086   3.483   4.023   6.550  0.3091  0.2627 -0.7064
  191SLPC   H2X22087   3.517   4.070   6.646 -0.7540 -0.9182  0.2823
  191SLPC   H2Y22088   3.518   3.918   6.563  1.4791  0.8592  1.6335
  191SLPC   C2322089   3.871   4.385   6.620  0.4780 -0.3350  0.3535
  191SLPC   H3R22090   3.825   4.440   6.705  1.2348 -1.4625  1.5143
  191SLPC   H3S22091   3.971   4.360   6.659  0.7369  1.1638  0.7252
  191SLPC   C2422092   3.790   4.256   6.600 -0.2289  0.2633 -0.3942
  191SLPC   H4R22093   3.817   4.209   6.503 -1.4490 -1.3025 -0.0080
  191SLPC   H4S22094   3.681   4.277   6.605 -0.4406 -1.0667  1.5787
  191SLPC   C2522095   3.825   4.147   6.703 -0.0033 -0.1742  0.7076
  191SLPC   H5R22096   3.729   4.102   6.737 -0.8809  0.4385 -0.8173
  191SLPC   H5S22097   3.876   4.192   6.791  1.4028  1.1297 -0.6938
  191SLPC   C2622098   3.913   4.043   6.630  0.0450 -0.5564 -0.8033
  191SLPC   H6R22099   4.002   4.098   6.594 -0.9975  1.3584 -0.5724
  191SLPC   H6S22100   3.852   4.011   6.542 -0.1504 -1.0485 -0.4953
  191SLPC   C2722101   3.939   3.924   6.728  0.0995 -0.2328 -0.5192
  191SLPC   H7R22102   3.982   3.838   6.672 -0.4955 -2.0811  1.6912
  191SLPC   H7S22103   3.837   3.892   6.756 -0.1855  0.3512 -0.8802
  191SLPC   C2822104   4.025   3.954   6.846  1.1887  0.3002  0.3462
  191SLPC   H8R22105   3.992   3.894   6.934  0.1031  0.6737  0.2018
  191SLPC   H8S22106   4.009   4.057   6.883  1.9909  0.1912  1.0321
  191SLPC   C2922107   4.181   3.931   6.813  1.0992  0.6427 -0.0737
  191SLPC   H9R22108   4.210   3.973   6.716 -0.5426  2.9624  0.3626
  191SLPC  C21022109   4.270   3.860   6.885 -0.0870  0.8044  0.2300
  191SLPC  H10R22110   4.370   3.836   6.846 -0.7852 -1.7971 -0.2001
  191SLPC  C21122111   4.235   3.791   7.014  0.0483  0.0488 -0.3045
  191SLPC  H11R22112   4.273   3.687   7.009 -0.3307 -0.1699  1.0629
  191SLPC  H11S22113   4.125   3.786   7.030 -0.0300 -0.6158 -1.0188
  191SLPC  C21222114   4.290   3.856   7.141 -0.1447 -0.2076  1.0861
  191SLPC  H12R22115   4.361   3.940   7.128  0.2993 -0.5512  1.2518
  191SLPC  C21322116   4.267   3.815   7.267  0.3749  0.1223  0.0110
  191SLPC  H13R22117   4.305   3.876   7.350  1.6636 -0.8623  0.1753
  191SLPC  C21422118   4.180   3.701   7.312 -0.0766 -0.1518 -0.5648
  191SLPC  H14R22119   4.231   3.602   7.318  1.3410  0.5988  4.4303
  191SLPC  H14S22120   4.093   3.701   7.244  0.2102  1.0554 -0.9501
  191SLPC  C21522121   4.119   3.744   7.457 -0.0788  0.1990 -0.4176
  191SLPC  H15R22122   4.033   3.681   7.489 -0.7712  0.5595 -1.5205
  191SLPC  H15S22123   4.088   3.850   7.465  1.4887  0.7636 -1.3766
  191SLPC  C21622124   4.228   3.737   7.577  0.6628 -0.0950  0.5358
  191SLPC  H16R22125   4.169   3.731   7.670  1.7918  0.7329  1.3306
  191SLPC  H16S22126   4.288   3.831   7.584 -0.2259  0.4711  0.6772
  191SLPC  C21722127   4.334   3.618   7.563  0.5651  0.0828 -0.8938
  191SLPC  H17R22128   4.391   3.647   7.472  0.7525  1.8387 -0.2578
  191SLPC  H17S22129   4.273   3.527   7.545  1.8151 -0.5619 -2.0337
  191SLPC  C21822130   4.419   3.594   7.683 -0.9999 -1.0165 -0.8015
  191SLPC  H18R22131   4.366   3.582   7.780  0.7709 -1.1176  0.2046
  191SLPC  H18S22132   4.487   3.682   7.691 -0.0131 -1.9125  2.0826
  191SLPC  H18T22133   4.476   3.501   7.666  1.4447  0.4160 -0.9470
  191SLPC   C3322134   3.328   4.010   6.536 -0.2550 -0.3664  0.1192
  191SLPC   H3X22135   3.315   3.967   6.434 -0.0430  1.0223 -0.5135
  191SLPC   H3Y22136   3.295   4.116   6.525  0.3071 -0.1943  0.0723
  191SLPC   C3422137   3.242   3.935   6.637  0.1557 -0.3860 -0.2643
  191SLPC   H4X22138   3.297   3.842   6.663 -1.7663 -2.4470 -2.9482
  191SLPC   H4Y22139   3.142   3.901   6.601  0.3781  0.8620 -2.1387
  191SLPC   C3522140   3.211   4.009   6.769 -0.0157 -0.2429 -0.2851
  191SLPC   H5X22141   3.159   4.102   6.737  0.9403  0.2184 -0.5376
  191SLPC   H5Y22142   3.309   4.047   6.806 -0.5441 -0.1470  1.0723
  191SLPC   C3622143   3.131   3.933   6.869 -0.2114  0.3144  0.3042
  191SLPC   H6X22144   3.177   3.832   6.872 -0.6915  0.0916  3.1841
  191SLPC   H6Y22145   3.026   3.920   6.835 -0.2716 -0.4502  0.7660
  191SLPC   C3722146   3.136   3.996   7.004 -0.4495 -1.2378 -0.0793
  191SLPC   H7X22147   3.089   4.097   7.009  1.4077 -0.3795  0.9421
  191SLPC   H7Y22148   3.242   4.000   7.036 -1.0996  0.8610  2.1031
  191SLPC   C3822149   3.047   3.917   7.099  0.1609  0.6238  0.1852
  191SLPC   H8X22150   3.053   3.806   7.087  1.2794  0.5153  1.5080
  191SLPC   H8Y22151   2.942   3.948   7.081 -1.0295 -2.7158  0.5986
  191SLPC   C3922152   3.075   3.954   7.246  0.7137  0.2528 -0.1769
  191SLPC   H9X22153   2.977   3.955   7.300  0.6579  0.8804 -0.2838
  191SLPC   H9Y22154   3.095   4.063   7.254  0.7636  0.3015 -0.9526
  191SLPC  C31022155   3.167   3.854   7.320  0.0018 -0.7732 -0.1988
  191SLPC  H10X22156   3.261   3.877   7.266 -0.5056 -0.1451 -0.8484
  191SLPC  H10Y22157   3.131   3.750   7.308  0.2726 -0.8319 -0.5036
  191SLPC  C31122158   3.199   3.891   7.467 -0.3908  0.0361  0.2874
  191SLPC  H11X22159   3.100   3.925   7.504 -1.5598 -0.0278 -2.5134
  191SLPC  H11Y22160   3.275   3.971   7.450 -2.0913  1.3644 -1.6604
  191SLPC  C31222161   3.246   3.781   7.556  0.2321 -0.1356 -0.1411
  191SLPC  H12X22162   3.337   3.729   7.518 -0.3113  0.0522 -1.7795
  191SLPC  H12Y22163   3.162   3.708   7.554  0.7908 -0.9455  2.1965
  191SLPC  C31322164   3.248   3.816   7.704  0.3893  0.2068  0.4118
  191SLPC  H13X22165   3.150   3.854   7.740  0.6698 -0.5113  2.0137
  191SLPC  H13Y22166   3.315   3.900   7.733 -1.4636  0.9355  2.9300
  191SLPC  C31422167   3.281   3.702   7.801  0.6762 -0.1381 -0.2490
  191SLPC  H14X22168   3.385   3.668   7.786  2.2224  3.8087  0.2827
  191SLPC  H14Y22169   3.213   3.615   7.786  1.7587 -1.1789  0.7311
  191SLPC  C31522170   3.257   3.742   7.940 -0.2009 -0.7823 -0.3413
  191SLPC  H15X22171   3.156   3.787   7.950 -0.6553 -2.2191  2.5906
  191SLPC  H15Y22172   3.332   3.817   7.972  1.7468 -2.4205 -0.9091
  191SLPC  C31622173   3.257   3.621   8.033 -0.1994  0.2648 -0.2225
  191SLPC  H16X22174   3.358   3.575   8.020 -0.2870  0.6818 -2.9824
  191SLPC  H16Y22175   3.180   3.552   7.993 -0.2544  0.1501  0.0864
  191SLPC  C31722176   3.220   3.662   8.180  0.2452 -0.5407  0.2454
  191SLPC  H17X22177   3.211   3.567   8.236 -4.2105  0.1025  0.9926
  191SLPC  H17Y22178   3.120   3.709   8.166  0.2314 -0.9637 -1.2453
  191SLPC  C31822179   3.302   3.767   8.261 -0.9434 -0.4747  0.0409
  191SLPC  H18X22180   3.283   3.869   8.221  2.5387 -0.4527 -1.9966
  191SLPC  H18Y22181   3.411   3.758   8.239 -1.1086 -1.8312 -0.3062
  191SLPC  H18Z22182   3.280   3.775   8.370  1.9546 -0.9753  0.7671
  192SLPC     N22183   4.917   6.293   5.991 -0.0720 -0.7368 -0.6929
  192SLPC   C1322184   4.994   6.315   5.866 -0.5553  0.4566 -0.8653
  192SLPC  H13A22185   5.101   6.302   5.871 -0.6498 -0.8244 -1.6640
  192SLPC  H13B22186   4.961   6.257   5.781  2.0115 -0.6611 -1.1706
  192SLPC  H13C22187   4.982   6.421   5.847  0.8968  0.8666  0.3277
  192SLPC   C1422188   4.898   6.146   6.003  0.3558 -0.3638  0.6560
  192SLPC  H14A22189   4.994   6.106   5.977 -0.5090 -1.2344 -1.4059
  192SLPC  H14B22190   4.879   6.110   6.103 -0.6820  0.1476  0.6676
  192SLPC  H14C22191   4.821   6.109   5.937  0.6695 -1.4791  0.9077
  192SLPC   C1522192   4.784   6.345   5.981  0.3761 -0.0355 -0.0914
  192SLPC  H15A22193   4.737   6.316   5.888  2.1551 -1.5126 -0.5960
  192SLPC  H15B22194   4.723   6.315   6.065 -0.9066  0.1009 -0.9536
  192SLPC  H15C22195   4.794   6.452   5.985  2.2682 -0.1534 -0.7221
  192SLPC   C1222196   4.988   6.342   6.112 -0.1072 -0.2519  0.2754
  192SLPC  H12A22197   5.012   6.445   6.091  0.5173 -0.2345  0.9994
  192SLPC  H12B22198   5.076   6.280   6.114  0.8477  0.9816 -1.2833
  192SLPC   C1122199   4.915   6.345   6.246  0.0447  0.1748  0.0504
  192SLPC  H11A22200   4.839   6.425   6.230 -0.4146 -0.2080  0.3069
  192SLPC  H11B22201   4.993   6.373   6.321  1.0884 -0.4307 -0.7763
  192SLPC     P22202   4.709   6.208   6.322  0.0607  0.1974  0.2054
  192SLPC   O1322203   4.630   6.224   6.200 -0.1385 -0.5156  0.1245
  192SLPC   O1422204   4.692   6.075   6.387  0.3252  0.0947 -0.5592
  192SLPC   O1222205   4.867   6.217   6.286  0.8218 -0.1517 -0.4856
  192SLPC   O1122206   4.682   6.323   6.422 -0.1980 -0.6742 -0.5602
  192SLPC    C122207   4.752   6.360   6.543 -0.7861  0.5660  0.2829
  192SLPC    HA22208   4.858   6.326   6.535 -1.0059  0.2883 -1.8168
  192SLPC    HB22209   4.733   6.469   6.543  0.4064  0.8343 -1.7023
  192SLPC    C222210   4.687   6.312   6.671 -0.1749 -0.2384 -0.3229
  192SLPC    HS22211   4.682   6.201   6.677 -1.2912 -0.4181 -3.0797
  192SLPC   O2122212   4.558   6.370   6.685  0.9516  0.5546 -0.4629
  192SLPC   C2122213   4.463   6.283   6.733 -0.3033  0.2924 -0.4188
  192SLPC   O2222214   4.487   6.173   6.778  0.1342  0.1810  0.2792
  192SLPC   C2222215   4.321   6.341   6.715 -0.2420  0.3807  0.8991
  192SLPC   H2R22216   4.313   6.366   6.607 -1.5186  1.0061  1.1137
  192SLPC   H2S22217   4.245   6.264   6.742 -0.3157 -0.2160 -0.8632
  192SLPC    C322218   4.772   6.372   6.796 -0.5091  0.0171  0.1584
  192SLPC    HX22219   4.769   6.482   6.786  1.3562 -0.0021 -1.1780
  192SLPC    HY22220   4.879   6.347   6.777 -1.3907 -2.9006 -1.7530
  192SLPC   O3122221   4.728   6.327   6.926 -0.8201 -0.3678  0.3446
  192SLPC   C3122222   4.767   6.206   6.966  0.0282 -0.2167 -0.4000
  192SLPC   O3222223   4.849   6.134   6.911  0.2557 -0.0802  0.4088
  192SLPC   C3222224   4.693   6.171   7.103 -0.3403  0.3873  0.0937
  192SLPC   H2X22225   4.585   6.163   7.078 -0.3270 -1.9496  0.5495
  192SLPC   H2Y22226   4.702   6.247   7.184  0.7495 -0.7431  1.0644
  192SLPC   C2322227   4.295   6.467   6.794 -0.5957  0.3270 -0.7385
  192SLPC   H3R22228   4.197   6.512   6.766 -1.0430  0.4020  0.8817
  192SLPC   H3S22229   4.369   6.549   6.783 -0.5509  0.5294  0.9204
  192SLPC   C2422230   4.304   6.447   6.948  0.0925  0.3550 -0.2791
  192SLPC   H4R22231   4.293   6.548   6.993 -0.9883  0.7614 -1.4223
  192SLPC   H4S22232   4.401   6.404   6.984 -0.8034 -0.1571  1.6542
  192SLPC   C2522233   4.183   6.362   7.001  0.0414 -0.1642  0.0142
  192SLPC   H5R22234   4.202   6.260   6.961  3.8398  0.1349  0.7203
  192SLPC   H5S22235   4.094   6.404   6.949 -0.0079  0.3644  0.5108
  192SLPC   C2622236   4.168   6.351   7.153  0.4001  0.5694 -0.5535
  192SLPC   H6R22237   4.070   6.307   7.179  1.2289  0.1985  2.3385
  192SLPC   H6S22238   4.168   6.450   7.202  1.0010  0.3454 -0.0831
  192SLPC   C2722239   4.290   6.276   7.215  0.0370 -0.4328  0.0999
  192SLPC   H7R22240   4.353   6.351   7.268 -1.6148 -0.3018  2.0009
  192SLPC   H7S22241   4.355   6.244   7.130 -0.4876 -1.5832  0.1225
  192SLPC   C2822242   4.262   6.156   7.304  0.1801  0.4367  0.5133
  192SLPC   H8R22243   4.363   6.117   7.333 -0.6657 -0.3881  2.5463
  192SLPC   H8S22244   4.224   6.073   7.242 -1.4651  1.4936  0.0484
  192SLPC   C2922245   4.176   6.167   7.418  0.3552  0.2984  0.0527
  192SLPC   H9R22246   4.068   6.150   7.404  0.4816 -2.0975  1.4707
  192SLPC  C21022247   4.216   6.202   7.543  0.0387  0.1819 -0.4454
  192SLPC  H10R22248   4.148   6.213   7.628  1.8047 -3.4989  1.6816
  192SLPC  C21122249   4.362   6.244   7.567  0.1353  0.5999 -0.6060
  192SLPC  H11R22250   4.387   6.342   7.522 -1.0291  1.7250  1.0587
  192SLPC  H11S22251   4.425   6.164   7.523 -1.0825  0.4239 -2.1217
  192SLPC  C21222252   4.370   6.248   7.722  0.5649  0.3514  0.3751
  192SLPC  H12R22253   4.285   6.205   7.779  0.9525 -1.3571 -0.2601
  192SLPC  C21322254   4.468   6.303   7.792 -0.0142  0.1841 -0.8435
  192SLPC  H13R22255   4.478   6.286   7.900  0.2073  2.0592 -0.5339
  192SLPC  C21422256   4.584   6.379   7.728  0.7282  0.3038 -0.2004
  192SLPC  H14R22257   4.576   6.350   7.621 -0.2032 -1.5316  0.3302
  192SLPC  H14S22258   4.684   6.340   7.755 -0.2613 -1.5894  0.9513
  192SLPC  C21522259   4.582   6.534   7.740 -0.4034  0.0504 -0.2322
  192SLPC  H15R22260   4.504   6.587   7.682 -1.3405  1.6545  2.3501
  192SLPC  H15S22261   4.677   6.575   7.700 -0.3723 -0.9032 -1.2141
  192SLPC  C21622262   4.597   6.584   7.883 -0.2387 -0.3815 -0.4121
  192SLPC  H16R22263   4.702   6.591   7.920  0.1734 -0.2912 -1.5353
  192SLPC  H16S22264   4.550   6.510   7.951 -0.7558 -1.0153 -1.4365
  192SLPC  C21722265   4.527   6.714   7.905 -0.7208 -0.3557 -0.1805
  192SLPC  H17R22266   4.556   6.786   7.825 -2.0349  0.2672 -0.1160
  192SLPC  H17S22267   4.417   6.709   7.889 -0.8513  2.4394 -0.7315
  192SLPC  C21822268   4.550   6.780   8.043  0.2414 -0.2995  0.2078
  192SLPC  H18R22269   4.655   6.813   8.063 -1.0962  2.2482  4.2214
  192SLPC  H18S22270   4.524   6.714   8.129 -1.8650  1.0032  0.6384
  192SLPC  H18T22271   4.491   6.872   8.065 -0.4450 -0.9910  1.4022
  192SLPC   C3322272   4.737   6.035   7.167 -0.3647  0.3689  0.4847
  192SLPC   H3X22273   4.748   6.058   7.275 -1.2564  1.8727  0.2923
  192SLPC   H3Y22274   4.831   5.995   7.124 -0.8078 -0.1183 -0.0356
  192SLPC   C3422275   4.624   5.930   7.153  0.6412 -0.1585  0.3733
  192SLPC   H4X22276   4.600   5.922   7.045  1.1166 -2.8480  0.4009
  192SLPC   H4Y22277   4.527   5.971   7.187  0.2248  0.9690 -1.9744
  192SLPC   C3522278   4.646   5.797   7.222  0.6210 -0.0238  0.5207
  192SLPC   H5X22279   4.741   5.756   7.180 -0.0168 -1.0603  0.0363
  192SLPC   H5Y22280   4.565   5.725   7.197  0.6365 -0.2341  1.0744
  192SLPC   C3622281   4.666   5.822   7.371 -0.1480 -0.1280 -0.1854
  192SLPC   H6X22282   4.579   5.854   7.431  0.5026 -1.3483  1.4917
  192SLPC   H6Y22283   4.738   5.904   7.389 -1.6608  1.0930  0.5188
  192SLPC   C3722284   4.727   5.705   7.449  0.1837 -0.2913 -0.9159
  192SLPC   H7X22285   4.829   5.673   7.417  0.4670 -0.2016 -0.1473
  192SLPC   H7Y22286   4.666   5.615   7.432  0.7902 -0.7865 -0.5314
  192SLPC   C3822287   4.741   5.742   7.595 -0.1410 -0.4767  0.1598
  192SLPC   H8X22288   4.652   5.805   7.620 -0.0637  1.0328 -2.8792
  192SLPC   H8Y22289   4.829   5.807   7.608  0.5638 -1.5350  0.7970
  192SLPC   C3922290   4.759   5.614   7.685 -0.5116  0.4059  0.3892
  192SLPC   H9X22291   4.837   5.551   7.637 -0.9983 -0.5297  0.8156
  192SLPC   H9Y22292   4.662   5.562   7.691 -1.2318  1.4626 -1.4517
  192SLPC  C31022293   4.799   5.660   7.834 -0.1748  1.0746 -0.0186
  192SLPC  H10X22294   4.720   5.722   7.880  0.1323  1.5001 -0.0612
  192SLPC  H10Y22295   4.884   5.729   7.816 -0.0194  0.9448  0.2141
  192SLPC  C31122296   4.832   5.546   7.928 -0.6213 -0.1051 -0.7608
  192SLPC  H11X22297   4.911   5.480   7.886  1.0912 -1.4045  3.8731
  192SLPC  H11Y22298   4.755   5.469   7.952  0.1088 -0.2395  1.3758
  192SLPC  C31222299   4.880   5.595   8.069 -0.1987  1.0688  0.2601
  192SLPC  H12X22300   4.983   5.636   8.077  0.4085  0.1842 -2.0068
  192SLPC  H12Y22301   4.896   5.495   8.114 -0.4823  0.3877 -1.1102
  192SLPC  C31322302   4.775   5.666   8.160 -0.1266 -0.0533  0.0062
  192SLPC  H13X22303   4.700   5.724   8.101 -0.0281 -1.2294 -1.3313
  192SLPC  H13Y22304   4.833   5.732   8.228  0.5290  0.4799 -1.0358
  192SLPC  C31422305   4.695   5.570   8.250 -0.2144 -0.1129  0.0279
  192SLPC  H14X22306   4.759   5.494   8.301  1.6344  0.9960 -0.5192
  192SLPC  H14Y22307   4.636   5.504   8.183  1.9428  0.1053 -2.2396
  192SLPC  C31522308   4.621   5.655   8.357 -0.0344  0.0915  0.4045
  192SLPC  H15X22309   4.569   5.739   8.306  2.8681  1.4730 -0.4984
  192SLPC  H15Y22310   4.701   5.707   8.415 -0.1855  1.8445 -0.8925
  192SLPC  C31622311   4.533   5.572   8.455 -0.0138 -0.5341  0.1104
  192SLPC  H16X22312   4.598   5.510   8.521  1.4347 -0.3287 -1.0648
  192SLPC  H16Y22313   4.468   5.495   8.409 -0.1932 -1.0489  1.1919
  192SLPC  C31722314   4.446   5.665   8.551 -0.2836 -0.1954  0.7443
  192SLPC  H17X22315   4.513   5.724   8.618 -1.9660  2.2125  0.4498
  192SLPC  H17Y22316   4.376   5.595   8.601 -2.3992 -0.2562 -2.0591
  192SLPC  C31822317   4.352   5.763   8.474 -0.5167 -0.1889  0.6185
  192SLPC  H18X22318   4.276   5.711   8.413  1.5548 -2.0590 -0.5158
  192SLPC  H18Y22319   4.408   5.826   8.402  0.0087 -0.6675  0.6008
  192SLPC  H18Z22320   4.311   5.833   8.551 -1.5919  1.0455 -1.0152
  193SOD    SOD22321   6.775   6.466   1.567 -0.1167  0.1350 -0.1505
  194SOD    SOD22322   0.299   0.664   5.371 -0.7222 -0.3992  0.0833
  195SOD    SOD22323   0.770   3.213   2.784  0.2271  0.3526  0.3819
  196SOD    SOD22324   0.914   4.010  12.738 -0.0286 -0.1905 -0.2678
  197SOD    SOD22325   1.263   4.584   2.733  0.0956  0.3183  0.3270
  198SOD    SOD22326   0.128   5.632   3.593  0.3453 -0.1377  0.1569
  199SOD    SOD22327   4.013   1.018   3.297 -0.2859 -0.0586 -0.5983
  200SOD    SOD22328   4.224   1.641  15.901  0.0896  0.1842 -0.2103
  201SOD    SOD22329   1.571   0.715   5.070 -0.3067  0.5158 -0.4744
  202SOD    SOD22330   6.389   1.272  14.247  0.3815 -0.4155  0.4906
  203SOD    SOD22331   2.349   5.108   3.970 -0.0771 -0.0756  0.3713
  204SOD    SOD22332   4.685   0.401   2.416 -0.0986  0.1734  0.7639
  205SOD    SOD22333   2.234   2.598  15.885  0.3703  0.0640  0.3181
  206SOD    SOD22334   2.497   0.144  13.171 -0.3081  0.1948  0.1388
  207SOD    SOD22335   2.021   0.763  16.494  0.7087 -0.0976  0.0531
  208SOD    SOD22336   4.584   3.724  11.332  0.1784 -0.5082  0.0161
  209SOD    SOD22337   0.226   6.032   5.596  0.1301 -0.5520  0.0155
  210SOD    SOD22338   0.942   0.523  17.178  0.0749  0.4506  0.2721
  211SOD    SOD22339   1.500   4.615  16.010 -0.1298 -0.1913 -0.4016
  212SOD    SOD22340   0.698   2.038  16.800  0.0561 -0.1766 -0.2050
  213SOD    SOD22341   6.256   6.410  12.834  0.2847 -0.1661 -0.9278
  214SOD    SOD22342   1.440   1.293   5.286 -0.1422  0.3767 -0.0833
  215SOD    SOD22343   1.452   6.113   2.196  0.1139  0.2885 -0.3823
  216SOD    SOD22344   6.541   1.487  15.110 -0.0380  0.0345  0.2739
  217SOD    SOD22345   2.784   5.060   6.057  0.1636 -0.1988  0.0508
  218SOD    SOD22346   0.236   1.601  12.486 -0.4976  0.3228  0.2984
  219SOD    SOD22347   6.741   5.500   6.180 -0.0532 -0.7313  0.2115
  220SOD    SOD22348   4.025   5.983  15.345  0.1494 -0.0793  0.3118
  221SOD    SOD22349   1.105   0.773  15.508 -0.4938  0.5736 -0.0124
  222SOD    SOD22350   5.298   0.583  11.074 -0.0530  0.7299  0.0290
  223SOD    SOD22351   2.590   2.169   5.558  0.3326 -0.4842 -0.1212
  224SOD    SOD22352   2.470   0.101  16.818  0.3986  0.2865  0.3105
  225SOD    SOD22353   5.128   4.649  11.859  0.6825  0.0166  0.2570
  226SOD    SOD22354   0.440   1.408   4.702  0.4373 -0.1535  0.1212
  227SOD    SOD22355   4.350   4.254  13.511  0.2369 -0.0584 -0.7481
  228SOD    SOD22356   0.623   3.628   1.290 -0.0056  0.2108 -0.2468
  229SOD    SOD22357   1.078   5.447   5.651 -0.3183  0.5281 -0.2142
  230SOD    SOD22358   4.273   4.131  12.549  0.0998 -0.5003  0.0743
  231SOD    SOD22359   6.631   4.959  14.558  0.4338 -0.4360 -0.0914
  232SOD    SOD22360   5.580   1.700  16.740  0.3583  0.4467  0.1907
  233SOD    SOD22361   6.769   4.131  14.157 -0.5130 -0.1699  0.2467
  234SOD    SOD22362   6.383   3.197  10.836 -0.3174 -0.0542  0.3738
  235SOD    SOD22363   5.766   4.971  13.132 -0.2148  0.0265  0.2568
  236SOD    SOD22364   6.144   0.564   5.808 -0.1082  0.5839  0.4409
  237SOD    SOD22365   5.716   6.612   2.854  0.1982 -0.1903  0.3642
  238SOD    SOD22366   6.380   6.791  14.697 -0.1397 -0.6818  0.5266
  239SOD    SOD22367   3.170   0.310  14.947  0.1678 -0.0433 -0.6500
  240SOD    SOD22368   2.470   1.774  14.263  0.3146  0.0881  0.2275
  241SOD    SOD22369   4.341   3.018  16.712  0.3573  0.0160 -0.5027
  242SOD    SOD22370   3.925   4.483  10.582  0.0378 -0.3141  0.7569
  243SOD    SOD22371   2.992   5.610  14.700  0.0822  0.5651 -0.0581
  244SOD    SOD22372   5.887   5.535  11.157 -0.1151  0.1035  0.2470
  245SOD    SOD22373   5.963   2.736   6.353  0.3391  0.0131  0.2219
  246SOD    SOD22374   2.166   2.243   3.017  0.3001 -0.1577 -0.0319
  247SOD    SOD22375   3.349   6.197  13.098 -0.6554  0.2532 -0.2246
  248SOD    SOD22376   2.898   4.270   4.578  0.1746  0.2639  0.3676
  249SOD    SOD22377   2.988   1.096   2.853  0.9953  0.0505  0.5999
  250SOD    SOD22378   5.294   4.521   2.712  0.3360 -0.0687 -0.2640
  251SOD    SOD22379   2.970   6.774   5.834  0.0401 -0.1476  0.2942
  252SOD    SOD22380   5.065   2.689   0.779 -0.2719 -0.6764 -0.1353
  253SOD    SOD22381   1.943   6.156  16.627 -0.1050  0.0187  0.3704
  254SOD    SOD22382   6.560   1.454   6.272 -0.0181  0.4455 -0.4332
  255SOD    SOD22383   6.486   3.870   5.941 -0.1724  0.1582  0.1471
  256SOD    SOD22384   3.882   2.832   0.968 -0.1543  0.4639 -0.1875
  257SOD    SOD22385   0.278   0.541   2.064  0.0819  0.6826 -0.4399
  258SOD    SOD22386   2.415   2.701  10.893  0.3727 -0.0003  0.1285
  259SOD    SOD22387   4.645   2.755   3.341  0.4116  0.2620 -0.2620
  260SOD    SOD22388   3.319   4.670  14.785  0.0368 -0.4501 -0.2168
  261SOD    SOD22389   1.558   0.001  11.029 -0.1542 -0.2551 -0.1105
  262SOD    SOD22390   0.589   4.932   0.831  0.0262 -0.2414 -0.0327
  263SOD    SOD22391   2.193   6.759  12.102  0.2976  0.3161 -0.3231
  264SOD    SOD22392   4.819   1.970  17.225  0.1657  0.7218 -0.0523
  265SOD    SOD22393   1.297   1.144   0.798  0.1846  0.0074 -0.3176
  266CLA    CLA22394   4.271   3.226   2.532  0.0643 -0.2210  0.4497
  267CLA    CLA22395   0.035   0.300   4.993  0.2203 -0.1745 -0.0074
  268CLA    CLA22396   0.460   6.726   1.196 -0.0719 -0.4268 -0.0914
  269CLA    CLA22397   5.836   4.034   4.520 -0.1136 -0.1815 -0.1410
  270CLA    CLA22398   5.199   1.184  16.220  0.1555 -0.4716  0.0573
  271CLA    CLA22399   5.827   6.358  13.446  0.2192 -0.0153 -0.2346
  272CLA    CLA22400   0.859   4.573   1.058 -0.1599  0.1492  0.0396
  273CLA    CLA22401   5.612   2.278   1.867  0.0675 -0.1516  0.1226
  274CLA    CLA22402   6.462   1.392   3.255 -0.2769  0.1826  0.1055
  275CLA    CLA22403   4.990   4.681   2.140  0.2596  0.0017 -0.0803
  276CLA    CLA22404   2.082   1.679   0.851  0.2591  0.1789 -0.1404
  277CLA    CLA22405   2.089   1.353   1.614 -0.0451 -0.0164  0.3100
  278CLA    CLA22406   5.586   6.739  13.507  0.3570 -0.1371 -0.1840
  279CLA    CLA22407   1.461   6.036   2.749 -0.1250 -0.0964 -0.2639
  280CLA    CLA22408   3.449   5.471  14.123 -0.1405 -0.2371  0.1836
  281CLA    CLA22409   2.986   0.914  16.046 -0.3298  0.2280  0.1399
  282CLA    CLA22410   4.464   0.052   0.671  0.4799 -0.1585  0.0995
  283CLA    CLA22411   5.020   5.051  11.955  0.0737  0.1631  0.0785
  284CLA    CLA22412   1.856   6.524  12.141  0.0416  0.0540  0.0555
  285CLA    CLA22413   2.745   2.270  15.552 -0.3897  0.3219  0.0211
  286CLA    CLA22414   1.963   0.890  15.489  0.2541 -0.3353 -0.0777
  287CLA    CLA22415   3.269   4.364   5.133  0.2129  0.2700  0.1363
  288CLA    CLA22416   6.231   5.017  15.565 -0.2923 -0.1808 -0.2213
  289CLA    CLA22417   1.372   0.921   0.377  0.4245  0.2529  0.5901
  290CLA    CLA22418   6.004   0.342   4.225 -0.3466 -0.0225  0.1040
  291CLA    CLA22419   0.485   0.661  16.371  0.0458 -0.0379 -0.2644
  292CLA    CLA22420   2.833   5.375  13.411  0.2516 -0.2449 -0.4011
  293CLA    CLA22421   2.019   2.224   3.237  0.4579 -0.1411 -0.1461
  294CLA    CLA22422   3.733   1.211  15.730  0.1325  0.4430  0.0837
  295CLA    CLA22423   0.380   3.480  15.891 -0.2581 -0.1135  0.0593
  296CLA    CLA22424   4.331   4.818   1.382  0.2426 -0.3598 -0.1344
  297CLA    CLA22425   5.284   1.285  12.348  0.0626  0.2689 -0.1112
  298CLA    CLA22426   1.101   0.540   0.381  0.2597 -0.3772  0.0876
  299CLA    CLA22427   2.182   6.572  12.617  0.2114  0.1351  0.0502
  300CLA    CLA22428   0.766   1.179  15.937  0.3137 -0.0276  0.0353
  301CLA    CLA22429   2.213   3.167   0.715  0.3203 -0.3665  0.2846
  302CLA    CLA22430   4.564   3.758  12.424  0.0628 -0.2334  0.3058
  303CLA    CLA22431   2.326   1.941   3.892 -0.1454 -0.1661  0.4685
  304CLA    CLA22432   2.194   3.967   5.046 -0.0077 -0.1859 -0.1507
  305CLA    CLA22433   0.642   5.404   0.995 -0.2489 -0.2310  0.0901
  306CLA    CLA22434   5.428   3.845  14.264  0.0697 -0.0436 -0.1572
  307CLA    CLA22435   0.181   3.983  12.581 -0.2639  0.3796 -0.4287
  308CLA    CLA22436   4.982   3.606  11.479 -0.1167 -0.0019  0.5905
  309CLA    CLA22437   2.804   3.477   2.449  0.0796  0.2179 -0.0056
  310CLA    CLA22438   5.601   2.784   0.662  0.5009  0.1751 -0.3016
  311CLA    CLA22439   5.618   6.683  16.230 -0.2016 -0.2188 -0.4316
  312CLA    CLA22440   1.426   3.127  16.209 -0.2111  0.0058  0.0909
  313CLA    CLA22441   5.779   1.040   4.776  0.0963 -0.4236  0.5685
  314CLA    CLA22442   3.911   0.061   1.331 -0.1118  0.1823  0.1179
  315CLA    CLA22443   0.609   1.559  15.690 -0.2950  0.1051 -0.1965
  316CLA    CLA22444   5.355   4.042  16.693  0.0446 -0.1401  0.0948
  317CLA    CLA22445   2.465   6.096  14.531 -0.3956  0.0428  0.1672
  318CLA    CLA22446   2.381   3.157  12.505  0.0056 -0.1958  0.0713
  319TIP3   OH222447   0.724   2.395  13.901 -0.0148  0.1914 -0.4174
  319TIP3    H122448   0.714   2.475  13.954  1.6608  0.4253 -0.3822
  319TIP3    H222449   0.728   2.427  13.811 -1.0651 -0.0408 -0.5613
  320TIP3   OH222450   1.076   6.393  14.915 -0.7333  0.0333 -0.1131
  320TIP3    H122451   1.031   6.431  14.840  0.8045 -0.3670 -1.2906
  320TIP3    H222452   1.007   6.357  14.970 -2.0398  2.0194 -0.3499
  321TIP3   OH222453   5.485   3.570   6.838 -0.3279 -0.3571 -0.5423
  321TIP3    H122454   5.524   3.644   6.884 -0.1850 -1.2581  0.8464
  321TIP3    H222455   5.554   3.503   6.837 -0.2013 -0.2477 -2.4173
  322TIP3   OH222456   0.206   5.430  13.568 -0.0846  1.0105 -0.0377
  322TIP3    H122457   0.193   5.519  13.601  0.8604  1.0868  0.1766
  322TIP3    H222458   0.297   5.409  13.591  0.0402  0.3912 -1.0208
  323TIP3   OH222459   4.654   3.990   1.738  0.5630  0.2592 -0.3686
  323TIP3    H122460   4.622   4.080   1.737  0.6690  0.3248  0.9716
  323TIP3    H222461   4.663   3.968   1.830 -1.3389 -1.7922 -0.5848
  324TIP3   OH222462   5.620   4.762   4.386  0.5844  0.1566 -0.5668
  324TIP3    H122463   5.692   4.707   4.355 -0.7072 -0.7041 -2.1899
  324TIP3    H222464   5.597   4.816   4.311 -1.0604 -0.2294 -0.3638
  325TIP3   OH222465   2.368   5.707  14.984 -0.0350 -0.2014  0.2488
  325TIP3    H122466   2.293   5.677  15.037 -1.5990 -0.0305 -1.7594
  325TIP3    H222467   2.333   5.715  14.896  1.7286  2.3354 -0.3284
  326TIP3   OH222468   1.360   3.270  15.440 -0.3647  0.9185  0.2000
  326TIP3    H122469   1.354   3.303  15.350  2.5884  1.2212  0.0383
  326TIP3    H222470   1.287   3.311  15.485 -1.5894  1.2145 -1.8986
  327TIP3   OH222471   0.852   3.810  11.913  0.5207  0.0193  0.4038
  327TIP3    H122472   0.808   3.756  11.847 -0.0536 -0.0638  0.8542
  327TIP3    H222473   0.919   3.753  11.950 -1.0584 -0.9129  1.9431
  328TIP3   OH222474   5.080   2.404  12.595 -0.3649 -0.2671 -0.3518
  328TIP3    H122475   4.984   2.409  12.591 -0.4180 -1.6245 -1.7852
  328TIP3    H222476   5.098   2.312  12.612  0.6941  0.4435  2.9167
  329TIP3   OH222477   5.261   2.390  15.228  0.4157  0.0748  0.0592
  329TIP3    H122478   5.194   2.458  15.225 -1.0187 -1.3277 -0.2917
  329TIP3    H222479   5.223   2.320  15.280  1.3867 -0.9933 -0.6216
  330TIP3   OH222480   6.439   5.429  13.616 -0.0417 -0.0019 -0.6263
  330TIP3    H122481   6.438   5.402  13.708 -0.8369 -0.2682 -0.7012
  330TIP3    H222482   6.416   5.522  13.618  1.2818  0.3399 -0.4705
  331TIP3   OH222483   2.054   1.366   2.226 -0.1070 -0.8867 -0.0677
  331TIP3    H122484   2.108   1.440   2.196  1.0540 -1.4798  0.5045
  331TIP3    H222485   2.007   1.338   2.148  2.6087 -2.1957 -1.3725
  332TIP3   OH222486   3.831   3.383  15.762 -0.0413 -0.4226  1.1163
  332TIP3    H122487   3.782   3.307  15.730  0.6098 -0.0246 -0.9868
  332TIP3    H222488   3.860   3.428  15.682  3.0553 -0.1993  2.2260
  333TIP3   OH222489   5.345   6.639  13.678  0.1667  0.1726  0.2548
  333TIP3    H122490   5.368   6.579  13.749 -0.1822  0.4051  0.5635
  333TIP3    H222491   5.422   6.637  13.620 -1.0101 -3.0676 -1.4905
  334TIP3   OH222492   3.024   5.015   6.046  0.0033  0.2863 -0.2881
  334TIP3    H122493   3.034   5.071   5.969  0.4919 -0.2708 -0.6355
  334TIP3    H222494   3.082   5.054   6.112  0.5880 -0.0017 -0.6337
  335TIP3   OH222495   5.941   6.354  13.799 -0.4948  0.3800  0.1585
  335TIP3    H122496   6.006   6.425  13.799 -1.4623  1.3072 -0.5897
  335TIP3    H222497   5.879   6.379  13.731 -1.1403 -0.9542  0.2292
  336TIP3   OH222498   2.727   5.255  16.551 -0.3830  0.8542 -0.1388
  336TIP3    H122499   2.637   5.223  16.559  0.2143 -0.4922  2.4597
  336TIP3    H222500   2.726   5.340  16.594 -0.6428  1.4486 -1.2828
  337TIP3   OH222501   1.578   0.604   2.987  0.4465 -0.0870  0.4492
  337TIP3    H122502   1.491   0.566   2.995 -0.3607  1.1246 -1.7242
  337TIP3    H222503   1.589   0.619   2.893  2.5689  0.8044  0.7790
  338TIP3   OH222504   1.623   3.899   2.298  0.3101  0.0179  0.1125
  338TIP3    H122505   1.660   3.987   2.304 -0.6997  0.4846 -0.4019
  338TIP3    H222506   1.594   3.879   2.386  1.7907 -0.3796  0.5468
  339TIP3   OH222507   0.438   3.172  15.136 -0.3379  0.2014 -0.1724
  339TIP3    H122508   0.351   3.196  15.105  0.0163  0.0646 -1.3211
  339TIP3    H222509   0.426   3.085  15.174 -0.2638 -1.0078 -2.6909
  340TIP3   OH222510   0.562   3.224   4.646  0.5083  0.2607 -0.1788
  340TIP3    H122511   0.625   3.293   4.626 -0.5828  0.7705 -2.1075
  340TIP3    H222512   0.602   3.174   4.717  2.8562  0.8313 -1.0384
  341TIP3   OH222513   1.824   3.275   1.678  0.0041 -0.0453  0.0538
  341TIP3    H122514   1.754   3.216   1.648 -0.2433  0.9279 -1.3864
  341TIP3    H222515   1.901   3.247   1.629  0.3824 -0.4567  0.8766
  342TIP3   OH222516   4.002   4.050   1.282  0.2891  0.1149  0.2283
  342TIP3    H122517   4.068   4.018   1.343  0.1009 -0.2462  0.2466
  342TIP3    H222518   3.987   3.977   1.222  1.7952  1.0435 -1.3933
  343TIP3   OH222519   6.274   6.646   3.995 -0.1776  0.1609  0.8164
  343TIP3    H122520   6.224   6.716   4.036 -1.1625 -0.4115  0.6111
  343TIP3    H222521   6.308   6.594   4.068 -1.8869 -0.8305  0.9569
  344TIP3   OH222522   3.313   5.016  17.171 -0.1846  0.4881  0.3371
  344TIP3    H122523   3.230   4.990  17.131 -0.3217  0.5683  0.5635
  344TIP3    H222524   3.379   4.964  17.127 -0.5552 -1.0035  1.4623
  345TIP3   OH222525   6.316   4.289  13.522 -0.2029  0.5552 -0.1108
  345TIP3    H122526   6.311   4.226  13.449  0.2060  2.4658 -1.8876
  345TIP3    H222527   6.409   4.299  13.538 -0.2597  0.8024  0.0667
  346TIP3   OH222528   4.310   1.522   3.198 -0.1740 -0.1320 -0.4456
  346TIP3    H122529   4.379   1.588   3.202 -1.4879  1.3236 -0.8716
  346TIP3    H222530   4.320   1.482   3.112 -0.3666  0.6373 -0.8273
  347TIP3   OH222531   4.580   1.270   1.873 -0.5888  0.0207 -0.0904
  347TIP3    H122532   4.592   1.177   1.856 -1.2748 -0.7225  2.8950
  347TIP3    H222533   4.669   1.304   1.884 -0.3649 -0.4550 -0.3951
  348TIP3   OH222534   5.961   6.570   0.593 -0.4760 -0.5484 -0.0462
  348TIP3    H122535   5.974   6.598   0.684 -0.1425 -0.8970  0.0166
  348TIP3    H222536   5.999   6.640   0.540  1.3985 -1.3898  0.1230
  349TIP3   OH222537   3.548   0.492   1.342  0.4540 -0.3010  0.6507
  349TIP3    H122538   3.599   0.437   1.281 -1.0296 -0.7010 -0.2993
  349TIP3    H222539   3.500   0.429   1.395  0.5517  0.0744  1.1870
  350TIP3   OH222540   6.763   1.616  14.992  0.0038  0.1642  0.4729
  350TIP3    H122541   6.678   1.617  14.948  0.0266 -0.6648  0.4004
  350TIP3    H222542   6.751   1.673  15.068 -1.4301 -1.8775  1.9017
  351TIP3   OH222543   3.990   5.196   2.885  0.3573 -0.6694  0.2821
  351TIP3    H122544   4.075   5.234   2.863  0.3266 -1.6118 -1.7085
  351TIP3    H222545   4.008   5.133   2.954  1.3135 -0.9507 -0.2103
  352TIP3   OH222546   4.665   2.025  15.611  0.3793  0.5224  0.2790
  352TIP3    H122547   4.664   1.955  15.546 -2.0168 -0.2966  1.0840
  352TIP3    H222548   4.702   1.984  15.689 -0.4605  0.2865  0.5692
  353TIP3   OH222549   0.749   2.740  16.602 -0.4463 -0.0766  0.2494
  353TIP3    H122550   0.796   2.823  16.591  0.1038 -0.4377 -0.1284
  353TIP3    H222551   0.794   2.679  16.544 -1.1307 -0.5313  0.1876
  354TIP3   OH222552   5.661   5.538  14.130 -0.4160 -0.1829 -0.2773
  354TIP3    H122553   5.604   5.596  14.080 -1.5418 -0.3387  0.7916
  354TIP3    H222554   5.647   5.451  14.092 -0.3199 -0.1033 -0.4967
  355TIP3   OH222555   0.699   2.034  15.811  0.0812  0.5240  0.2226
  355TIP3    H122556   0.773   2.094  15.801 -0.3462  0.7471 -1.9377
  355TIP3    H222557   0.623   2.085  15.783 -0.2764 -1.0074 -1.8037
  356TIP3   OH222558   2.869   6.573  10.569  0.3524 -0.2274 -0.3491
  356TIP3    H122559   2.943   6.573  10.508  0.4444  0.0742 -0.2364
  356TIP3    H222560   2.831   6.660  10.561  0.7345  0.0291  0.4739
  357TIP3   OH222561   5.470   1.240  10.434 -0.3189  0.3679 -0.0460
  357TIP3    H122562   5.456   1.335  10.428 -2.3089  0.0221 -1.7528
  357TIP3    H222563   5.384   1.204  10.452  0.4625 -1.1347  0.9083
  358TIP3   OH222564   0.795   6.725  15.429  0.3935  0.0068 -0.0074
  358TIP3    H122565   0.853   6.772  15.488  1.4025 -0.1551 -0.8482
  358TIP3    H222566   0.723   6.786  15.412  1.8718  1.4615 -1.3885
  359TIP3   OH222567   1.086   4.754   2.089  1.0827  0.5874 -0.2792
  359TIP3    H122568   1.179   4.731   2.081  1.3587  1.8944 -1.2085
  359TIP3    H222569   1.040   4.690   2.035  1.4511  0.0277  0.0589
  360TIP3   OH222570   6.476   4.170   5.270  0.7061  0.2931 -0.3182
  360TIP3    H122571   6.429   4.223   5.206 -0.0927  2.9558  2.2396
  360TIP3    H222572   6.564   4.208   5.273  0.4024  0.9462  0.8924
  361TIP3   OH222573   5.879   2.406   0.742 -0.0725  0.5455  0.2952
  361TIP3    H122574   5.832   2.373   0.819  0.7192 -0.7130  0.2667
  361TIP3    H222575   5.877   2.502   0.752  0.6314  0.4014  2.2781
  362TIP3   OH222576   2.250   6.406   4.256 -0.2219 -0.4725  0.4838
  362TIP3    H122577   2.237   6.326   4.307 -1.2394 -0.0893  0.8408
  362TIP3    H222578   2.229   6.381   4.166 -1.4186 -0.4020  0.7280
  363TIP3   OH222579   6.261   1.470  14.217 -0.4245  0.1392  0.1997
  363TIP3    H122580   6.234   1.513  14.136 -2.9024 -1.9243 -0.1915
  363TIP3    H222581   6.253   1.538  14.284  0.3200  1.5004 -1.0326
  364TIP3   OH222582   2.609   5.185  14.031  0.5758  0.2325 -0.2227
  364TIP3    H122583   2.628   5.278  14.019 -0.0774  0.4237  0.1623
  364TIP3    H222584   2.671   5.141  13.973  1.2263  0.8799 -0.0533
  365TIP3   OH222585   6.265   4.480  17.048  0.3115 -0.2191  0.6288
  365TIP3    H122586   6.275   4.431  16.966  1.9925  1.2271 -0.0811
  365TIP3    H222587   6.282   4.415  17.116  2.8144 -0.6470 -0.3005
  366TIP3   OH222588   6.693   4.237  11.988 -0.2404  0.6328 -0.0653
  366TIP3    H122589   6.753   4.194  11.926  0.5748  1.1318  0.3531
  366TIP3    H222590   6.674   4.170  12.053 -1.1314  0.0908 -0.8562
  367TIP3   OH222591   0.581   0.563  11.185  0.5712 -0.4465 -0.8023
  367TIP3    H122592   0.516   0.614  11.136 -0.6860 -1.1038  0.1207
  367TIP3    H222593   0.618   0.504  11.119  0.1800 -0.1112 -1.3391
  368TIP3   OH222594   1.179   1.280   4.868 -0.1591  0.0081  0.0148
  368TIP3    H122595   1.146   1.202   4.822 -2.0132  0.5223  0.3872
  368TIP3    H222596   1.258   1.304   4.820 -1.7091  0.2083 -2.6503
  369TIP3   OH222597   5.673   0.728   2.987 -0.4531 -0.1088  0.7505
  369TIP3    H122598   5.643   0.815   2.959  0.5200 -0.0900 -0.2902
  369TIP3    H222599   5.718   0.693   2.911 -0.4411 -1.3559  1.3161
  370TIP3   OH222600   6.633   2.681  15.175  0.7668  0.2427 -0.6969
  370TIP3    H122601   6.591   2.614  15.121 -1.8322  0.8305  0.4842
  370TIP3    H222602   6.711   2.638  15.210 -0.6627 -2.0981 -0.2126
  371TIP3   OH222603   0.515   4.535  13.337 -0.4273 -0.7412 -0.5130
  371TIP3    H122604   0.546   4.626  13.342  1.0122 -1.1723 -0.9767
  371TIP3    H222605   0.490   4.523  13.246  0.2729 -1.0601 -0.6732
  372TIP3   OH222606   0.589   1.979   4.375 -0.2605 -0.2124 -0.4189
  372TIP3    H122607   0.682   1.999   4.376 -0.3053 -0.0062 -0.0134
  372TIP3    H222608   0.566   1.974   4.282  0.2105 -0.5575 -0.5173
  373TIP3   OH222609   6.422   3.972  12.275 -0.3015 -0.0696 -0.0014
  373TIP3    H122610   6.335   4.010  12.284 -0.6396 -1.1172  1.5510
  373TIP3    H222611   6.445   3.942  12.363  1.0082 -1.1254 -0.6568
  374TIP3   OH222612   4.714   2.932   0.914 -0.1532  0.7357 -0.0356
  374TIP3    H122613   4.717   2.942   1.009 -1.0901  0.4572  0.0335
  374TIP3    H222614   4.703   3.022   0.880  0.8010  0.9037  0.0750
  375TIP3   OH222615   5.865   0.777  13.373  0.8742  0.1699  0.4469
  375TIP3    H122616   5.942   0.826  13.346  0.4245  0.6153 -0.0497
  375TIP3    H222617   5.899   0.692  13.400  1.6545  0.7268  1.2566
  376TIP3   OH222618   6.778   0.860   5.855  0.0014  0.8626 -0.7204
  376TIP3    H122619   6.858   0.813   5.831  0.7767  2.0974 -0.6429
  376TIP3    H222620   6.763   0.920   5.782 -0.9046  0.5904 -0.7654
  377TIP3   OH222621   1.372   3.672  13.628 -0.1548 -0.7411 -0.0032
  377TIP3    H122622   1.399   3.673  13.720  0.3337  2.0659 -0.0728
  377TIP3    H222623   1.301   3.736  13.623 -0.2004 -0.8639 -1.5683
  378TIP3   OH222624   1.472   5.629   1.537 -0.0528 -0.0096  0.3018
  378TIP3    H122625   1.422   5.679   1.602 -1.2260 -0.8205  0.0485
  378TIP3    H222626   1.450   5.671   1.454 -0.4225 -0.4613  0.1731
  379TIP3   OH222627   4.269   4.563  15.229 -0.0189  0.0934 -0.0833
  379TIP3    H122628   4.311   4.648  15.238 -1.3915  0.6779  1.2740
  379TIP3    H222629   4.285   4.520  15.313  0.3647 -0.8737 -0.6324
  380TIP3   OH222630   4.764   0.538   4.203  0.3808 -0.8308 -0.0483
  380TIP3    H122631   4.860   0.542   4.208  0.3089  0.2360  0.8412
  380TIP3    H222632   4.736   0.537   4.294 -0.4847 -0.0324 -0.2966
  381TIP3   OH222633   1.096   2.732  14.977 -0.0740  0.6503  0.2535
  381TIP3    H122634   1.140   2.778  15.049  1.2385  1.8876 -1.2284
  381TIP3    H222635   1.104   2.793  14.903 -2.5503  0.0015 -0.6180
  382TIP3   OH222636   2.988   4.789  11.040  0.9400  0.6153 -0.4519
  382TIP3    H122637   2.930   4.844  10.988  0.7732  1.6087  0.7263
  382TIP3    H222638   2.953   4.794  11.129  1.1191 -1.1492 -0.2363
  383TIP3   OH222639   5.554   0.290   0.891 -0.1439 -0.5272  0.6135
  383TIP3    H122640   5.633   0.240   0.912  1.6093  2.1549  0.9441
  383TIP3    H222641   5.482   0.229   0.907  1.8370 -3.6238 -1.1616
  384TIP3   OH222642   6.709   5.910   0.853 -0.4138  0.1268 -0.1414
  384TIP3    H122643   6.686   5.982   0.794 -1.2157  0.5194  0.6367
  384TIP3    H222644   6.776   5.947   0.911 -1.5151  0.5677  0.8832
  385TIP3   OH222645   3.955   1.029   0.030 -0.1597  0.1327 -0.0499
  385TIP3    H122646   3.941   1.061   0.119  0.8625 -0.6374  0.4123
  385TIP3    H222647   3.867   1.014  -0.005 -0.5671 -0.3417  1.1366
  386TIP3   OH222648   6.316   1.327  17.024  0.0933  0.0387  0.0613
  386TIP3    H122649   6.221   1.311  17.016  0.1299 -1.3539  1.6960
  386TIP3    H222650   6.352   1.240  17.042  1.8700  0.3494 -1.7196
  387TIP3   OH222651   0.307   4.625   1.601 -0.4701  0.3591  0.0127
  387TIP3    H122652   0.294   4.600   1.509 -1.0886 -2.1406  0.7025
  387TIP3    H222653   0.401   4.616   1.615 -0.0333  2.7807 -0.8356
  388TIP3   OH222654   1.808   6.254   5.042  0.0434  0.3908  0.4216
  388TIP3    H122655   1.879   6.273   5.104  1.8218 -0.9286 -1.0969
  388TIP3    H222656   1.818   6.318   4.972  0.8979 -0.8503 -0.6518
  389TIP3   OH222657   1.014   1.738   5.762  0.0065  0.5536  0.1016
  389TIP3    H122658   0.923   1.708   5.757  0.2527 -0.1108 -0.5632
  389TIP3    H222659   1.045   1.708   5.847  0.1774 -0.9211 -0.4625
  390TIP3   OH222660   2.156   5.571   2.905  0.6023  0.3748 -0.3006
  390TIP3    H122661   2.162   5.511   2.831 -0.0663 -2.0764  1.4807
  390TIP3    H222662   2.206   5.528   2.974 -2.7621 -0.0124  2.1611
  391TIP3   OH222663   0.389   3.877   0.458 -0.4706 -0.0592  0.8671
  391TIP3    H122664   0.367   3.873   0.365  0.4310 -0.5867  0.6607
  391TIP3    H222665   0.322   3.933   0.497  0.0065  1.4340 -0.3603
  392TIP3   OH222666   1.171   4.380  14.780 -0.4824 -0.0783  0.1889
  392TIP3    H122667   1.257   4.422  14.785 -0.7119  0.2899  1.3920
  392TIP3    H222668   1.187   4.288  14.800 -0.3706 -0.0092  0.4165
  393TIP3   OH222669   0.073   2.937  15.141 -0.1120 -0.1949 -0.2115
  393TIP3    H122670   0.133   2.999  15.099 -1.0480  0.3394 -0.8057
  393TIP3    H222671  -0.006   2.941  15.087 -0.1046 -2.1179 -0.4382
  394TIP3   OH222672   3.515   1.321  11.065 -0.2544  0.0268 -0.0077
  394TIP3    H122673   3.465   1.289  11.140 -0.3561  0.9368  0.3240
  394TIP3    H222674   3.453   1.320  10.992  0.2107 -2.1885 -0.4468
  395TIP3   OH222675   0.380   1.549  12.670 -0.0521  0.7132 -0.9146
  395TIP3    H122676   0.405   1.497  12.747 -2.0612 -0.1375 -0.7642
  395TIP3    H222677   0.448   1.615  12.662 -0.5167  1.8245  2.5540
  396TIP3   OH222678   1.771   4.367   0.728  0.0993 -0.1274 -0.2796
  396TIP3    H122679   1.725   4.365   0.644 -0.2567  1.1316 -0.1356
  396TIP3    H222680   1.714   4.418   0.785  0.5789 -0.5425  0.5909
  397TIP3   OH222681   0.707   2.399  11.815 -0.1205 -0.3214 -0.5120
  397TIP3    H122682   0.800   2.400  11.791  0.0501  0.8949  0.1417
  397TIP3    H222683   0.666   2.459  11.753  0.1924  2.1994  1.5932
  398TIP3   OH222684   4.429   2.157   0.444 -0.6224 -0.1048  0.2845
  398TIP3    H122685   4.445   2.066   0.468  0.9605 -0.1774 -0.9145
  398TIP3    H222686   4.356   2.154   0.383 -0.4331 -0.5959  0.0816
  399TIP3   OH222687   3.606   5.738  16.238 -0.4562  0.0430 -0.0404
  399TIP3    H122688   3.690   5.722  16.281  0.1278  0.0217 -1.1426
  399TIP3    H222689   3.623   5.721  16.145 -1.8791 -0.7037 -0.2004
  400TIP3   OH222690   2.473   4.254  14.069  0.0502  0.0662 -0.5249
  400TIP3    H122691   2.487   4.348  14.080  0.2453  0.0555 -0.6800
  400TIP3    H222692   2.407   4.247  14.001  0.1531  0.0873 -0.6270
  401TIP3   OH222693   4.182   3.807   1.172 -0.2332 -0.2677  0.2161
  401TIP3    H122694   4.097   3.778   1.205 -0.1839 -0.2332  0.3716
  401TIP3    H222695   4.215   3.868   1.238 -0.0567 -0.3323  0.1883
  402TIP3   OH222696   5.672   0.291   5.727 -0.5413  0.0424 -0.0120
  402TIP3    H122697   5.697   0.316   5.638 -0.7570  0.9874  0.1848
  402TIP3    H222698   5.753   0.256   5.766 -0.0887  0.9085 -0.1413
  403TIP3   OH222699   6.390   5.051  11.916 -0.4596 -0.7524  0.5089
  403TIP3    H122700   6.434   4.967  11.929  1.6936  0.1875 -0.2222
  403TIP3    H222701   6.396   5.067  11.822  0.3718  0.8190  0.7967
  404TIP3   OH222702   3.668   2.159   4.382 -0.7441 -0.2662  0.4400
  404TIP3    H122703   3.672   2.078   4.331 -0.4187  0.4038 -0.6269
  404TIP3    H222704   3.746   2.156   4.437 -1.3206 -1.1983  1.2292
  405TIP3   OH222705   4.757   3.305   6.310 -0.0520 -0.2219 -0.0144
  405TIP3    H122706   4.712   3.302   6.395  0.0191  0.7249  0.0762
  405TIP3    H222707   4.824   3.372   6.321  0.1498 -0.2974 -0.7320
  406TIP3   OH222708   1.260   1.366   5.650  0.3259  0.3541  0.5427
  406TIP3    H122709   1.229   1.452   5.620 -1.7532 -0.4989  0.0442
  406TIP3    H222710   1.307   1.330   5.575 -2.3155 -0.5551 -0.8094
  407TIP3   OH222711   2.670   4.537  16.140 -0.0474 -0.0984  0.6861
  407TIP3    H122712   2.626   4.471  16.087 -0.9755  0.4206  0.7923
  407TIP3    H222713   2.729   4.581  16.079 -0.1923 -0.3302  0.3757
  408TIP3   OH222714   1.851   6.623   4.956  0.0497 -0.2163 -0.3179
  408TIP3    H122715   1.812   6.642   4.871  0.9088 -0.8541 -0.8696
  408TIP3    H222716   1.896   6.704   4.981  1.0142 -0.4644 -1.1623
  409TIP3   OH222717   2.437   6.487  15.069  0.0231 -0.5849 -0.3442
  409TIP3    H122718   2.526   6.454  15.082  0.3143  0.5942  0.9622
  409TIP3    H222719   2.439   6.531  14.985  0.7296 -0.4394 -0.2591
  410TIP3   OH222720   2.721   4.359   3.003  0.3542  0.7884 -0.0789
  410TIP3    H122721   2.784   4.377   3.073  1.2973 -1.4325 -0.2944
  410TIP3    H222722   2.649   4.421   3.019  0.3799  0.1605  3.0671
  411TIP3   OH222723   6.442   1.027  14.267 -0.3983 -0.3887  0.0796
  411TIP3    H122724   6.465   0.941  14.230  0.8204  0.1606 -0.4918
  411TIP3    H222725   6.355   1.014  14.304  0.4317 -2.3745  1.5719
  412TIP3   OH222726   0.516   6.239   6.772 -0.4675  0.3275 -0.4999
  412TIP3    H122727   0.543   6.148   6.755 -1.0502 -0.0826  0.6287
  412TIP3    H222728   0.596   6.290   6.766  0.0232 -0.4010 -0.2800
  413TIP3   OH222729   3.851   2.972   5.227  0.9413 -0.4681  0.3647
  413TIP3    H122730   3.889   2.889   5.257  1.1722 -0.2121  0.7974
  413TIP3    H222731   3.852   2.966   5.132  0.8667 -1.0030  0.3954
  414TIP3   OH222732   2.862   2.184  16.695  0.5086 -0.1787 -0.7656
  414TIP3    H122733   2.886   2.134  16.773  0.2177 -0.3201 -0.7648
  414TIP3    H222734   2.841   2.117  16.629 -1.9538 -0.1241 -0.1505
  415TIP3   OH222735   5.723   1.360   5.196  0.3757 -0.4006 -0.3253
  415TIP3    H122736   5.688   1.402   5.117 -0.7310 -0.2234  0.2463
  415TIP3    H222737   5.763   1.279   5.164  1.5204  0.4953 -1.2902
  416TIP3   OH222738   6.021   2.236   6.355  0.1158 -0.7067 -0.1150
  416TIP3    H122739   5.953   2.225   6.420  2.4976  1.0245  2.9207
  416TIP3    H222740   5.976   2.225   6.271 -4.0260  1.1563  1.5937
  417TIP3   OH222741   3.227   6.781   2.442  0.4123 -1.2235 -0.5342
  417TIP3    H122742   3.320   6.798   2.428  0.1429  1.3750  0.3441
  417TIP3    H222743   3.215   6.787   2.537 -0.9706  0.8373 -0.7634
  418TIP3   OH222744   1.829   1.084   1.553 -1.0790  0.4302  0.6513
  418TIP3    H122745   1.882   1.075   1.474 -0.5165  0.2850  1.0336
  418TIP3    H222746   1.743   1.050   1.529  0.1704 -3.7678  1.2457
  419TIP3   OH222747   4.204   4.487  16.964  0.1101  0.2421 -0.0763
  419TIP3    H122748   4.208   4.395  16.991  1.4131 -0.0911 -1.2696
  419TIP3    H222749   4.279   4.527  17.008  1.7057 -0.1058 -2.3000
  420TIP3   OH222750   1.570   5.544  12.296 -0.0281  0.2065 -0.4838
  420TIP3    H122751   1.502   5.611  12.307 -0.7321 -0.7119  0.9659
  420TIP3    H222752   1.624   5.552  12.374 -0.0612 -0.8456 -0.3425
  421TIP3   OH222753   3.441   2.079  13.694 -0.5150 -0.6059 -0.2624
  421TIP3    H122754   3.377   2.116  13.754  0.8302  0.2193  0.7311
  421TIP3    H222755   3.514   2.142  13.695  0.8783 -2.1516 -0.2952
  422TIP3   OH222756   2.833   0.000   0.085 -0.1084  0.0910 -0.3554
  422TIP3    H122757   2.781   0.047   0.150  0.7100  0.8026 -0.1914
  422TIP3    H222758   2.924   0.013   0.113  0.1507 -1.7906 -0.1766
  423TIP3   OH222759   0.934   1.702  14.661 -0.7104 -0.1647  0.1004
  423TIP3    H122760   0.979   1.750  14.591  0.6800 -1.1839  0.2617
  423TIP3    H222761   0.915   1.768  14.727  0.7029  0.2821  0.0944
  424TIP3   OH222762   3.270   4.919  14.308 -0.1635  0.3259  0.9885
  424TIP3    H122763   3.176   4.919  14.295 -0.3680 -2.9046  1.6009
  424TIP3    H222764   3.283   4.964  14.391 -1.2496  0.1334  1.2714
  425TIP3   OH222765   1.944   1.385  15.737 -0.2661 -0.7028 -0.8073
  425TIP3    H122766   1.879   1.450  15.762  1.3060  0.3084  0.9789
  425TIP3    H222767   1.993   1.425  15.665  0.6205  0.1179  0.2107
  426TIP3   OH222768   0.213   2.790   5.169 -0.8641 -0.0385  0.2405
  426TIP3    H122769   0.161   2.829   5.240 -1.8530 -1.0369  0.0841
  426TIP3    H222770   0.246   2.866   5.121 -0.4384  0.6601  1.5540
  427TIP3   OH222771   2.248   5.627  14.048  0.2761  0.0795 -0.3084
  427TIP3    H122772   2.319   5.632  13.985  0.4140 -1.6549 -0.3475
  427TIP3    H222773   2.176   5.586  14.000 -0.3202  0.6390  0.0876
  428TIP3   OH222774   1.031   0.091  14.627  0.0280  0.4104  0.1146
  428TIP3    H122775   1.033   0.013  14.571  0.9530  0.6195 -0.1659
  428TIP3    H222776   1.017   0.164  14.566 -0.5903  0.4983  0.3495
  429TIP3   OH222777   0.668   3.908  12.445 -0.3785 -0.1628 -0.0108
  429TIP3    H122778   0.669   3.981  12.384 -1.4744  0.4123  0.6203
  429TIP3    H222779   0.581   3.868  12.434  0.2368 -1.4173 -0.3999
  430TIP3   OH222780   0.887   2.569   3.903 -0.0787  0.1985  0.2863
  430TIP3    H122781   0.968   2.518   3.902 -0.1641  0.0730 -0.5048
  430TIP3    H222782   0.892   2.619   3.984  0.0479 -1.0117  1.0579
  431TIP3   OH222783   2.195   4.509  16.154 -0.2792 -0.0058 -0.1627
  431TIP3    H122784   2.261   4.508  16.223  0.2201  0.1174 -0.6322
  431TIP3    H222785   2.161   4.419  16.153 -1.1900  0.3042  1.0813
  432TIP3   OH222786   5.539   1.474  13.561  0.0515 -0.5350 -0.0642
  432TIP3    H122787   5.631   1.498  13.574  0.0386 -0.3793 -0.2489
  432TIP3    H222788   5.497   1.495  13.644  0.1960 -0.6605  0.0409
  433TIP3   OH222789   5.147   3.115  16.809  0.5311  0.7134  0.1342
  433TIP3    H122790   5.117   3.146  16.894 -0.3702 -0.5367  0.3057
  433TIP3    H222791   5.212   3.048  16.829 -0.0472  0.0562 -0.1272
  434TIP3   OH222792   1.933   0.477   0.146 -0.6089  0.1889 -0.0399
  434TIP3    H122793   1.942   0.461   0.052 -1.6354  0.3967 -0.1856
  434TIP3    H222794   1.857   0.536   0.153 -0.4548  0.2902  0.9080
  435TIP3   OH222795   2.547   0.667   0.171 -0.7743  0.1616 -0.0967
  435TIP3    H122796   2.610   0.696   0.106 -1.5882  1.1519 -0.4675
  435TIP3    H222797   2.520   0.579   0.142  1.1793 -0.7364  0.6417
  436TIP3   OH222798   3.916   1.563   3.836 -0.3769  0.2086 -0.1655
  436TIP3    H122799   3.936   1.655   3.822 -0.3591  0.2821  0.3499
  436TIP3    H222800   3.995   1.526   3.873 -1.3829  0.6838  2.6779
  437TIP3   OH222801   5.674   6.371   5.324  0.0823 -0.0352  0.7440
  437TIP3    H122802   5.627   6.393   5.404  0.7705  0.3882  1.0388
  437TIP3    H222803   5.756   6.421   5.329  0.7623 -1.0951  0.4446
  438TIP3   OH222804   4.856   0.591   5.874  0.2535  0.1026  0.4176
  438TIP3    H122805   4.765   0.614   5.857  0.4261  0.2491 -0.3106
  438TIP3    H222806   4.888   0.661   5.931  0.2338  0.6609 -0.2484
  439TIP3   OH222807   6.805   2.737  11.271  0.2994 -0.0176  0.4255
  439TIP3    H122808   6.897   2.764  11.269 -0.1396  1.5111 -0.9336
  439TIP3    H222809   6.777   2.739  11.180 -1.1954 -0.0757  0.8551
  440TIP3   OH222810   0.768   2.871  14.234 -0.0581 -0.5118 -0.8006
  440TIP3    H122811   0.779   2.953  14.283  0.3216 -0.9441 -0.1523
  440TIP3    H222812   0.844   2.867  14.176  0.0967 -0.5735 -0.5922
  441TIP3   OH222813   4.855   0.703  13.023 -0.2025 -0.2349 -0.5289
  441TIP3    H122814   4.895   0.618  13.003 -0.1164 -0.6914  1.3525
  441TIP3    H222815   4.927   0.765  13.020  0.2972 -0.7128  0.8016
  442TIP3   OH222816   2.260   2.499  11.681  0.0397  0.3942  0.6351
  442TIP3    H122817   2.275   2.477  11.773  0.3751 -0.8511  0.3065
  442TIP3    H222818   2.295   2.587  11.672  0.3009  0.4087  1.6275
  443TIP3   OH222819   6.615   3.945  13.316  0.3332  0.5051 -0.2519
  443TIP3    H122820   6.548   3.910  13.258 -0.0445  0.5812  0.1363
  443TIP3    H222821   6.698   3.914  13.278  0.0635  0.1314 -0.5432
  444TIP3   OH222822   3.578   5.611   0.566 -0.3086  0.3261  0.2075
  444TIP3    H122823   3.504   5.579   0.515 -0.3170  0.1421  0.3330
  444TIP3    H222824   3.644   5.634   0.500 -0.8975  1.5870  0.0482
  445TIP3   OH222825   5.464   0.702   2.469 -0.1484  0.4656  0.4723
  445TIP3    H122826   5.393   0.674   2.527  1.1683 -2.1821  0.9721
  445TIP3    H222827   5.512   0.767   2.520 -0.1571 -0.3830  1.6049
  446TIP3   OH222828   4.829   2.564  11.274 -0.5319  0.1275 -0.1196
  446TIP3    H122829   4.790   2.566  11.187 -0.4414 -0.4425 -0.1810
  446TIP3    H222830   4.825   2.654  11.305 -4.0206 -0.1764  0.7965
  447TIP3   OH222831   2.633   3.457   5.039 -0.1599  0.7272 -0.4363
  447TIP3    H122832   2.600   3.544   5.016  0.5003  0.6793 -1.7116
  447TIP3    H222833   2.571   3.396   4.998  0.6434  0.6370 -1.5971
  448TIP3   OH222834   1.821   6.352  15.287  0.5341 -0.0535  0.1563
  448TIP3    H122835   1.745   6.300  15.260 -0.5111  0.8768  1.1906
  448TIP3    H222836   1.802   6.440  15.255  0.6743  0.4101  1.2933
  449TIP3   OH222837   0.744   5.436   3.031 -0.4308  0.2025 -0.2318
  449TIP3    H122838   0.676   5.496   2.999 -1.1967 -0.2708  0.4632
  449TIP3    H222839   0.769   5.472   3.116  2.1200  1.8694 -1.5626
  450TIP3   OH222840   6.473   0.756   2.694  0.2484  0.7235  0.3001
  450TIP3    H122841   6.508   0.731   2.609 -0.5435 -0.2803  0.2519
  450TIP3    H222842   6.540   0.729   2.757 -0.7107 -1.9772  0.2871
  451TIP3   OH222843   3.144   3.474   3.362 -0.8653 -0.3186  0.0528
  451TIP3    H122844   3.097   3.490   3.280  0.1437  0.2046 -0.4421
  451TIP3    H222845   3.231   3.511   3.347 -1.4145  2.1361  2.2674
  452TIP3   OH222846   1.677   4.876  16.009  0.5834 -0.6143 -0.5689
  452TIP3    H122847   1.644   4.961  15.980  1.1317 -0.0884  0.2877
  452TIP3    H222848   1.661   4.875  16.104 -0.6965 -2.0665 -0.7535
  453TIP3   OH222849   1.526   1.125   0.816  0.8818 -0.1795 -0.0675
  453TIP3    H122850   1.522   1.038   0.778  0.4647  0.1201 -0.7202
  453TIP3    H222851   1.573   1.178   0.752  0.1436  0.3368 -0.1981
  454TIP3   OH222852   5.802   4.415  15.919  0.3975 -0.5518  0.5478
  454TIP3    H122853   5.805   4.466  15.838 -0.2011 -0.9553  0.2690
  454TIP3    H222854   5.842   4.331  15.896 -0.4656 -0.9470  0.4552
  455TIP3   OH222855   4.130   3.843  14.621  0.3242  0.2447  0.2375
  455TIP3    H122856   4.173   3.817  14.702  1.9312  0.2944 -0.5672
  455TIP3    H222857   4.122   3.762  14.571 -1.4048  0.0638  0.7320
  456TIP3   OH222858   2.870   4.749  13.189 -0.5013 -0.1785 -0.8373
  456TIP3    H122859   2.782   4.710  13.187 -0.7538  0.3728 -0.6816
  456TIP3    H222860   2.856   4.840  13.164 -0.2825  0.4853  1.2680
  457TIP3   OH222861   6.029   6.447   2.508 -0.5814 -0.6738 -0.4113
  457TIP3    H122862   5.968   6.380   2.478 -0.8242  0.2952 -2.1668
  457TIP3    H222863   5.974   6.517   2.542 -0.3200 -1.6633  2.3235
  458TIP3   OH222864   2.400   3.718   3.870  0.1213  0.2642  0.3617
  458TIP3    H122865   2.361   3.653   3.928  0.4602 -2.1910 -1.9558
  458TIP3    H222866   2.327   3.749   3.816  0.3572 -0.0619 -0.1602
  459TIP3   OH222867   5.715   0.438  11.412  0.1266  0.1481  0.3233
  459TIP3    H122868   5.634   0.429  11.362  0.3932  1.3870 -0.3615
  459TIP3    H222869   5.735   0.349  11.442 -0.6415 -0.4317 -0.8188
  460TIP3   OH222870   4.910   4.853   0.900 -0.6312  0.0992 -0.2264
  460TIP3    H122871   4.892   4.789   0.969 -0.2545  0.0668 -0.1548
  460TIP3    H222872   4.874   4.815   0.821 -0.0146 -0.4129 -0.2712
  461TIP3   OH222873   4.884   6.068   1.468 -0.1994 -0.1349  0.7384
  461TIP3    H122874   4.815   6.014   1.507  0.3096 -0.9298  0.5571
  461TIP3    H222875   4.918   6.015   1.395 -0.9579  1.1994 -0.6493
  462TIP3   OH222876   3.124   5.978   1.489 -0.5475 -0.2277  0.4960
  462TIP3    H122877   3.083   5.924   1.557 -0.3627 -0.6884  0.2461
  462TIP3    H222878   3.186   5.919   1.446  0.7458  0.5838  1.1831
  463TIP3   OH222879   1.776   1.036   6.307  0.0369 -0.4447  0.3010
  463TIP3    H122880   1.786   1.131   6.317  1.7577 -0.5567  0.0206
  463TIP3    H222881   1.686   1.018   6.333  0.1307  1.0765  1.8308
  464TIP3   OH222882   1.624   4.180   4.407  0.0580 -0.4188 -0.4132
  464TIP3    H122883   1.553   4.142   4.356  0.2353 -1.4185  0.0487
  464TIP3    H222884   1.591   4.265   4.436 -0.5226 -0.3994 -1.1160
  465TIP3   OH222885   0.773   6.724  16.542 -0.0459  1.0663 -0.3654
  465TIP3    H122886   0.707   6.774  16.589  0.3026  2.4489 -1.3030
  465TIP3    H222887   0.839   6.704  16.608 -0.7902  0.7158  0.3015
  466TIP3   OH222888   5.066   1.393  11.838  0.6178  0.3881 -0.0460
  466TIP3    H122889   5.075   1.475  11.886  1.5691  0.8490 -0.9921
  466TIP3    H222890   5.132   1.335  11.877 -0.7975 -0.3556  1.3970
  467TIP3   OH222891   1.910   5.671  15.012 -0.6922 -0.7779  0.2003
  467TIP3    H122892   1.954   5.706  14.934  1.1968 -0.6974  1.2670
  467TIP3    H222893   1.836   5.621  14.977 -0.0901 -0.4655 -1.6163
  468TIP3   OH222894   5.401   2.717   2.469  0.3388  0.2532  0.1233
  468TIP3    H122895   5.370   2.666   2.394 -0.2011 -0.2680  0.6925
  468TIP3    H222896   5.496   2.725   2.455  0.1972  0.4635 -0.7879
  469TIP3   OH222897   3.062   5.342   5.574  0.7008  0.4732 -0.1441
  469TIP3    H122898   3.040   5.249   5.572  3.2820 -0.2459  0.3013
  469TIP3    H222899   3.002   5.380   5.638 -0.1860 -0.9587 -0.0851
  470TIP3   OH222900   6.506   1.844   2.154 -0.4010 -0.1373 -0.1724
  470TIP3    H122901   6.437   1.903   2.124  0.2173  0.3612 -0.6414
  470TIP3    H222902   6.564   1.833   2.078  0.7763  0.5447  0.5882
  471TIP3   OH222903   4.100   5.055  13.427  0.0159 -0.2928 -0.3239
  471TIP3    H122904   4.011   5.018  13.422 -1.3016  2.4742  0.7174
  471TIP3    H222905   4.087   5.149  13.420  3.2707  0.1113 -3.7721
  472TIP3   OH222906   2.676   0.733  11.323 -0.1413  0.5561 -0.1462
  472TIP3    H122907   2.736   0.658  11.326  0.4592  1.0243 -0.2161
  472TIP3    H222908   2.594   0.700  11.360 -0.0713 -0.2997 -0.7371
  473TIP3   OH222909   5.636   1.238  13.152 -0.1195  0.1802  0.0956
  473TIP3    H122910   5.707   1.193  13.198  1.7432 -0.9915 -3.5218
  473TIP3    H222911   5.561   1.179  13.159  0.6902 -0.8804 -0.0026
  474TIP3   OH222912   4.166   6.738   3.621  0.8085 -0.0097  0.9027
  474TIP3    H122913   4.249   6.768   3.657  0.7712  1.1371  0.0752
  474TIP3    H222914   4.149   6.797   3.548 -0.9212 -0.0042  1.2756
  475TIP3   OH222915   3.943   5.296  13.989  0.1376  0.0194  0.5443
  475TIP3    H122916   3.899   5.248  14.059  3.0021 -0.9460  1.8189
  475TIP3    H222917   3.999   5.359  14.034 -1.6438  3.0117 -1.0506
  476TIP3   OH222918   6.331   3.604   5.298 -0.3597 -0.5438  0.9026
  476TIP3    H122919   6.371   3.674   5.246 -2.7692  0.4518  0.2441
  476TIP3    H222920   6.294   3.545   5.233  0.0920 -1.4958  1.4908
  477TIP3   OH222921   0.402   0.425   0.309  0.3489  0.1502 -0.3916
  477TIP3    H122922   0.391   0.515   0.339  1.3103  0.5393 -1.1442
  477TIP3    H222923   0.324   0.379   0.340 -0.1419  1.2330  0.0187
  478TIP3   OH222924   6.260   4.942  15.909  0.2693 -0.1158  0.7104
  478TIP3    H122925   6.295   5.005  15.972 -0.4750 -0.3554  1.3741
  478TIP3    H222926   6.288   4.976  15.823 -0.4691  1.3465  1.0182
  479TIP3   OH222927   0.578   0.105   5.890  0.4759  0.0540 -0.7602
  479TIP3    H122928   0.659   0.081   5.935 -0.4333 -0.1000  0.9016
  479TIP3    H222929   0.528   0.152   5.956 -1.3767 -1.0844 -1.2724
  480TIP3   OH222930   6.582   5.563   4.581  0.2475  0.1800 -0.3408
  480TIP3    H122931   6.528   5.514   4.519  0.5876 -1.2733  0.4666
  480TIP3    H222932   6.635   5.496   4.625  0.7691  1.2834  0.7716
  481TIP3   OH222933   4.984   1.626   1.500  0.3719 -0.7312  1.0328
  481TIP3    H122934   4.946   1.624   1.588 -3.0733  0.1752 -0.2748
  481TIP3    H222935   5.040   1.703   1.500 -1.4055  0.6509  1.8568
  482TIP3   OH222936   2.050   3.588   5.414  0.3039  0.1326 -0.6704
  482TIP3    H122937   2.129   3.627   5.376  0.3743  0.1152 -0.5416
  482TIP3    H222938   1.978   3.638   5.375  0.4546  1.8653  1.1312
  483TIP3   OH222939   4.983   0.198  11.214 -0.0837 -0.3353 -0.1145
  483TIP3    H122940   4.924   0.202  11.289  1.4955  1.9375  1.1456
  483TIP3    H222941   5.062   0.155  11.248  0.8966  1.3122 -0.2042
  484TIP3   OH222942   5.526   5.990  10.939  0.1833 -0.3954 -0.5668
  484TIP3    H122943   5.450   5.958  10.890  0.7796 -1.1114 -1.0495
  484TIP3    H222944   5.521   6.085  10.930 -0.2814 -0.4652 -1.1678
  485TIP3   OH222945   0.370   6.385   5.316  0.2069  0.4493  0.6836
  485TIP3    H122946   0.311   6.433   5.374  0.6728  1.0963  0.6270
  485TIP3    H222947   0.447   6.441   5.308  1.8135 -1.3296  2.5050
  486TIP3   OH222948   3.093   0.478   4.299 -0.3714  0.6002  0.2603
  486TIP3    H122949   3.175   0.523   4.317 -0.1294 -0.6662  2.6523
  486TIP3    H222950   3.109   0.433   4.216  0.2968  2.6337 -0.7853
  487TIP3   OH222951   1.589   4.339   4.772 -0.3475 -0.0480  0.0084
  487TIP3    H122952   1.644   4.329   4.695 -0.2099  0.7684 -0.0091
  487TIP3    H222953   1.631   4.408   4.823 -2.4942  2.2116 -1.0658
  488TIP3   OH222954   6.264   2.747  17.128 -0.1728 -0.6397  0.1180
  488TIP3    H122955   6.284   2.661  17.166  1.6161  0.2395  1.2912
  488TIP3    H222956   6.323   2.755  17.054 -1.0533 -0.8063 -0.6216
  489TIP3   OH222957   6.137   2.657   2.785 -0.1660 -0.5816 -0.4983
  489TIP3    H122958   6.226   2.652   2.748  0.5125  2.3485  0.4720
  489TIP3    H222959   6.079   2.647   2.710  1.0941  0.7632 -1.7246
  490TIP3   OH222960   0.401   3.555   5.187  0.2123  0.0478  0.0216
  490TIP3    H122961   0.440   3.471   5.212 -1.3984 -0.1250  2.2488
  490TIP3    H222962   0.308   3.535   5.173 -0.0036  1.2937 -0.4630
  491TIP3   OH222963   4.752   5.079  11.802 -0.1794  0.4732 -0.4491
  491TIP3    H122964   4.770   5.145  11.735 -0.0891  2.5616  1.5059
  491TIP3    H222965   4.837   5.058  11.839 -0.4036  0.8950  0.3479
  492TIP3   OH222966   4.487   0.405  15.727  0.2110 -0.4425 -0.8785
  492TIP3    H122967   4.451   0.396  15.639  0.8536  0.1996 -1.2115
  492TIP3    H222968   4.467   0.495  15.753 -0.2678 -0.7254 -0.2306
  493TIP3   OH222969   5.596   6.126   3.230  0.4049 -0.0341 -0.0008
  493TIP3    H122970   5.526   6.104   3.169  0.7580  2.2785 -1.3784
  493TIP3    H222971   5.642   6.200   3.189  1.5582  0.7181  2.4138
  494TIP3   OH222972   2.755   5.825  11.462 -0.3054  0.0698 -0.2013
  494TIP3    H122973   2.730   5.866  11.379 -0.0346 -0.5685 -0.6136
  494TIP3    H222974   2.739   5.892  11.528 -2.0892  0.0461 -0.5668
  495TIP3   OH222975   2.569   2.996   0.877 -0.3870  0.0736 -0.1355
  495TIP3    H122976   2.635   2.986   0.809  1.1093  1.3133  1.0463
  495TIP3    H222977   2.580   2.919   0.933  0.7804  0.7665  0.6142
  496TIP3   OH222978   5.985   2.462  16.168  0.1989  0.4268  0.0300
  496TIP3    H122979   5.988   2.368  16.151  1.5016  0.3126  0.6904
  496TIP3    H222980   5.913   2.474  16.230  1.4883 -0.4983  1.7740
  497TIP3   OH222981   1.547   2.469   0.682 -0.1996  0.2047  0.3113
  497TIP3    H122982   1.613   2.445   0.617  0.2391  0.6281  0.5913
  497TIP3    H222983   1.589   2.451   0.766 -0.5307  0.2481  0.4862
  498TIP3   OH222984   2.493   3.247   2.860 -0.0390 -0.3190  0.2070
  498TIP3    H122985   2.432   3.308   2.817  0.0554 -0.0512  0.4445
  498TIP3    H222986   2.568   3.302   2.883  1.7916 -1.2515 -3.0104
  499TIP3   OH222987   6.559   5.580   3.584 -0.3926  0.1646 -0.3756
  499TIP3    H122988   6.558   5.484   3.594 -2.5652  0.0707 -0.9643
  499TIP3    H222989   6.581   5.593   3.491  0.3725  0.2585 -0.1823
  500TIP3   OH222990   4.849   1.605   1.743  0.0261  0.9434 -0.3909
  500TIP3    H122991   4.927   1.646   1.781 -1.0389  2.4843  0.2659
  500TIP3    H222992   4.817   1.546   1.810  0.3129  0.7274 -0.4433
  501TIP3   OH222993   3.308   0.226   6.741  0.5098 -0.7898  0.3462
  501TIP3    H122994   3.397   0.251   6.716  0.0250 -0.3740 -1.0246
  501TIP3    H222995   3.259   0.225   6.659 -1.3340  1.3010  1.3184
  502TIP3   OH222996   0.663   4.262   3.385  0.0980  0.4997  0.5536
  502TIP3    H122997   0.640   4.253   3.293 -0.3083 -0.4563  0.7387
  502TIP3    H222998   0.603   4.203   3.431 -0.3706  1.7050  1.5325
  503TIP3   OH222999   5.168   5.561   4.113  0.7170 -0.1464  0.3139
  503TIP3    H123000   5.202   5.483   4.157  1.9744  0.0588 -0.2751
  503TIP3    H223001   5.244   5.603   4.074 -0.2086  0.2196 -1.2180
  504TIP3   OH223002   0.223   6.039   1.864 -0.0594 -0.0627 -0.2724
  504TIP3    H123003   0.199   5.991   1.785  1.2645 -0.2010 -0.6134
  504TIP3    H223004   0.144   6.038   1.917 -0.5134 -1.3261 -0.9215
  505TIP3   OH223005   0.093   4.448   2.324 -0.0645 -0.4417  0.0465
  505TIP3    H123006   0.178   4.482   2.355  1.1010 -1.8571 -1.4285
  505TIP3    H223007   0.095   4.461   2.230 -1.8918  0.2466  0.0706
  506TIP3   OH223008   5.142   0.295  13.761 -0.5190  0.5221  0.3604
  506TIP3    H123009   5.112   0.386  13.764 -0.5655  0.4947  2.2929
  506TIP3    H223010   5.184   0.281  13.847 -2.1954 -1.8308  0.9071
  507TIP3   OH223011   1.527   3.201  14.046 -0.0313  0.5659 -0.1235
  507TIP3    H123012   1.547   3.253  13.969  0.6288  1.4797  0.6477
  507TIP3    H223013   1.459   3.250  14.092  1.5754  1.5058  1.3305
  508TIP3   OH223014   5.457   5.597   0.773  0.9027  0.3207  0.5152
  508TIP3    H123015   5.540   5.621   0.814  1.7813  1.5993 -1.8233
  508TIP3    H223016   5.465   5.503   0.756  1.4376  0.2315  1.2241
  509TIP3   OH223017   6.126   5.961  14.000 -0.3870  0.2413 -0.8245
  509TIP3    H123018   6.098   5.900  13.931 -0.0851 -0.8643  0.0115
  509TIP3    H223019   6.136   6.045  13.954 -1.5339 -0.1482 -1.8534
  510TIP3   OH223020   2.484   0.201   2.841  0.2614  0.2474  0.3661
  510TIP3    H123021   2.454   0.291   2.841  0.3613  0.2823  0.4651
  510TIP3    H223022   2.532   0.192   2.924  0.5103  0.1911  0.2164
  511TIP3   OH223023   0.528   0.461   6.171 -0.4929 -0.0090  0.6536
  511TIP3    H123024   0.621   0.445   6.157 -0.5790 -0.2810  0.3552
  511TIP3    H223025   0.496   0.493   6.086 -0.6080  0.3892  0.8465
  512TIP3   OH223026   6.319   6.260   4.705 -0.1896 -0.0961  0.2901
  512TIP3    H123027   6.302   6.295   4.617 -0.3127  0.9048  0.7018
  512TIP3    H223028   6.233   6.245   4.742 -0.1381 -0.4391  0.2707
  513TIP3   OH223029   1.511   5.882   6.165 -0.2277  0.1626 -0.3638
  513TIP3    H123030   1.588   5.926   6.129  0.0014 -0.9889 -1.3410
  513TIP3    H223031   1.534   5.862   6.255  1.3119 -1.6179 -1.0748
  514TIP3   OH223032   1.992   6.194  15.716 -0.5705 -0.1779 -0.4016
  514TIP3    H123033   1.999   6.235  15.629 -2.3966  0.2027 -0.4179
  514TIP3    H223034   1.972   6.102  15.698  1.1850 -0.6005 -0.3568
  515TIP3   OH223035   2.290   4.474   0.167  0.1522  0.5305  0.0496
  515TIP3    H123036   2.376   4.431   0.170 -0.6124 -1.1880 -1.0374
  515TIP3    H223037   2.236   4.423   0.227 -0.5742  0.4262 -0.6765
  516TIP3   OH223038   5.588   4.081  12.244  0.1630  0.5080  0.1460
  516TIP3    H123039   5.605   4.175  12.251 -1.1768  0.7256  0.8664
  516TIP3    H223040   5.494   4.076  12.224  0.3761 -0.6613 -0.6385
  517TIP3   OH223041   6.194   3.777  12.379  0.2953  0.5777 -0.3270
  517TIP3    H123042   6.156   3.784  12.467  0.8269  1.3211 -0.1504
  517TIP3    H223043   6.238   3.692  12.379  0.1741  0.5085  0.0779
  518TIP3   OH223044   4.986   6.572  13.553  0.0136  0.1247  0.2216
  518TIP3    H123045   4.997   6.655  13.600  1.8979  0.0686 -0.0183
  518TIP3    H223046   4.912   6.530  13.595  0.1995  1.1013  1.6129
  519TIP3   OH223047   1.681   2.027  15.015 -0.5352 -0.1432 -0.0328
  519TIP3    H123048   1.737   2.105  15.011 -3.8179  2.5337  1.1682
  519TIP3    H223049   1.707   1.983  15.096  0.8261  0.1009 -0.3031
  520TIP3   OH223050   5.028   0.253  16.893 -0.4963  0.6009 -0.5933
  520TIP3    H123051   5.048   0.345  16.907 -0.1505  0.8292 -2.2816
  520TIP3    H223052   4.984   0.251  16.808 -1.6813 -0.6579  0.0002
  521TIP3   OH223053   2.290   0.825   2.279  0.0859 -0.1864  0.0869
  521TIP3    H123054   2.247   0.909   2.260  1.5999  0.2605 -1.5811
  521TIP3    H223055   2.383   0.847   2.284  0.4341 -1.6641  0.3393
  522TIP3   OH223056   4.181   4.136  13.977 -0.1115  0.4517 -0.9990
  522TIP3    H123057   4.123   4.171  14.044  0.6813 -0.8460  0.4299
  522TIP3    H223058   4.268   4.141  14.015  0.2849 -0.9382 -1.6326
  523TIP3   OH223059   0.752   4.053  13.499 -1.0793  1.0662 -0.0600
  523TIP3    H123060   0.805   4.086  13.427  1.0840  0.7750  1.2981
  523TIP3    H223061   0.694   4.125  13.521  0.3912  2.3135 -0.1107
  524TIP3   OH223062   5.788   2.846  16.130 -0.1670  0.4772  0.0483
  524TIP3    H123063   5.872   2.821  16.168 -0.7146 -1.1446  0.2664
  524TIP3    H223064   5.778   2.789  16.054 -0.0892  2.1934 -1.3192
  525TIP3   OH223065   3.118   1.538   2.102 -0.0134 -0.2558 -0.2941
  525TIP3    H123066   3.077   1.608   2.153  2.1441  0.8310  0.0166
  525TIP3    H223067   3.172   1.491   2.165  1.0944 -0.1656 -1.1455
  526TIP3   OH223068   3.176   0.749  12.739 -0.4565 -0.3144  0.2292
  526TIP3    H123069   3.228   0.697  12.678  0.8135  1.4803 -0.3333
  526TIP3    H223070   3.152   0.827  12.689 -0.4632  0.6172  1.6233
  527TIP3   OH223071   2.876   2.312   4.766 -0.3133  0.5053  0.6614
  527TIP3    H123072   2.795   2.360   4.750  0.2128  1.1386 -0.2106
  527TIP3    H223073   2.884   2.253   4.691  0.1711  0.6402  0.6035
  528TIP3   OH223074   4.047   4.985  14.208 -0.0592  0.0200 -0.6162
  528TIP3    H123075   4.066   4.892  14.190  0.8238  0.1453 -0.4156
  528TIP3    H223076   3.954   4.987  14.227  0.0683 -0.9763  0.2285
  529TIP3   OH223077   1.088   3.816   4.451 -0.5121  0.1367  0.4057
  529TIP3    H123078   1.047   3.901   4.434  2.1215  1.6577  1.1418
  529TIP3    H223079   1.169   3.818   4.401 -0.0644 -1.6856  0.9938
  530TIP3   OH223080   5.139   1.500  15.227 -0.5907 -0.2679 -0.2397
  530TIP3    H123081   5.084   1.502  15.306 -1.7142  0.3937 -1.0055
  530TIP3    H223082   5.165   1.408  15.219 -1.4249 -0.5643  0.2697
  531TIP3   OH223083   4.478   3.994  16.713 -0.5768  0.4440 -0.0826
  531TIP3    H123084   4.493   4.085  16.688  1.4615 -0.4627 -2.5873
  531TIP3    H223085   4.530   3.982  16.792 -1.3134  1.5424  0.6011
  532TIP3   OH223086   1.589   6.345  11.139 -0.2788 -0.4133  0.6389
  532TIP3    H123087   1.644   6.285  11.089 -0.4900  0.4216 -0.6319
  532TIP3    H223088   1.538   6.392  11.073 -1.6207 -0.2916  1.7238
  533TIP3   OH223089   2.040   2.718   4.101  0.0288 -0.0652 -0.2853
  533TIP3    H123090   2.119   2.722   4.154 -0.1733  0.6343 -0.0269
  533TIP3    H223091   1.971   2.696   4.163 -0.8797  4.2725  0.5901
  534TIP3   OH223092   4.074   5.272  13.097  0.2124 -0.2976  0.7507
  534TIP3    H123093   4.061   5.178  13.093  0.9710 -0.3669 -1.4496
  534TIP3    H223094   4.108   5.295  13.011 -1.0160  2.1576  0.8317
  535TIP3   OH223095   5.494   3.637  12.469  0.8074 -0.2120  0.0725
  535TIP3    H123096   5.470   3.730  12.465  0.4357 -0.3250 -0.3824
  535TIP3    H223097   5.427   3.593  12.416  0.3379 -0.8703  1.1988
  536TIP3   OH223098   6.317   4.250   5.076  0.2956  0.0098 -0.0301
  536TIP3    H123099   6.319   4.306   4.998  1.4190  0.3811  0.2456
  536TIP3    H223100   6.264   4.175   5.050 -0.4381  0.7414 -0.7193
  537TIP3   OH223101   0.025   0.172   6.036  0.3417 -0.3280  0.5338
  537TIP3    H123102  -0.065   0.174   6.069  0.3242  0.1454  0.4671
  537TIP3    H223103   0.079   0.166   6.114  0.2413 -1.1352  0.5538
  538TIP3   OH223104   4.317   0.550  16.085  0.0774  0.3907  0.0631
  538TIP3    H123105   4.267   0.628  16.062 -0.1197  0.1949 -0.1715
  538TIP3    H223106   4.367   0.529  16.006 -0.1225  0.0870  0.0137
  539TIP3   OH223107   5.796   0.417   5.183 -0.2641  0.8689  0.7429
  539TIP3    H123108   5.752   0.501   5.195 -1.3242  0.7621 -1.6442
  539TIP3    H223109   5.764   0.362   5.254 -0.7025  2.0521  1.4875
  540TIP3   OH223110   5.260   0.037   4.756  0.5156  0.2770  0.4547
  540TIP3    H123111   5.329   0.013   4.818 -0.9355 -1.3224  1.5744
  540TIP3    H223112   5.180   0.039   4.809 -0.3147  2.2573 -0.7561
  541TIP3   OH223113   3.312   3.395   1.908  0.4148  0.2683  0.3077
  541TIP3    H123114   3.265   3.476   1.927  0.3693  0.4349 -0.4541
  541TIP3    H223115   3.382   3.392   1.973 -2.7043 -1.8367  3.9135
  542TIP3   OH223116   0.036   5.167  16.443 -0.1591 -0.2532  0.4608
  542TIP3    H123117   0.072   5.256  16.440 -2.1005  0.5766  0.6491
  542TIP3    H223118   0.109   5.113  16.474  0.8023  1.4134  1.2386
  543TIP3   OH223119   4.862   5.594  12.306  0.1716  0.1949 -0.3463
  543TIP3    H123120   4.779   5.551  12.285  0.1482  0.1668 -0.1949
  543TIP3    H223121   4.841   5.686  12.313  0.0910  0.1493  0.0179
  544TIP3   OH223122   4.570   3.935   4.348  0.5519  0.0831  1.3178
  544TIP3    H123123   4.568   3.978   4.434 -1.4464  2.1324  0.3437
  544TIP3    H223124   4.493   3.878   4.347 -0.9903  2.0591  0.0336
  545TIP3   OH223125   4.565   6.308  15.328  0.9384 -0.1756 -0.1214
  545TIP3    H123126   4.493   6.289  15.389  2.9568  0.0574  2.4833
  545TIP3    H223127   4.637   6.252  15.356  2.0195 -0.0215 -2.3278
  546TIP3   OH223128   0.916   3.232   1.678  0.3875 -0.5898  0.2267
  546TIP3    H123129   0.873   3.146   1.687 -2.5907  0.8306  0.9029
  546TIP3    H223130   0.844   3.293   1.665  2.3674  1.9228  0.3055
  547TIP3   OH223131   1.429   4.520  12.410  0.3868  0.1327 -0.5808
  547TIP3    H123132   1.492   4.513  12.339  0.0788  2.9937 -1.2281
  547TIP3    H223133   1.344   4.519  12.367  0.1243  0.1115 -0.0697
  548TIP3   OH223134   2.516   4.981  13.300  0.3426 -0.7611  0.3159
  548TIP3    H123135   2.604   4.982  13.263  0.6854  0.7170  1.0877
  548TIP3    H223136   2.491   4.889  13.300  1.5849 -1.1251 -0.6092
  549TIP3   OH223137   5.168   0.284   6.194 -0.1774 -0.2067  0.0323
  549TIP3    H123138   5.194   0.274   6.285  0.6921  1.8485  0.0744
  549TIP3    H223139   5.099   0.219   6.181 -0.7086 -0.1857  2.3133
  550TIP3   OH223140   3.913   2.237  11.322 -0.3719  0.5073 -0.6143
  550TIP3    H123141   3.884   2.239  11.413 -0.7816 -1.2950 -0.6761
  550TIP3    H223142   3.969   2.314  11.313  1.4670 -0.4183  1.7679
  551TIP3   OH223143   6.163   0.141   4.408 -0.0298  0.1377  0.0870
  551TIP3    H123144   6.184   0.140   4.315 -0.6585  0.0173 -0.0528
  551TIP3    H223145   6.097   0.209   4.418  0.5990  0.6832  0.5704
  552TIP3   OH223146   2.707   3.283  15.275  0.0774 -0.1924 -0.1267
  552TIP3    H123147   2.756   3.312  15.197  0.6306  2.9160  1.2226
  552TIP3    H223148   2.652   3.358  15.297 -0.9840 -1.4674  1.8005
  553TIP3   OH223149   1.434   0.953   2.663 -0.6520 -0.0855 -0.8352
  553TIP3    H123150   1.401   0.932   2.575  0.1815 -1.0755 -0.9259
  553TIP3    H223151   1.493   1.027   2.649 -0.9988  0.1574 -1.0217
  554TIP3   OH223152   4.148   3.517   1.033  0.2630  0.6292 -0.5237
  554TIP3    H123153   4.165   3.603   1.070 -2.1960  0.1051  2.2406
  554TIP3    H223154   4.221   3.463   1.062  0.4087  1.1686  0.1316
  555TIP3   OH223155   6.730   3.828   0.743 -0.2216  0.1286 -0.4911
  555TIP3    H123156   6.681   3.783   0.812 -0.8301  0.5862 -0.6146
  555TIP3    H223157   6.764   3.757   0.689  2.8706 -0.4315  1.9167
  556TIP3   OH223158   6.313   4.428   1.505 -0.7086 -0.4404  0.9151
  556TIP3    H123159   6.288   4.516   1.476 -1.4483 -0.9418 -0.0407
  556TIP3    H223160   6.230   4.386   1.530 -0.7789 -1.7556 -1.2379
  557TIP3   OH223161   0.351   5.083   5.496 -0.3570  0.4932 -0.1732
  557TIP3    H123162   0.261   5.051   5.486  0.1275 -0.3132 -2.4421
  557TIP3    H223163   0.398   5.010   5.537 -0.2603  0.0581 -1.0515
  558TIP3   OH223164   4.050   2.727  14.877  0.0060 -0.5116 -0.1532
  558TIP3    H123165   4.141   2.698  14.871  0.3299  0.4141  0.1369
  558TIP3    H223166   4.049   2.811  14.832 -0.2361  0.5231  1.6869
  559TIP3   OH223167   3.169   3.909   1.234  0.5568  0.0230 -0.2173
  559TIP3    H123168   3.090   3.858   1.253  0.2448  0.7274  0.4320
  559TIP3    H223169   3.141   3.976   1.172  0.7267  0.0635 -0.2520
  560TIP3   OH223170   5.561   1.549   2.873  0.2885 -0.0891  1.0409
  560TIP3    H123171   5.597   1.614   2.934 -1.3492  1.3253  0.5927
  560TIP3    H223172   5.472   1.533   2.905  0.3180 -1.3525  0.5275
  561TIP3   OH223173   6.219   4.590   3.826  0.0636 -0.4046  0.7056
  561TIP3    H123174   6.181   4.587   3.914  0.0770  2.2758  0.8645
  561TIP3    H223175   6.312   4.610   3.841  0.1666 -0.3828  0.0732
  562TIP3   OH223176   5.768   5.217   5.122  0.0777 -0.1246 -0.3363
  562TIP3    H123177   5.697   5.201   5.185  1.0318 -0.3998  0.7034
  562TIP3    H223178   5.731   5.191   5.037 -0.8138 -0.9973  0.2903
  563TIP3   OH223179   6.173   4.925  13.221 -0.1037  0.2689 -0.4929
  563TIP3    H123180   6.091   4.876  13.214  1.0988 -2.1594  1.1624
  563TIP3    H223181   6.147   5.009  13.259 -1.8906 -0.1259 -0.7350
  564TIP3   OH223182   2.349   2.380  11.017 -0.3958  0.4218 -0.4913
  564TIP3    H123183   2.359   2.293  10.978 -0.1184 -0.0741  0.6332
  564TIP3    H223184   2.342   2.363  11.111  0.0774  1.6469 -0.2172
  565TIP3   OH223185   3.358   0.424   3.225 -0.0863  0.2178  0.0105
  565TIP3    H123186   3.268   0.447   3.246  0.1538  0.4157  0.8751
  565TIP3    H223187   3.359   0.413   3.130 -0.5767  2.2094 -0.2669
  566TIP3   OH223188   5.137   0.077   5.522 -0.1189  0.3804 -0.5613
  566TIP3    H123189   5.089   0.008   5.569 -0.8728  0.2828 -1.4343
  566TIP3    H223190   5.103   0.158   5.558 -0.2897  0.2988 -0.5349
  567TIP3   OH223191   1.608   4.244  13.889  0.2382 -0.0832 -0.3591
  567TIP3    H123192   1.625   4.324  13.938  0.2823 -0.3691  0.0953
  567TIP3    H223193   1.690   4.195  13.893  0.4512  0.1743 -1.2696
  568TIP3   OH223194   1.092   6.479  14.151 -0.3450  0.4968 -0.3223
  568TIP3    H123195   1.154   6.521  14.091  0.4109 -0.5134 -0.2800
  568TIP3    H223196   1.006   6.497  14.113  0.1093  0.0424 -1.6270
  569TIP3   OH223197   6.349   5.674   0.626 -0.0444 -0.1365  0.2867
  569TIP3    H123198   6.389   5.711   0.705 -0.6908 -0.2423  0.6689
  569TIP3    H223199   6.405   5.600   0.603  1.1955  0.9656 -0.4093
  570TIP3   OH223200   0.296   6.385  15.047 -0.2025 -0.9908 -0.5039
  570TIP3    H123201   0.346   6.435  15.111  0.7997 -1.2259 -1.0879
  570TIP3    H223202   0.213   6.433  15.039 -0.0820 -0.5929  0.4603
  571TIP3   OH223203   3.280   4.123   0.836  0.0606  0.1757  0.2293
  571TIP3    H123204   3.251   4.044   0.791  1.1717 -0.8640  1.2565
  571TIP3    H223205   3.202   4.178   0.842 -1.0086 -1.3296  0.5078
  572TIP3   OH223206   3.750   1.726  16.999 -0.0368 -0.0994  0.8740
  572TIP3    H123207   3.793   1.676  17.069  1.0664  1.2163  1.1676
  572TIP3    H223208   3.713   1.802  17.043  0.2248  0.4838  0.1100
  573TIP3   OH223209   1.975   5.440   5.193 -0.0850  0.3283  0.2725
  573TIP3    H123210   1.904   5.497   5.165 -1.2935 -1.8118 -1.2786
  573TIP3    H223211   1.939   5.392   5.268  0.5754  0.8617  0.9485
  574TIP3   OH223212   4.388   1.275  12.822 -0.0345 -0.0923 -0.0875
  574TIP3    H123213   4.429   1.361  12.831 -1.4260  0.3875  3.0385
  574TIP3    H223214   4.310   1.290  12.768 -0.0477  0.5395  0.1054
  575TIP3   OH223215   1.876   5.926  13.665  0.3169  0.1906 -0.3150
  575TIP3    H123216   1.829   5.855  13.621  0.4419  0.9936 -1.8205
  575TIP3    H223217   1.902   5.889  13.749 -0.9250 -1.0456 -0.4354
  576TIP3   OH223218   6.395   6.457  14.351 -0.2858  0.6015 -0.6611
  576TIP3    H123219   6.308   6.449  14.311 -0.3388 -0.5786 -0.3431
  576TIP3    H223220   6.437   6.373  14.335  0.8530  1.1976 -0.8967
  577TIP3   OH223221   3.054   5.814   3.208  0.5981  0.5243 -0.0379
  577TIP3    H123222   3.008   5.858   3.137  1.0427 -0.9839 -1.3230
  577TIP3    H223223   3.092   5.885   3.260  0.3252  1.6640 -1.3460
  578TIP3   OH223224   6.290   5.002   1.432 -0.2935  0.4855 -0.0457
  578TIP3    H123225   6.308   4.988   1.340 -1.4402  2.4783 -0.6558
  578TIP3    H223226   6.230   5.077   1.433 -1.6839 -0.5520  2.2225
  579TIP3   OH223227   1.493   5.908   0.126  0.0753  0.3163  0.1866
  579TIP3    H123228   1.501   5.854   0.205  0.2571 -0.0871 -0.1027
  579TIP3    H223229   1.483   5.845   0.055 -1.1135  0.6927 -0.0059
  580TIP3   OH223230   1.730   2.259  11.496  0.2567  0.4419 -0.0421
  580TIP3    H123231   1.826   2.259  11.497  0.2601  0.2815  0.8482
  580TIP3    H223232   1.706   2.351  11.500  0.3798  0.4497  0.5893
  581TIP3   OH223233   6.181   5.655   3.360  0.0637  0.0286 -0.0938
  581TIP3    H123234   6.243   5.666   3.432  0.7239 -0.6448 -0.5467
  581TIP3    H223235   6.236   5.637   3.284 -0.6096  0.9221 -0.8145
  582TIP3   OH223236   5.359   0.804  14.078  0.5623 -0.3915  0.0544
  582TIP3    H123237   5.274   0.760  14.089  0.8776 -0.7275  1.2487
  582TIP3    H223238   5.360   0.830  13.986 -0.9843 -0.0831  0.0956
  583TIP3   OH223239   2.550   3.908   1.917 -0.2152  0.1749 -0.3748
  583TIP3    H123240   2.503   3.885   1.997 -1.6621  0.3935 -1.1447
  583TIP3    H223241   2.598   3.828   1.893 -0.6812 -0.2451  0.0762
  584TIP3   OH223242   5.031   0.315  14.061 -0.6696 -0.5435  0.3822
  584TIP3    H123243   5.036   0.406  14.031 -0.6229 -0.5885  0.2579
  584TIP3    H223244   5.118   0.280  14.047 -0.6917 -0.6124  0.4179
  585TIP3   OH223245   4.996   6.492   1.202 -0.4038  0.4776 -0.6353
  585TIP3    H123246   5.060   6.485   1.273 -0.2661 -1.0577 -0.8661
  585TIP3    H223247   5.039   6.450   1.127 -1.1177  0.7386 -1.2031
  586TIP3   OH223248   0.936   0.841  11.454  0.1296  0.8757 -0.4219
  586TIP3    H123249   0.939   0.906  11.383  0.8277 -0.3739 -1.5777
  586TIP3    H223250   0.895   0.764  11.414  2.1045 -0.4456 -0.0005
  587TIP3   OH223251   5.822   0.486  16.015 -0.2038 -0.0189  0.4160
  587TIP3    H123252   5.763   0.491  16.090 -0.6880 -0.2300  0.0564
  587TIP3    H223253   5.855   0.576  16.005 -0.8199  0.2077  0.3458
  588TIP3   OH223254   5.465   1.469   4.106 -0.5712  0.1415  0.1211
  588TIP3    H123255   5.523   1.471   4.030 -1.3992 -0.3043 -0.5520
  588TIP3    H223256   5.519   1.435   4.177  0.1330  0.2528 -0.3547
  589TIP3   OH223257   0.049   5.603  11.782  0.0727  0.3310 -0.1758
  589TIP3    H123258   0.048   5.535  11.715  0.3618  0.8834 -0.7640
  589TIP3    H223259   0.072   5.683  11.734  0.9897  0.6124  0.7070
  590TIP3   OH223260   1.623   2.534   6.187  0.3678 -0.6082 -0.1410
  590TIP3    H123261   1.651   2.584   6.111 -0.0773 -0.6527 -0.3403
  590TIP3    H223262   1.527   2.542   6.187  0.4051 -0.1000  0.7687
  591TIP3   OH223263   1.246   6.429  12.034  0.8105  0.3733  0.1288
  591TIP3    H123264   1.319   6.443  11.974  0.9624  0.0061  0.2252
  591TIP3    H223265   1.226   6.516  12.068 -0.1922  0.8244 -1.4923
  592TIP3   OH223266   2.595   4.885   0.704  0.0632 -0.1331 -0.8040
  592TIP3    H123267   2.529   4.826   0.670  0.2305 -1.7113  1.4052
  592TIP3    H223268   2.678   4.840   0.689  0.2268 -0.3220  0.5195
  593TIP3   OH223269   1.028   5.116  16.789  0.0867 -0.5054 -0.0745
  593TIP3    H123270   1.104   5.172  16.805 -0.1476 -0.3184  0.3832
  593TIP3    H223271   0.953   5.172  16.803 -0.1455 -0.8140 -0.0712
  594TIP3   OH223272   0.151   3.085  13.762 -0.2769 -0.0682 -0.0491
  594TIP3    H123273   0.099   3.057  13.838  2.0617 -0.9972  1.3456
  594TIP3    H223274   0.179   3.003  13.722  1.6144  0.3139  0.3980
  595TIP3   OH223275   1.388   3.634  11.592 -0.4549 -0.3373 -0.2698
  595TIP3    H123276   1.434   3.708  11.632 -0.8642  1.4985 -2.9260
  595TIP3    H223277   1.453   3.564  11.591  0.8718  0.8333 -0.0559
  596TIP3   OH223278   6.571   0.473  13.902 -0.5756  0.5173 -0.0192
  596TIP3    H123279   6.645   0.488  13.962 -0.9160 -0.2243  0.6008
  596TIP3    H223280   6.601   0.509  13.819  0.6402 -0.0872  0.1272
  597TIP3   OH223281   5.707   6.243  12.016 -0.7584  0.6166 -0.1001
  597TIP3    H123282   5.782   6.265  12.071 -0.7728  0.6826 -0.1071
  597TIP3    H223283   5.682   6.326  11.975  0.7281  0.1927 -2.0507
  598TIP3   OH223284   0.587   5.958  14.905  0.1021 -0.0145 -0.5156
  598TIP3    H123285   0.496   5.943  14.880 -0.5544 -0.0504  1.6898
  598TIP3    H223286   0.596   5.915  14.990  2.9017 -2.1748 -1.7439
  599TIP3   OH223287   4.763   2.009  15.235  0.0188  0.3374  0.1905
  599TIP3    H123288   4.706   1.976  15.166  1.1036  0.5441 -0.8238
  599TIP3    H223289   4.764   1.939  15.301  0.8738 -0.9082 -1.1073
  600TIP3   OH223290   5.934   1.099  11.572 -0.0938  0.2660  0.7220
  600TIP3    H123291   5.920   1.192  11.593 -0.8069  0.0332  1.3102
  600TIP3    H223292   6.029   1.091  11.564 -0.0704  1.3005 -0.5729
  601TIP3   OH223293   0.279   4.150  15.666 -0.1526 -0.0457 -0.2638
  601TIP3    H123294   0.312   4.169  15.578 -2.0121  0.4613 -0.9117
  601TIP3    H223295   0.242   4.232  15.697 -1.3268 -0.6987  0.1384
  602TIP3   OH223296   6.024   1.314   4.198  0.6675  0.1579  0.2623
  602TIP3    H123297   5.995   1.325   4.289  0.8219  0.1190  0.3162
  602TIP3    H223298   5.943   1.311   4.148  0.6106  1.6306  0.2321
  603TIP3   OH223299   4.165   3.662  16.533  0.1076  0.5762 -0.0818
  603TIP3    H123300   4.215   3.675  16.452 -1.1289  1.3464 -0.7432
  603TIP3    H223301   4.107   3.738  16.538 -1.8889 -0.8784  0.0074
  604TIP3   OH223302   1.758   1.258   5.933  0.2356  0.2909  0.2812
  604TIP3    H123303   1.782   1.222   6.018 -0.9488  0.8037  0.8556
  604TIP3    H223304   1.664   1.272   5.939  0.0096 -0.3494 -1.3827
  605TIP3   OH223305   2.851   1.475   3.344  0.2341  0.0587  0.0851
  605TIP3    H123306   2.875   1.476   3.251 -0.0123  1.0182  0.0225
  605TIP3    H223307   2.932   1.495   3.391  0.0369  1.1810 -0.0186
  606TIP3   OH223308   3.190   0.421  15.876  0.1116  0.0368 -0.2971
  606TIP3    H123309   3.105   0.457  15.850  0.4575  0.2750 -1.1319
  606TIP3    H223310   3.250   0.451  15.808  1.1796  1.1885  1.1171
  607TIP3   OH223311   6.551   5.684  15.810 -0.0202  0.4030 -0.2066
  607TIP3    H123312   6.469   5.724  15.782  1.1112  1.3668 -2.3659
  607TIP3    H223313   6.549   5.597  15.771  0.6955  1.0532 -1.7924
  608TIP3   OH223314   3.873   0.558  14.776 -0.4741  0.7984  0.0956
  608TIP3    H123315   3.835   0.472  14.794 -1.6448  1.0709 -0.9629
  608TIP3    H223316   3.949   0.538  14.720 -0.9692  0.4657 -0.4737
  609TIP3   OH223317   3.377   2.681   2.458 -0.0698  0.4500 -0.5795
  609TIP3    H123318   3.353   2.602   2.410 -0.2158 -0.5175  1.0119
  609TIP3    H223319   3.295   2.726   2.474 -0.1213  0.3249 -0.4908
  610TIP3   OH223320   3.090   3.197  17.226 -0.1210 -0.1952  0.2474
  610TIP3    H123321   3.007   3.175  17.184  0.4833 -0.7858 -0.6914
  610TIP3    H223322   3.072   3.191  17.320 -0.8596 -1.4778  0.0535
  611TIP3   OH223323   3.612   5.731   0.810  0.0493 -0.6078 -0.0135
  611TIP3    H123324   3.575   5.818   0.797  0.7839 -0.2461  0.2457
  611TIP3    H223325   3.580   5.680   0.736  0.7029  0.2569 -0.9233
  612TIP3   OH223326   4.566   4.915   5.177  0.2428 -0.1070 -0.2107
  612TIP3    H123327   4.612   4.836   5.206  1.5083  0.5490 -0.3671
  612TIP3    H223328   4.491   4.882   5.128  0.2708 -1.2148  0.4473
  613TIP3   OH223329   1.952   3.102   1.297  0.0536  0.0142  0.0959
  613TIP3    H123330   1.974   3.072   1.208 -1.0549 -1.8753  0.4024
  613TIP3    H223331   1.898   3.032   1.333  2.8230 -0.7180  3.3430
  614TIP3   OH223332   5.705   3.531   5.559  0.1569  0.4279  0.0571
  614TIP3    H123333   5.777   3.489   5.510  1.8087  0.6019  2.1768
  614TIP3    H223334   5.719   3.624   5.546  1.0529  0.5001  1.3949
  615TIP3   OH223335   3.616   2.274   0.746  0.0738  0.3627  0.0657
  615TIP3    H123336   3.541   2.224   0.713 -1.4685  3.0520 -0.7516
  615TIP3    H223337   3.595   2.292   0.837  0.8990 -0.8719  0.5263
  616TIP3   OH223338   5.822   6.817  13.120  0.1486 -0.2651  0.0526
  616TIP3    H123339   5.817   6.886  13.055  1.1122 -1.2993 -1.1676
  616TIP3    H223340   5.898   6.840  13.174 -0.2880  0.2737  0.4473
  617TIP3   OH223341   5.134   1.299  14.427 -0.2052 -0.5088 -0.6478
  617TIP3    H123342   5.213   1.353  14.431  0.9447 -2.1570  0.6465
  617TIP3    H223343   5.071   1.351  14.377  0.8424  1.9431  0.4170
  618TIP3   OH223344   2.303   3.022  15.815  0.0379  0.3016  0.1533
  618TIP3    H123345   2.263   3.090  15.870 -0.8345 -1.4597  1.8159
  618TIP3    H223346   2.266   2.940  15.848  2.2504 -1.1350 -0.7208
  619TIP3   OH223347   4.685   2.976  13.974  1.2326  0.3223 -0.0476
  619TIP3    H123348   4.670   2.999  13.883  0.2654 -0.6431 -0.1621
  619TIP3    H223349   4.673   2.881  13.977  1.9123  0.2465  0.9679
  620TIP3   OH223350   4.337   2.026  13.813  0.1195  0.0359  0.3752
  620TIP3    H123351   4.344   2.113  13.773 -0.4885  0.7119  1.6903
  620TIP3    H223352   4.266   1.983  13.764 -0.8546  0.9826  0.9104
  621TIP3   OH223353   3.264   5.689  11.723 -0.2802  0.2338 -0.0774
  621TIP3    H123354   3.227   5.604  11.747 -0.4111  0.4584  0.5358
  621TIP3    H223355   3.259   5.741  11.803 -1.1050  1.1541 -0.6985
  622TIP3   OH223356   3.378   5.017  12.302  0.1577 -0.2160  0.0861
  622TIP3    H123357   3.349   4.966  12.226 -1.2410 -0.8772  1.0022
  622TIP3    H223358   3.470   4.993  12.314  0.1840 -0.6805 -0.9346
  623TIP3   OH223359   6.647   1.995  14.128  0.4673 -0.2350 -0.1264
  623TIP3    H123360   6.563   1.955  14.151  0.7563 -0.2997  0.8892
  623TIP3    H223361   6.623   2.080  14.091 -0.0562 -0.3288 -0.0231
  624TIP3   OH223362   5.879   1.242  16.341  0.1404 -0.2630 -0.8724
  624TIP3    H123363   5.914   1.159  16.309  4.3707  0.6961  0.5150
  624TIP3    H223364   5.904   1.307  16.275 -1.3709  0.2297 -1.0098
  625TIP3   OH223365   2.422   3.278  11.861  0.4811 -0.0224  0.4519
  625TIP3    H123366   2.348   3.228  11.826  0.9928 -1.5725  1.4376
  625TIP3    H223367   2.474   3.212  11.908  2.4537  1.0248 -0.1661
  626TIP3   OH223368   3.315   5.727  15.846 -0.4061 -0.1535  0.1522
  626TIP3    H123369   3.321   5.803  15.789 -0.5234 -0.4397 -0.2423
  626TIP3    H223370   3.244   5.748  15.907 -0.2784  0.1522  0.1940
  627TIP3   OH223371   1.653   2.936   3.917 -0.6025  0.3099 -0.0725
  627TIP3    H123372   1.670   3.028   3.895 -0.2145  0.1730 -0.3454
  627TIP3    H223373   1.739   2.894   3.915 -1.0168 -0.5157 -2.0404
  628TIP3   OH223374   2.545   0.955  14.733 -0.6422  0.4665  0.6187
  628TIP3    H123375   2.562   1.049  14.743 -0.6286  0.4630  0.6303
  628TIP3    H223376   2.624   0.914  14.769  0.7149  0.4757 -2.0977
  629TIP3   OH223377   5.151   2.427  16.099 -0.1199  0.2398 -0.5162
  629TIP3    H123378   5.125   2.437  16.191  1.6545  1.0229 -0.0591
  629TIP3    H223379   5.149   2.516  16.065  0.5190  0.1158 -0.8684
  630TIP3   OH223380   5.607   5.544  14.431 -0.1927 -0.0312 -0.1362
  630TIP3    H123381   5.559   5.626  14.423  1.0999  0.6418 -1.3612
  630TIP3    H223382   5.611   5.509  14.342 -0.7869 -1.4995  0.3693
  631TIP3   OH223383   2.344   5.442  14.306  0.3102 -0.8773  0.1745
  631TIP3    H123384   2.317   5.513  14.248  0.4848  0.5446  1.7485
  631TIP3    H223385   2.426   5.410  14.269  0.5493  0.1561 -0.2241
  632TIP3   OH223386   5.780   6.496  16.412 -0.0075  0.6685  0.1858
  632TIP3    H123387   5.735   6.412  16.410  1.2434 -0.0079  0.0619
  632TIP3    H223388   5.733   6.549  16.347  0.2559 -0.4905 -0.9955
  633TIP3   OH223389   3.292   0.795   2.669 -0.1767 -0.3217  0.2081
  633TIP3    H123390   3.354   0.811   2.597 -1.0496  0.0567 -0.4738
  633TIP3    H223391   3.304   0.702   2.689 -0.2181 -0.5366 -0.7183
  634TIP3   OH223392   0.209   2.492  12.201 -0.6451 -0.0420  1.0414
  634TIP3    H123393   0.141   2.546  12.160  0.8054  0.2760 -1.1644
  634TIP3    H223394   0.232   2.427  12.134  0.3558 -0.9306  2.1868
  635TIP3   OH223395   4.835   4.234  11.794 -0.6471 -0.1743  0.4493
  635TIP3    H123396   4.791   4.200  11.872 -0.7382  0.5370  0.7135
  635TIP3    H223397   4.765   4.247  11.731 -0.4914 -1.4212 -0.0216
  636TIP3   OH223398   3.095   3.013   6.620  0.1662 -0.4329 -0.3060
  636TIP3    H123399   3.061   2.943   6.676 -1.2054 -0.1032 -0.7013
  636TIP3    H223400   3.055   3.093   6.654  0.7735  0.0138 -0.6132
  637TIP3   OH223401   6.366   6.772  16.553 -0.1275 -0.9185 -1.0462
  637TIP3    H123402   6.442   6.783  16.610 -1.3110  0.3808  0.3715
  637TIP3    H223403   6.360   6.854  16.505 -0.4671 -1.1329 -1.3701
  638TIP3   OH223404   2.905   5.190   0.418 -0.2714  0.1211  0.1515
  638TIP3    H123405   2.883   5.270   0.371 -0.4379 -0.4573 -0.7740
  638TIP3    H223406   2.901   5.214   0.511 -1.7210  0.8217 -0.0728
  639TIP3   OH223407   1.193   3.765   3.471  0.7667 -0.1006 -0.5638
  639TIP3    H123408   1.171   3.673   3.480 -0.7712  0.2903  0.1438
  639TIP3    H223409   1.208   3.795   3.561 -0.6832  0.7381 -0.5576
  640TIP3   OH223410   1.312   1.539  17.134  0.1090 -0.3823 -0.6754
  640TIP3    H123411   1.222   1.519  17.160  0.1203 -1.6937 -1.5481
  640TIP3    H223412   1.332   1.621  17.179 -1.4980 -0.0895 -0.4185
  641TIP3   OH223413   4.761   2.169  17.104  0.4531 -0.0607  0.0451
  641TIP3    H123414   4.830   2.225  17.138  1.3634 -1.0339 -0.1383
  641TIP3    H223415   4.679   2.211  17.131  1.1089  1.2284  0.0656
  642TIP3   OH223416   1.178   1.324   6.236  0.2786 -0.0370 -0.0287
  642TIP3    H123417   1.242   1.393   6.221 -0.7946  0.6962 -1.5448
  642TIP3    H223418   1.230   1.244   6.239  1.2590  0.4489 -1.9797
  643TIP3   OH223419   0.941   2.356  12.472 -0.0169  0.2645 -0.7440
  643TIP3    H123420   0.982   2.438  12.498  1.1100 -0.4757 -0.0762
  643TIP3    H223421   0.937   2.360  12.377  1.4592  0.4537 -0.8237
  644TIP3   OH223422   6.027   1.176  16.101 -0.0540  0.4205 -0.1554
  644TIP3    H123423   5.963   1.224  16.048 -0.4441  0.1212  0.0420
  644TIP3    H223424   6.096   1.240  16.118 -0.7766  1.0508  0.4932
  645TIP3   OH223425   4.767   4.220   0.201  0.1737  0.7076 -0.1347
  645TIP3    H123426   4.827   4.210   0.274  1.0798  1.2517 -0.7891
  645TIP3    H223427   4.820   4.204   0.123 -0.8532 -0.2406 -0.6764
  646TIP3   OH223428   6.105   3.299   3.248 -0.6068  0.5655 -0.1293
  646TIP3    H123429   6.055   3.378   3.225  1.2871  2.1166  0.7519
  646TIP3    H223430   6.112   3.303   3.344 -1.2888 -1.2288  0.0187
  647TIP3   OH223431   6.737   0.218  13.790 -0.1549  0.4262  0.1175
  647TIP3    H123432   6.732   0.305  13.751  0.9557  0.8120  0.7877
  647TIP3    H223433   6.746   0.234  13.884 -0.6720 -0.4286  0.3178
  648TIP3   OH223434   2.458   0.554   3.211  0.0997 -0.2113  0.3364
  648TIP3    H123435   2.439   0.648   3.218  0.2453  0.1041 -2.4076
  648TIP3    H223436   2.413   0.526   3.131  0.4030 -2.4003  0.8655
  649TIP3   OH223437   2.576   0.735  15.388  0.5705  0.4862 -0.3674
  649TIP3    H123438   2.573   0.728  15.292 -1.5958  0.0963 -0.3073
  649TIP3    H223439   2.591   0.828  15.405  0.7656  0.5924 -1.0733
  650TIP3   OH223440   1.556   0.798  17.036 -0.4484 -0.4927  0.6857
  650TIP3    H123441   1.595   0.779  16.951 -0.4819  0.5685  0.4163
  650TIP3    H223442   1.501   0.875  17.020  2.3701  2.1005  2.3808
  651TIP3   OH223443   1.129   1.134   0.276  0.1113 -0.2313  0.0903
  651TIP3    H123444   1.174   1.071   0.332 -0.8042 -1.3897 -0.4313
  651TIP3    H223445   1.192   1.153   0.206  0.0637 -1.3022 -0.2585
  652TIP3   OH223446   2.113   6.358   1.857  0.7324 -0.0392  0.0613
  652TIP3    H123447   2.091   6.265   1.846  0.3999  0.1432 -0.9217
  652TIP3    H223448   2.169   6.360   1.935 -1.6096 -0.6991  1.9026
  653TIP3   OH223449   2.874   1.133  13.329 -1.3305  0.5855  0.2815
  653TIP3    H123450   2.942   1.072  13.301 -0.9110  1.0156  0.3659
  653TIP3    H223451   2.799   1.076  13.349 -0.5126 -0.0543  1.6947
  654TIP3   OH223452   0.044   4.506   2.064  0.1736 -0.1422  0.0079
  654TIP3    H123453   0.078   4.486   1.977  0.6256 -0.3277  0.2225
  654TIP3    H223454  -0.050   4.491   2.058  0.6366 -4.4458  0.6976
  655TIP3   OH223455   3.995   3.217  13.407  0.1507 -0.1838 -1.0561
  655TIP3    H123456   4.032   3.254  13.327  0.0183  0.3554 -0.8707
  655TIP3    H223457   3.917   3.171  13.378 -0.7874  1.3283 -1.0616
  656TIP3   OH223458   1.686   2.098  11.784 -0.5489  0.0955  0.1415
  656TIP3    H123459   1.781   2.098  11.797 -0.2722 -1.0757 -1.5631
  656TIP3    H223460   1.650   2.095  11.872  1.0039  0.0495  0.8115
  657TIP3   OH223461   6.220   3.789   4.844  0.3543 -0.6365 -0.1565
  657TIP3    H123462   6.304   3.761   4.808  0.1800  0.2392 -1.2858
  657TIP3    H223463   6.185   3.849   4.779  0.0046  0.9792  1.4591
  658TIP3   OH223464   5.736   5.543   5.044  0.2001  0.5475 -0.1427
  658TIP3    H123465   5.788   5.464   5.059  0.0053  0.5417  0.5446
  658TIP3    H223466   5.730   5.585   5.130 -2.1625 -0.2131  0.1328
  659TIP3   OH223467   1.596   1.820   1.200 -0.1020  0.6988 -0.2395
  659TIP3    H123468   1.555   1.774   1.273 -1.4993 -2.7352 -2.9141
  659TIP3    H223469   1.671   1.765   1.176 -0.9766  0.4662 -2.6913
  660TIP3   OH223470   3.202   1.496   0.084 -0.2690 -0.3331  0.4416
  660TIP3    H123471   3.211   1.564   0.151 -0.5459 -0.1602  0.3026
  660TIP3    H223472   3.259   1.425   0.115  0.0462 -0.0291  0.5713
  661TIP3   OH223473   5.437   2.349   3.559  0.2167  0.1657 -0.1665
  661TIP3    H123474   5.433   2.376   3.651 -2.1888 -1.8448  0.4381
  661TIP3    H223475   5.474   2.424   3.513  0.7268  1.5454  2.3206
  662TIP3   OH223476   1.139   4.923  16.549 -0.2116 -0.3429  0.3250
  662TIP3    H123477   1.182   4.869  16.482  0.2312  1.7611 -1.1829
  662TIP3    H223478   1.073   4.865  16.587 -0.3215 -1.7173 -1.7848
  663TIP3   OH223479   2.428   5.301  14.698 -0.0149 -0.2582 -0.4341
  663TIP3    H123480   2.413   5.279  14.790  1.2975  1.0112  0.1174
  663TIP3    H223481   2.358   5.364  14.677 -0.6118 -0.9196 -0.4712
  664TIP3   OH223482   1.708   5.645  13.325 -1.1975 -0.1906  0.0093
  664TIP3    H123483   1.797   5.616  13.341 -0.2286  1.6781 -1.4607
  664TIP3    H223484   1.677   5.590  13.253 -1.8286 -1.8368  1.4905
  665TIP3   OH223485   5.596   0.901  14.478 -0.6418 -0.0710  0.0660
  665TIP3    H123486   5.561   0.817  14.507 -0.2003 -0.7008 -1.1604
  665TIP3    H223487   5.527   0.938  14.423 -0.3305 -0.2408 -0.4494
  666TIP3   OH223488   2.905   5.057  17.180 -0.5324  0.2275  0.0810
  666TIP3    H123489   2.892   4.963  17.166  2.1497 -0.1917 -0.2634
  666TIP3    H223490   2.875   5.098  17.099  0.1820 -0.5856 -0.6253
  667TIP3   OH223491   3.546   5.226  11.248 -0.4497 -0.6523  0.1660
  667TIP3    H123492   3.534   5.240  11.154 -2.2246  0.7276  0.5376
  667TIP3    H223493   3.509   5.139  11.264  1.3105 -1.5882 -0.6162
  668TIP3   OH223494   6.043   2.123   1.594  0.2190 -0.1181 -0.1249
  668TIP3    H123495   6.067   2.088   1.508 -0.0600 -0.5587 -0.0263
  668TIP3    H223496   5.987   2.198   1.575 -0.9306 -1.0055 -0.3181
  669TIP3   OH223497   3.849   2.533  11.342  0.2257 -0.4604  0.6341
  669TIP3    H123498   3.908   2.509  11.414  3.2332 -0.5056 -1.6248
  669TIP3    H223499   3.886   2.615  11.308  0.0888 -1.4071 -1.9847
  670TIP3   OH223500   2.343   2.830   2.892  1.0011  0.0131 -0.4725
  670TIP3    H123501   2.342   2.897   2.824  1.1069  2.2131  1.5834
  670TIP3    H223502   2.436   2.817   2.912  0.9226  0.1898  0.0092
  671TIP3   OH223503   6.649   1.385   0.800 -0.1633 -0.2368 -0.1102
  671TIP3    H123504   6.567   1.394   0.751  0.4860  0.1482 -1.1431
  671TIP3    H223505   6.621   1.377   0.892 -1.3122  0.8014 -0.3436
  672TIP3   OH223506   3.265   2.879  16.692 -0.7660  0.2734 -0.0833
  672TIP3    H123507   3.295   2.936  16.763 -0.5638 -0.7485  0.6602
  672TIP3    H223508   3.319   2.800  16.700 -0.0755  0.5134 -1.9648
  673TIP3   OH223509   6.797   1.932  12.283  0.4463  0.5296 -0.5571
  673TIP3    H123510   6.715   1.975  12.309 -0.1131 -0.5796 -0.4379
  673TIP3    H223511   6.840   1.995  12.226  0.1420  1.6740  0.4238
  674TIP3   OH223512   0.412   5.538  15.558 -0.1486 -0.4112 -0.5884
  674TIP3    H123513   0.433   5.450  15.590  1.2422  0.4235  0.9215
  674TIP3    H223514   0.481   5.556  15.493 -1.2122 -0.9151 -1.9076
  675TIP3   OH223515   3.991   0.731  13.435 -0.0789 -0.1530  0.7208
  675TIP3    H123516   3.967   0.800  13.498 -0.3397 -0.4813  0.9842
  675TIP3    H223517   3.954   0.761  13.352 -0.7750 -0.2911  0.9693
  676TIP3   OH223518   1.261   5.535   0.129 -0.1555 -0.0493 -0.0973
  676TIP3    H123519   1.177   5.517   0.171  0.0155 -1.3224 -0.2577
  676TIP3    H223520   1.291   5.616   0.169 -2.0673  1.1782 -0.9955
  677TIP3   OH223521   3.796   5.804  11.947  0.3291  0.3346  0.4022
  677TIP3    H123522   3.772   5.736  12.010 -2.1483  1.1795  0.4853
  677TIP3    H223523   3.820   5.756  11.868 -0.8288 -0.6838  0.6346
  678TIP3   OH223524   0.973   3.230  16.387 -0.1807  0.2594  0.1037
  678TIP3    H123525   1.023   3.218  16.306 -0.0568  2.0845 -0.1353
  678TIP3    H223526   0.927   3.313  16.374  1.0344  1.4069  2.4897
  679TIP3   OH223527   6.507   6.661  17.089 -0.2545 -0.3734  0.0779
  679TIP3    H123528   6.423   6.642  17.129  0.6688 -1.8100  1.4717
  679TIP3    H223529   6.529   6.582  17.040  1.1984 -0.9059  1.4835
  680TIP3   OH223530   4.154   5.340   1.026  0.6571 -0.0711 -0.1598
  680TIP3    H123531   4.144   5.349   0.931  0.8712  1.5286 -0.0663
  680TIP3    H223532   4.224   5.276   1.038 -0.2375 -1.2637 -1.0395
  681TIP3   OH223533   2.040   2.456   3.917 -0.0869 -0.0672  0.1711
  681TIP3    H123534   1.986   2.521   3.873  0.1928  0.2543  0.2932
  681TIP3    H223535   2.024   2.471   4.011 -2.0981 -1.9415  0.2100
  682TIP3   OH223536   3.153   2.249  13.252  0.8353  0.0651  0.1602
  682TIP3    H123537   3.089   2.307  13.210 -0.1173 -0.5113  0.7781
  682TIP3    H223538   3.120   2.161  13.236  1.6038 -0.2559  0.2940
  683TIP3   OH223539   6.029   1.729   1.247  0.0393  1.1209  0.2183
  683TIP3    H123540   5.954   1.789   1.253  0.5350  1.5954  2.8139
  683TIP3    H223541   5.989   1.642   1.238 -0.7534  1.5197 -0.2545
  684TIP3   OH223542   3.262   2.423  12.898 -0.5356 -0.2618 -0.0885
  684TIP3    H123543   3.244   2.364  12.824  2.4486  0.0082 -1.1761
  684TIP3    H223544   3.354   2.405  12.920 -0.8534  0.9116  2.4639
  685TIP3   OH223545   1.325   3.347  15.154 -0.5658 -0.5088 -0.3890
  685TIP3    H123546   1.414   3.314  15.136 -0.4499 -0.6540  0.4415
  685TIP3    H223547   1.308   3.408  15.082  0.5089  0.0966 -0.1447
  686TIP3   OH223548   4.962   3.563  15.019 -0.4274 -0.2605 -0.2147
  686TIP3    H123549   4.952   3.476  15.058  0.8630 -0.7631 -0.9222
  686TIP3    H223550   5.023   3.608  15.077 -1.0711  0.1741  0.1320
  687TIP3   OH223551   0.110   1.463  17.105  0.0746 -0.2515 -0.2627
  687TIP3    H123552   0.158   1.486  17.026 -0.1042 -2.4633 -1.0942
  687TIP3    H223553   0.018   1.462  17.078  0.0821 -1.8830 -0.3044
  688TIP3   OH223554   5.475   2.986   4.593  0.1114  0.0380  0.0580
  688TIP3    H123555   5.466   3.071   4.636 -0.9087  0.2591 -0.5702
  688TIP3    H223556   5.466   2.922   4.664  2.1810  0.4307  0.7579
  689TIP3   OH223557   3.482   2.385  12.340  0.5971  0.3085  0.2801
  689TIP3    H123558   3.455   2.431  12.419 -1.2855  1.6098 -1.0412
  689TIP3    H223559   3.517   2.301  12.372 -0.2023  0.7442  2.4601
  690TIP3   OH223560   6.720   1.525  16.956  0.0477  0.0341 -0.5200
  690TIP3    H123561   6.634   1.496  16.925 -0.5928  0.7522  0.5245
  690TIP3    H223562   6.767   1.549  16.877 -1.4714  1.6460 -1.0030
  691TIP3   OH223563   1.944   4.135   4.687 -0.6390  0.2219 -0.0787
  691TIP3    H123564   1.970   4.151   4.777 -0.0833  1.7073 -0.4702
  691TIP3    H223565   1.947   4.221   4.646  0.1679 -0.5651 -1.7793
  692TIP3   OH223566   4.745   1.697  14.775 -0.1094  0.0255 -0.0779
  692TIP3    H123567   4.787   1.771  14.731  1.4304 -0.2220  0.8756
  692TIP3    H223568   4.715   1.640  14.704 -0.6773  1.2044 -0.8103
  693TIP3   OH223569   5.857   2.947   1.689 -0.0575 -0.8586  0.3119
  693TIP3    H123570   5.799   2.912   1.621 -0.4886 -0.6248  0.5521
  693TIP3    H223571   5.862   2.878   1.755 -1.5586 -0.1923  1.1747
  694TIP3   OH223572   3.783   2.021  16.604  0.1721  0.0266 -0.4057
  694TIP3    H123573   3.690   1.999  16.608  0.2967 -0.4978 -0.3355
  694TIP3    H223574   3.803   2.056  16.691 -0.2819  1.4892 -0.8593
  695TIP3   OH223575   3.461   6.321   1.838 -0.2492 -0.0598 -0.3094
  695TIP3    H123576   3.553   6.347   1.846  0.2040 -1.8794  1.1607
  695TIP3    H223577   3.464   6.230   1.809 -1.5719 -0.3089  0.2527
  696TIP3   OH223578   3.282   6.420   5.870  0.1417  0.7477  0.7315
  696TIP3    H123579   3.352   6.358   5.893  0.5647  0.6589 -0.7199
  696TIP3    H223580   3.210   6.365   5.840 -0.5903  0.8395  2.2211
  697TIP3   OH223581   3.292   6.370  12.648 -0.9417  0.1565  0.0550
  697TIP3    H123582   3.257   6.425  12.578 -1.4388  0.9671  0.9004
  697TIP3    H223583   3.348   6.307  12.604 -0.3631  1.3354 -0.9764
  698TIP3   OH223584   0.500   6.070   6.194 -0.1760 -0.1038 -0.0140
  698TIP3    H123585   0.522   5.987   6.235 -3.6112 -2.2896 -2.0589
  698TIP3    H223586   0.449   6.117   6.260 -1.9126 -1.6390 -0.1710
  699TIP3   OH223587   4.268   5.084  13.765  0.2481  0.2007 -0.2427
  699TIP3    H123588   4.172   5.086  13.755  0.2692  0.8040 -0.3656
  699TIP3    H223589   4.283   5.027  13.839 -0.2501  0.6567  0.2232
  700TIP3   OH223590   3.460   2.886  12.016  0.4220 -0.5232 -0.2123
  700TIP3    H123591   3.412   2.834  11.951  0.8215 -2.2512  0.8099
  700TIP3    H223592   3.397   2.905  12.084  0.5226 -0.4985 -0.1255
  701TIP3   OH223593   4.090   4.316  16.097  0.1830  0.1559 -0.3626
  701TIP3    H123594   4.040   4.271  16.028 -1.8248 -1.4009  1.9348
  701TIP3    H223595   4.098   4.406  16.066 -1.5206 -0.2485 -2.1938
  702TIP3   OH223596   5.797   5.294   3.397 -0.2358  0.2528  0.4864
  702TIP3    H123597   5.884   5.327   3.420  0.8258  0.2673 -2.9632
  702TIP3    H223598   5.741   5.321   3.470  2.5635  0.4062  2.7621
  703TIP3   OH223599   3.256   1.491   5.606 -0.5239  0.0331 -0.5397
  703TIP3    H123600   3.263   1.514   5.514  0.5847 -0.4844 -0.5963
  703TIP3    H223601   3.320   1.421   5.619 -2.1251 -1.3899  0.1595
  704TIP3   OH223602   1.798   0.004  16.705  0.2665 -0.1490 -0.0380
  704TIP3    H123603   1.809   0.083  16.653 -0.8539 -0.5274 -0.8799
  704TIP3    H223604   1.800   0.034  16.796  1.9950  0.5435 -0.2851
  705TIP3   OH223605   1.119   6.076  14.618  0.0580 -0.0104  0.6179
  705TIP3    H123606   1.025   6.089  14.630 -0.2866 -1.5599 -0.0601
  705TIP3    H223607   1.137   6.110  14.530 -0.0879 -0.6473  0.3365
  706TIP3   OH223608   4.124   6.443   3.289 -0.1790  0.4254 -0.0379
  706TIP3    H123609   4.126   6.347   3.287 -0.3936  0.4269 -0.4555
  706TIP3    H223610   4.047   6.466   3.236  0.2218  0.8409 -0.4513
  707TIP3   OH223611   2.367   0.608  12.160 -0.5276 -0.2053  0.4687
  707TIP3    H123612   2.428   0.542  12.128 -0.2713  0.1047  0.3076
  707TIP3    H223613   2.327   0.643  12.081 -0.2610  0.2106  0.5131
  708TIP3   OH223614   1.344   5.840   5.741  0.2541 -0.1355  0.3559
  708TIP3    H123615   1.395   5.838   5.660  0.7678 -0.6992  0.6806
  708TIP3    H223616   1.390   5.779   5.799 -0.4497 -0.1867  0.8661
  709TIP3   OH223617   5.264   5.956   3.590  0.0576 -0.8344 -0.3259
  709TIP3    H123618   5.338   5.911   3.632  0.2139 -2.0371 -1.8171
  709TIP3    H223619   5.285   6.049   3.598  1.4662 -1.1383 -0.2472
  710TIP3   OH223620   3.271   4.468  13.391 -0.1548  0.2104 -0.1711
  710TIP3    H123621   3.306   4.541  13.340 -1.5358  1.3599  0.4724
  710TIP3    H223622   3.177   4.471  13.375 -0.2754 -1.3037  0.0687
  711TIP3   OH223623   0.752   4.482  13.060  0.6817  0.0229 -0.2323
  711TIP3    H123624   0.695   4.414  13.025 -0.3933  0.3950  0.7372
  711TIP3    H223625   0.706   4.564  13.045  0.8728  0.3199  0.6973
  712TIP3   OH223626   2.801   6.383  14.280 -0.7442  0.0781  0.0319
  712TIP3    H123627   2.802   6.370  14.185 -0.1955 -0.2355  0.0729
  712TIP3    H223628   2.863   6.456  14.294 -2.2162  1.3854 -0.0078
  713TIP3   OH223629   5.380   4.057  11.643 -0.1553  0.3615 -0.0517
  713TIP3    H123630   5.309   4.050  11.580  0.3986  2.1766 -0.9525
  713TIP3    H223631   5.410   3.967  11.656 -2.0009 -0.3325 -0.3264
  714TIP3   OH223632   2.925   0.485  15.847  0.0912 -0.0509 -0.7033
  714TIP3    H123633   2.898   0.393  15.855 -0.5473  0.1360 -0.5903
  714TIP3    H223634   2.846   0.534  15.871  1.1646  0.5468  2.0677
  715TIP3   OH223635   5.061   2.078  13.736 -0.4833 -0.1291  0.7804
  715TIP3    H123636   5.108   2.158  13.758  0.9317 -0.2034 -1.6730
  715TIP3    H223637   5.011   2.099  13.657 -0.5661 -1.4773  0.4382
  716TIP3   OH223638   1.267   5.284  15.358 -0.2640 -0.2475 -0.4496
  716TIP3    H123639   1.260   5.218  15.289 -1.5795 -1.0252  0.3798
  716TIP3    H223640   1.207   5.354  15.331 -0.7255 -0.5196 -0.1254
  717TIP3   OH223641   0.500   3.475  12.398  0.7541  0.3183 -0.3417
  717TIP3    H123642   0.578   3.453  12.450  1.5048  1.3200 -1.0124
  717TIP3    H223643   0.535   3.502  12.313 -0.3478  0.5376 -0.7317
  718TIP3   OH223644   1.270   3.762  11.000 -0.1432 -0.2291  0.2108
  718TIP3    H123645   1.319   3.706  10.940  1.4942  2.2846 -0.9936
  718TIP3    H223646   1.251   3.707  11.076 -0.0459 -2.7886 -1.5177
  719TIP3   OH223647   1.110   1.888  12.194  0.1878 -0.1219  0.5128
  719TIP3    H123648   1.165   1.815  12.165  0.5514 -0.3095  1.6457
  719TIP3    H223649   1.081   1.930  12.112  1.4724 -0.4198 -0.1177
  720TIP3   OH223650   0.058   0.021   5.370 -0.0011  0.4065 -0.7137
  720TIP3    H123651   0.086   0.111   5.351 -1.6811  0.9731 -0.7540
  720TIP3    H223652   0.079  -0.028   5.291  0.4124  0.8989 -0.9181
  721TIP3   OH223653   2.762   4.456   4.554 -0.0289  0.1280  0.1704
  721TIP3    H123654   2.711   4.501   4.487 -0.4707  0.9266  1.0226
  721TIP3    H223655   2.734   4.496   4.637  1.3830  0.0124  0.7333
  722TIP3   OH223656   6.242   1.598  12.903  0.2329 -0.6547 -0.7016
  722TIP3    H123657   6.200   1.583  12.818 -3.9053 -0.4156  1.0776
  722TIP3    H223658   6.190   1.548  12.965  2.3574  0.1369  1.9126
  723TIP3   OH223659   1.218   2.106   0.402  0.1714  0.5434 -0.0847
  723TIP3    H123660   1.254   2.188   0.434  4.3604 -1.3141  0.6796
  723TIP3    H223661   1.227   2.112   0.307 -0.5899  1.3477 -0.1171
  724TIP3   OH223662   0.361   5.107   6.716 -0.3437  0.4498 -0.0940
  724TIP3    H123663   0.370   5.038   6.782  0.8660  0.5927 -0.1037
  724TIP3    H223664   0.270   5.136   6.725 -1.5533 -2.5370 -1.4999
  725TIP3   OH223665   2.367   4.333  15.800 -0.1769 -0.0102 -0.2194
  725TIP3    H123666   2.293   4.346  15.858  0.9696 -0.2912  1.3624
  725TIP3    H223667   2.353   4.396  15.729  0.0392  2.7309  2.0012
  726TIP3   OH223668   4.882   2.380  13.571  0.1805  0.3977  0.2718
  726TIP3    H123669   4.908   2.293  13.541  2.7480  1.6665 -1.4575
  726TIP3    H223670   4.803   2.400  13.520 -0.5444 -0.9082  0.8150
  727TIP3   OH223671   2.420   1.700   1.627 -0.5443  0.2923  0.4188
  727TIP3    H123672   2.399   1.613   1.593  0.0031  0.2114  0.2659
  727TIP3    H223673   2.515   1.697   1.642 -0.5436  0.8198  0.5394
  728TIP3   OH223674   2.292   3.024   0.974  0.3565  0.5438 -0.0926
  728TIP3    H123675   2.253   3.076   0.905 -1.0362  0.3581  0.5194
  728TIP3    H223676   2.384   3.014   0.948  0.2479  1.8404 -1.0695
  729TIP3   OH223677   0.082   5.590   5.525 -0.5721  0.0523  0.2531
  729TIP3    H123678  -0.009   5.620   5.526 -0.8871 -0.5777 -2.2676
  729TIP3    H223679   0.113   5.605   5.614 -2.6154  1.8782  0.7476
  730TIP3   OH223680   4.658   4.526   4.767 -0.2296 -0.2875  0.3248
  730TIP3    H123681   4.704   4.461   4.714  0.0857  1.3559 -1.5540
  730TIP3    H223682   4.576   4.542   4.719 -0.6389  0.1581  1.1506
  731TIP3   OH223683   4.641   6.485   0.833  0.3430  0.0385  0.8925
  731TIP3    H123684   4.605   6.455   0.917  0.1847 -4.0786 -0.4214
  731TIP3    H223685   4.725   6.440   0.826  1.2683  1.8589 -0.3695
  732TIP3   OH223686   1.747   2.999  16.069  0.6094 -0.3666  0.7471
  732TIP3    H123687   1.691   2.925  16.046 -0.8572  0.2634  2.1484
  732TIP3    H223688   1.687   3.072  16.083  1.8709  0.6233  1.2052
  733TIP3   OH223689   5.425   0.964  15.538  0.2506  0.0610 -0.0120
  733TIP3    H123690   5.367   0.982  15.463  0.2979  0.8276  0.1267
  733TIP3    H223691   5.374   0.905  15.593  0.5473 -1.2159 -1.0573
  734TIP3   OH223692   0.168   1.491   1.749  0.5339  0.0306 -0.2706
  734TIP3    H123693   0.123   1.547   1.686 -0.8091  0.2041  0.7987
  734TIP3    H223694   0.147   1.529   1.834  0.5676 -1.3959  0.4078
  735TIP3   OH223695   2.618   4.003   1.327  0.1315 -0.0540  0.3216
  735TIP3    H123696   2.566   3.931   1.365 -2.2560  1.3551 -0.0383
  735TIP3    H223697   2.590   4.006   1.236 -1.9890  2.9730  0.9126
  736TIP3   OH223698   3.153   4.749   2.389 -0.3775  0.5450 -0.0415
  736TIP3    H123699   3.093   4.685   2.427  0.7495 -0.8741 -0.5546
  736TIP3    H223700   3.113   4.772   2.305  0.2440 -1.2076 -0.8824
  737TIP3   OH223701   2.748   6.466   6.589 -0.0334  0.4780 -0.0848
  737TIP3    H123702   2.710   6.522   6.656 -0.6626 -0.8677  0.7209
  737TIP3    H223703   2.785   6.392   6.637  0.2297 -0.1037 -1.1513
  738TIP3   OH223704   5.292   2.483   5.468  0.0252 -0.0996  0.2145
  738TIP3    H123705   5.222   2.442   5.518 -2.2997  0.7562 -2.1193
  738TIP3    H223706   5.275   2.577   5.475  0.5270  0.0967 -0.9075
  739TIP3   OH223707   0.276   4.950   2.792  0.0461  0.3287  0.1396
  739TIP3    H123708   0.254   5.039   2.820  0.2935 -0.0772  1.6957
  739TIP3    H223709   0.195   4.901   2.802 -0.4087  0.6123 -1.8515
  740TIP3   OH223710   5.809   1.811  15.109  0.0075  0.0308  0.2099
  740TIP3    H123711   5.888   1.842  15.153 -0.3322  0.1056  0.7762
  740TIP3    H223712   5.764   1.891  15.081 -0.0273 -0.0007  0.1752
  741TIP3   OH223713   2.422   0.408   2.383 -0.0220 -0.2062 -0.4403
  741TIP3    H123714   2.413   0.312   2.384 -1.4823 -0.0865 -0.4913
  741TIP3    H223715   2.512   0.423   2.411 -0.3984 -1.5275  1.7369
  742TIP3   OH223716   2.444   2.909  10.993 -0.2751 -0.2469  0.2148
  742TIP3    H123717   2.398   2.927  11.075 -0.4823  0.4846 -0.0569
  742TIP3    H223718   2.452   2.994  10.951 -0.7804 -0.7143 -0.8438
  743TIP3   OH223719   6.097   2.072   1.311  0.1760  0.1759 -0.0297
  743TIP3    H123720   6.151   2.032   1.243 -1.3421 -0.1000 -1.1227
  743TIP3    H223721   6.037   2.130   1.263 -1.7810 -0.9820  0.9163
  744TIP3   OH223722   5.269   4.622   5.533  0.3963  0.5137 -0.6602
  744TIP3    H123723   5.346   4.661   5.491  0.0824  0.6221 -1.1484
  744TIP3    H223724   5.202   4.623   5.465 -0.0819  0.5491 -0.1938
  745TIP3   OH223725   1.696   2.256  12.436 -0.8609 -0.5609  0.6212
  745TIP3    H123726   1.622   2.305  12.474 -1.2386 -1.0106  0.4719
  745TIP3    H223727   1.669   2.238  12.346 -0.0707  0.2891  0.1927
  746TIP3   OH223728   5.437   5.981   0.003  0.2169  0.5531  0.8274
  746TIP3    H123729   5.456   5.951   0.092  0.8386 -0.1832  0.4500
  746TIP3    H223730   5.432   5.901  -0.049  1.4368  1.0657 -0.1101
  747TIP3   OH223731   0.502   3.368   6.333  0.0469 -0.0915  0.4602
  747TIP3    H123732   0.563   3.442   6.340  0.1640 -0.2393  1.0620
  747TIP3    H223733   0.426   3.396   6.384 -0.5514  0.2412 -0.5775
  748TIP3   OH223734   3.778   4.962   0.611 -0.4171 -0.2513 -0.3282
  748TIP3    H123735   3.827   4.881   0.596  2.1555  0.8064  1.5686
  748TIP3    H223736   3.839   5.018   0.658 -2.3512  2.5621 -0.9410
  749TIP3   OH223737   3.932   2.160   2.886 -0.0571  0.2767 -0.1678
  749TIP3    H123738   3.979   2.157   2.969 -1.4704 -0.3673  0.6473
  749TIP3    H223739   3.998   2.139   2.820  0.9066 -0.0469  0.8693
  750TIP3   OH223740   4.919   5.786  10.885  0.2461 -0.1127  0.2384
  750TIP3    H123741   4.957   5.800  10.971 -0.0542  1.7803  0.0942
  750TIP3    H223742   4.954   5.856  10.831 -0.9211 -0.2334 -0.7322
  751TIP3   OH223743   1.451   5.408   3.862 -0.1533  0.2295 -0.6487
  751TIP3    H123744   1.499   5.467   3.921 -0.2782 -0.2551 -0.0536
  751TIP3    H223745   1.360   5.437   3.868 -0.3570 -0.5413  0.3071
  752TIP3   OH223746   2.819   6.204  13.708  0.3384  0.3509  0.1495
  752TIP3    H123747   2.739   6.204  13.761  0.5715  0.7543  0.5076
  752TIP3    H223748   2.866   6.126  13.734 -0.3349 -0.3537 -0.6773
  753TIP3   OH223749   5.005   1.516  15.872 -0.1978 -0.2130  0.0723
  753TIP3    H123750   4.983   1.547  15.960  1.7230  0.7875  0.2463
  753TIP3    H223751   5.072   1.450  15.886  1.2597  1.0484 -0.6766
  754TIP3   OH223752   0.469   2.123  12.185 -1.2531  0.1103 -0.2346
  754TIP3    H123753   0.488   2.188  12.253  0.3244 -1.2253  0.6660
  754TIP3    H223754   0.461   2.040  12.231 -0.9325 -0.7142 -1.5915
  755TIP3   OH223755   3.558   4.361  14.972  0.9400  0.2733  0.0745
  755TIP3    H123756   3.629   4.418  14.943  0.1355  1.6186  0.6490
  755TIP3    H223757   3.577   4.276  14.931  2.3666  0.8407 -0.5082
  756TIP3   OH223758   0.997   3.271   0.999  0.8068 -0.0143  0.3236
  756TIP3    H123759   1.044   3.259   1.081  0.5707 -1.0171  0.3230
  756TIP3    H223760   1.065   3.293   0.935  0.9914  0.7641  0.7710
  757TIP3   OH223761   0.526   4.716  13.781 -0.1162 -0.3543 -0.5988
  757TIP3    H123762   0.601   4.670  13.819  0.9008 -0.3306 -2.4541
  757TIP3    H223763   0.562   4.763  13.706 -1.6055  1.4752 -0.2495
  758TIP3   OH223764   3.448   5.990   4.993  0.2702 -0.7527 -0.1601
  758TIP3    H123765   3.486   5.989   5.081  1.3400 -0.1266 -0.6076
  758TIP3    H223766   3.464   6.078   4.961 -2.5987 -0.0247  0.0595
  759TIP3   OH223767   5.223   0.927   2.177  0.2452 -0.6284  0.0168
  759TIP3    H123768   5.313   0.946   2.206  0.3693  0.3551 -0.9362
  759TIP3    H223769   5.169   0.946   2.253  0.5691  1.8571 -0.2864
  760TIP3   OH223770   1.054   1.835   3.967 -0.7120 -0.5452 -0.2730
  760TIP3    H123771   1.084   1.754   4.008 -1.6784 -0.0585  1.4727
  760TIP3    H223772   1.103   1.904   4.012 -1.1210 -0.0533 -0.5776
  761TIP3   OH223773   5.858   2.227  13.629  0.0678  0.4028  0.6437
  761TIP3    H123774   5.926   2.242  13.564 -0.1485  1.4358  0.6462
  761TIP3    H223775   5.779   2.210  13.578  0.5414 -2.0933  0.6175
  762TIP3   OH223776   1.229   0.832   2.457 -0.1278  0.7035  0.0205
  762TIP3    H123777   1.137   0.805   2.451 -0.1336  1.0997 -2.8469
  762TIP3    H223778   1.274   0.780   2.391  1.6014  1.0683  0.8446
  763TIP3   OH223779   6.656   0.523  15.250  0.3734 -0.5249  0.0267
  763TIP3    H123780   6.739   0.513  15.205  1.0559 -2.3349  1.5489
  763TIP3    H223781   6.632   0.434  15.277 -0.3166  0.3477  2.6004
  764TIP3   OH223782   6.207   4.738  16.254  0.6934 -0.3496  0.4326
  764TIP3    H123783   6.197   4.766  16.163  1.0673 -1.6716 -0.0364
  764TIP3    H223784   6.178   4.647  16.255  0.9476 -0.4420  1.5814
  765TIP3   OH223785   4.805   1.129  14.622  0.2939 -0.4546 -0.0151
  765TIP3    H123786   4.797   1.128  14.526  0.8738 -1.7054 -0.0670
  765TIP3    H223787   4.899   1.127  14.638  0.3465 -5.2819  0.5015
  766TIP3   OH223788   5.559   3.654   3.198  0.2890  0.4726 -0.4729
  766TIP3    H123789   5.627   3.586   3.191  0.3241  0.1038  2.3147
  766TIP3    H223790   5.478   3.605   3.210  0.0986  0.9001  0.0362
  767TIP3   OH223791   0.942   4.276   4.243 -0.1716  0.5167  0.1287
  767TIP3    H123792   0.992   4.351   4.209  1.0062 -0.1078  0.4248
  767TIP3    H223793   0.951   4.283   4.338  0.0681 -0.0727  0.1541
  768TIP3   OH223794   6.441   2.606  12.030 -0.6377 -0.6947 -0.1678
  768TIP3    H123795   6.450   2.569  11.942  0.7614  1.5799 -1.0750
  768TIP3    H223796   6.359   2.655  12.027 -1.5100 -2.0726  0.4159
  769TIP3   OH223797   1.839   4.284   6.472  0.5780 -0.2325  0.0181
  769TIP3    H123798   1.788   4.267   6.392  1.5018 -0.9553 -0.4313
  769TIP3    H223799   1.785   4.248   6.543  1.1256 -2.4338 -0.6030
  770TIP3   OH223800   3.593   3.153   0.630  0.0919 -0.3520  0.3798
  770TIP3    H123801   3.617   3.196   0.712 -2.4213 -0.7163  1.3808
  770TIP3    H223802   3.499   3.165   0.623  0.0811 -1.2969 -1.9175
  771TIP3   OH223803   1.936   4.329   1.624  0.2921 -0.2441  0.1241
  771TIP3    H123804   1.890   4.292   1.548 -0.3247 -2.5496  1.4999
  771TIP3    H223805   2.006   4.382   1.586 -0.9623 -0.0204 -2.0393
  772TIP3   OH223806   4.665   3.412   5.338  0.5172  0.0593  0.0637
  772TIP3    H123807   4.741   3.414   5.280 -0.7709 -0.8842 -1.7553
  772TIP3    H223808   4.591   3.439   5.284 -0.6443 -0.1049  1.4771
  773TIP3   OH223809   4.987   6.780  15.185 -0.0379  0.2165  0.2800
  773TIP3    H123810   4.964   6.800  15.094 -0.6896 -0.1520  0.3628
  773TIP3    H223811   5.014   6.689  15.183  1.6018  0.6782  0.1565
  774TIP3   OH223812   3.356   1.075   1.459  0.1305  0.0244  0.7908
  774TIP3    H123813   3.377   1.168   1.465 -0.1089  0.1603 -0.2691
  774TIP3    H223814   3.262   1.071   1.477 -0.2457  0.2333 -0.9596
  775TIP3   OH223815   4.223   5.462  16.800 -0.1382 -0.1643 -0.0581
  775TIP3    H123816   4.266   5.416  16.872 -1.3926 -2.0032 -0.4067
  775TIP3    H223817   4.253   5.416  16.722  1.0641  1.6945 -0.7511
  776TIP3   OH223818   5.765   2.188   3.556  0.3726 -0.1217 -0.4428
  776TIP3    H123819   5.674   2.182   3.586  0.9828 -0.0379  1.6038
  776TIP3    H223820   5.778   2.282   3.540  0.5541  0.1112  0.9428
  777TIP3   OH223821   5.274   4.852  12.407 -0.4237 -0.6942 -0.2708
  777TIP3    H123822   5.265   4.766  12.365  0.7185 -1.2216  0.5085
  777TIP3    H223823   5.293   4.912  12.334  2.5035 -1.7499 -0.5289
  778TIP3   OH223824   1.665   3.847   1.819 -0.4559 -0.3534 -0.3179
  778TIP3    H123825   1.602   3.908   1.857  1.4643  1.0340  0.8179
  778TIP3    H223826   1.676   3.780   1.887  0.6021  0.4018  0.2882
  779TIP3   OH223827   0.126   4.076  15.176  0.1396 -0.3298  0.2879
  779TIP3    H123828   0.157   4.154  15.129  0.4654  0.0432  1.1178
  779TIP3    H223829   0.056   4.108  15.233  0.7136 -0.5166  1.1160
  780TIP3   OH223830   0.025   5.999   2.410 -0.6757  0.0759  0.1312
  780TIP3    H123831  -0.012   6.037   2.331 -0.6924  1.5557  0.8257
  780TIP3    H223832   0.074   6.071   2.451 -2.6454  0.0827  2.7086
  781TIP3   OH223833   6.640   0.368  12.146 -0.1933  0.8325  0.3379
  781TIP3    H123834   6.692   0.407  12.075  0.1188 -0.4454 -0.1528
  781TIP3    H223835   6.686   0.394  12.226  1.1129 -0.1187 -0.0839
  782TIP3   OH223836   4.280   2.707   1.369 -0.4743 -0.2098  0.1971
  782TIP3    H123837   4.322   2.637   1.420 -0.0493 -0.5149 -0.5594
  782TIP3    H223838   4.194   2.671   1.346 -0.4513 -0.2891  0.2339
  783TIP3   OH223839   4.038   3.820   3.283 -0.4922  0.4615 -0.0831
  783TIP3    H123840   4.030   3.776   3.368  0.2171 -1.6087 -1.0147
  783TIP3    H223841   3.974   3.775   3.227  0.8998 -0.0506 -1.3249
  784TIP3   OH223842   1.374   4.408  13.148 -0.4691  0.6929 -0.2275
  784TIP3    H123843   1.346   4.338  13.088  0.2825  1.6889 -1.7913
  784TIP3    H223844   1.293   4.453  13.172 -0.6015  1.5041 -2.0884
  785TIP3   OH223845   5.671   3.050   2.968 -0.4843  0.0090  0.7726
  785TIP3    H123846   5.606   3.025   3.034  0.7469 -2.8294  1.0702
  785TIP3    H223847   5.745   3.084   3.019 -0.2725 -0.3830  0.7304
  786TIP3   OH223848   2.740   5.060   3.710 -0.0496  0.0533  0.4807
  786TIP3    H123849   2.740   4.980   3.656 -1.1764 -0.5598  1.3442
  786TIP3    H223850   2.739   5.131   3.646 -1.0565 -0.6489 -0.3347
  787TIP3   OH223851   0.897   5.111  16.487  0.3223  0.3034 -0.0698
  787TIP3    H123852   0.867   5.147  16.570  0.9788  1.8460 -0.4723
  787TIP3    H223853   0.978   5.065  16.508 -1.3878 -2.6000  0.7550
  788TIP3   OH223854   3.462   6.629  13.072  0.0066  0.2062 -0.1200
  788TIP3    H123855   3.370   6.647  13.093  0.2035 -0.3425  1.3376
  788TIP3    H223856   3.508   6.641  13.155  1.3819  1.1476 -0.9796
  789TIP3   OH223857   4.418   4.531  13.849  0.2697 -0.3603 -0.3004
  789TIP3    H123858   4.406   4.444  13.811 -2.5651  0.2776 -1.0452
  789TIP3    H223859   4.409   4.517  13.944 -0.1513 -0.8641 -0.4134
  790TIP3   OH223860   2.076   0.720   2.581  0.5420  0.4267  0.6638
  790TIP3    H123861   2.016   0.647   2.600 -0.7260  1.4507  0.7581
  790TIP3    H223862   2.127   0.690   2.506  1.7823 -1.5112  2.1769
  791TIP3   OH223863   3.676   2.913   6.331  0.7698 -0.3323  0.3139
  791TIP3    H123864   3.632   2.971   6.394  1.4905  0.7232 -0.1118
  791TIP3    H223865   3.704   2.838   6.383  0.0058 -0.2090  0.9339
  792TIP3   OH223866   1.699   4.225  15.139 -0.1190  0.4380  0.0536
  792TIP3    H123867   1.674   4.301  15.086 -1.4078 -0.1884 -0.2773
  792TIP3    H223868   1.769   4.182  15.089 -0.1104  0.8250 -0.2713
  793TIP3   OH223869   4.070   0.620   0.015  0.8002 -0.3754  0.6309
  793TIP3    H123870   3.984   0.641   0.051  1.6654  1.1276  1.9221
  793TIP3    H223871   4.121   0.588   0.089  1.6275 -0.3709  0.0784
  794TIP3   OH223872   1.143   3.465  13.095  0.0085  0.5013 -0.1483
  794TIP3    H123873   1.125   3.421  13.012  1.4630 -1.0454  0.3022
  794TIP3    H223874   1.194   3.542  13.070  1.3533 -0.5180 -0.6527
  795TIP3   OH223875   0.582   0.316   3.419 -0.0537 -0.0746  0.2490
  795TIP3    H123876   0.583   0.275   3.333  0.7633 -0.3360  0.3677
  795TIP3    H223877   0.675   0.331   3.439 -0.3099  2.0374  0.1198
  796TIP3   OH223878   2.259   5.434  11.675  0.8390  0.5741  0.0076
  796TIP3    H123879   2.287   5.423  11.766 -0.9582 -1.8014  0.3580
  796TIP3    H223880   2.323   5.384  11.624  0.3208 -0.3783  0.2680
  797TIP3   OH223881   3.060   3.297  10.265  0.1335 -0.6619  0.5443
  797TIP3    H123882   2.968   3.316  10.283  0.5764  0.4577  1.8098
  797TIP3    H223883   3.091   3.372  10.214  0.6423 -0.4010  1.2151
  798TIP3   OH223884   1.860   5.904   2.993 -0.4728 -0.2721  0.5209
  798TIP3    H123885   1.813   5.940   2.917  0.8324 -1.6656 -1.0379
  798TIP3    H223886   1.885   5.980   3.044 -2.7250  0.6203  0.4069
  799TIP3   OH223887   3.681   0.898  16.422  0.1987  0.0358  0.1937
  799TIP3    H123888   3.611   0.901  16.357 -0.6600 -1.9260  0.9354
  799TIP3    H223889   3.646   0.944  16.498 -0.3600 -0.9973  0.5864
  800TIP3   OH223890   1.719   0.460   1.099 -0.6643 -0.4836  0.0072
  800TIP3    H123891   1.663   0.531   1.067  0.4812 -0.3601 -1.8762
  800TIP3    H223892   1.680   0.380   1.063  1.9004 -0.1955 -4.1328
  801TIP3   OH223893   5.696   0.329   0.369 -0.2239 -0.5211  0.0236
  801TIP3    H123894   5.668   0.242   0.340 -2.2642 -0.2415  0.9897
  801TIP3    H223895   5.615   0.380   0.373  0.7607  1.0546  0.7097
  802TIP3   OH223896   0.770   3.666  12.663  0.4071  0.0620  0.1071
  802TIP3    H123897   0.857   3.699  12.638  0.2973 -0.6157 -1.3070
  802TIP3    H223898   0.756   3.591  12.605 -1.4956  0.6953 -0.3234
  803TIP3   OH223899   0.807   1.484   3.796 -0.3744 -0.6147 -0.2496
  803TIP3    H123900   0.805   1.578   3.781 -0.9312 -0.3060  1.5231
  803TIP3    H223901   0.716   1.460   3.815 -0.3365 -1.6305 -1.2205
  804TIP3   OH223902   0.059   3.442  13.040 -0.0238 -0.2747  0.1489
  804TIP3    H123903   0.147   3.439  13.003  0.3231 -0.9487  1.0006
  804TIP3    H223904   0.072   3.445  13.135 -0.9120 -0.6029  0.2959
  805TIP3   OH223905   4.327   2.831   4.673 -0.2379 -0.1114 -0.1220
  805TIP3    H123906   4.311   2.872   4.758 -1.0987 -0.3845 -0.1399
  805TIP3    H223907   4.411   2.868   4.644 -0.9577  1.6470 -0.1328
  806TIP3   OH223908   0.386   3.499   3.208  0.1056  0.0121  0.3890
  806TIP3    H123909   0.341   3.414   3.210  1.2232 -0.6386 -0.8863
  806TIP3    H223910   0.338   3.552   3.273 -0.8682 -1.4440  0.9318
  807TIP3   OH223911   2.793   6.274  12.195 -0.2086  0.3992  0.4374
  807TIP3    H123912   2.811   6.218  12.119  2.5626  0.0988  1.2110
  807TIP3    H223913   2.716   6.234  12.237  0.4520 -1.6301 -0.1690
  808TIP3   OH223914   2.254   4.204   4.595 -1.3973  0.5392 -0.1677
  808TIP3    H123915   2.288   4.182   4.681 -1.4084 -2.1127 -0.7712
  808TIP3    H223916   2.324   4.255   4.554  0.2369 -1.3513  0.0966
  809TIP3   OH223917   5.887   4.097   1.156  0.5270 -0.1578  0.4082
  809TIP3    H123918   5.830   4.131   1.225  0.6347 -1.0208  0.9348
  809TIP3    H223919   5.827   4.075   1.084  0.4222  0.8128  0.1804
  810TIP3   OH223920   6.106   2.117   0.448  0.0391 -0.3341 -0.2336
  810TIP3    H123921   6.195   2.152   0.441 -0.0764 -0.0389 -0.2359
  810TIP3    H223922   6.051   2.181   0.404 -0.0681 -0.9840 -1.0751
  811TIP3   OH223923   2.844   3.663  14.281  0.2234 -0.2031  0.3705
  811TIP3    H123924   2.817   3.733  14.222 -1.3453 -0.5824  0.5920
  811TIP3    H223925   2.909   3.704  14.338  0.0576  0.7997 -0.1356
  812TIP3   OH223926   0.361   6.612  16.976  0.1862  0.1948  0.0692
  812TIP3    H123927   0.292   6.618  16.910  0.4328 -0.0793 -0.2174
  812TIP3    H223928   0.328   6.662  17.050 -0.4537 -0.1953  0.0502
  813TIP3   OH223929   4.468   6.337  13.738 -0.2005 -0.0067 -0.3821
  813TIP3    H123930   4.417   6.400  13.789 -0.1541  1.1012 -1.6449
  813TIP3    H223931   4.550   6.382  13.721  0.7732 -1.3188  0.6169
  814TIP3   OH223932   6.687   4.865  13.158 -0.1129 -0.1631  0.1685
  814TIP3    H123933   6.613   4.884  13.215 -0.6453 -0.3835 -0.4407
  814TIP3    H223934   6.699   4.770  13.165 -0.5911 -0.2914 -0.5582
  815TIP3   OH223935   5.573   4.441   0.168  0.3495  0.5839 -0.2469
  815TIP3    H123936   5.616   4.375   0.113 -0.4180 -1.0769  1.0509
  815TIP3    H223937   5.480   4.421   0.160  0.2079  0.3882  1.5097
  816TIP3   OH223938   5.241   2.286  14.494 -0.1775 -0.2255 -0.1106
  816TIP3    H123939   5.243   2.243  14.579 -0.5260  0.3555  0.1979
  816TIP3    H223940   5.280   2.222  14.434  1.0476 -0.2384  0.6591
  817TIP3   OH223941   4.705   2.565  13.200 -0.0100 -0.3985  0.4530
  817TIP3    H123942   4.768   2.589  13.131 -0.1409  2.1790  1.1550
  817TIP3    H223943   4.621   2.563  13.155 -0.0618  1.0398  0.4341
  818TIP3   OH223944   4.618   3.786  11.100 -0.3215 -0.0601 -0.3854
  818TIP3    H123945   4.691   3.812  11.044 -1.2148  0.3612 -1.3883
  818TIP3    H223946   4.557   3.858  11.095 -1.1167 -0.7007 -0.1097
  819TIP3   OH223947   5.555   4.586  12.827 -0.3990 -0.3332 -0.0671
  819TIP3    H123948   5.564   4.677  12.856  1.2549 -0.0911 -1.1838
  819TIP3    H223949   5.495   4.590  12.753 -0.8492 -0.2543  0.3003
  820TIP3   OH223950   0.450   3.049   1.964 -0.1475  0.2118  0.0736
  820TIP3    H123951   0.448   3.142   1.939  0.6627  0.4176  0.7159
  820TIP3    H223952   0.482   3.004   1.885  2.5002  0.8651  0.6562
  821TIP3   OH223953   6.395   2.373   1.052 -0.7014 -0.7173 -0.1540
  821TIP3    H123954   6.417   2.318   1.127  0.4614 -1.6387 -1.1327
  821TIP3    H223955   6.350   2.448   1.090 -0.3534 -1.2703  1.4378
  822TIP3   OH223956   0.348   6.113   3.601 -0.6599 -0.5845 -0.0231
  822TIP3    H123957   0.325   6.179   3.667 -1.9212 -2.1427  1.1663
  822TIP3    H223958   0.423   6.151   3.555 -1.6684  1.9088  0.2458
  823TIP3   OH223959   4.839   1.576  11.584  0.5918  0.0598  0.1888
  823TIP3    H123960   4.754   1.607  11.551  0.4047  0.9346  1.4261
  823TIP3    H223961   4.861   1.503  11.527 -0.5844  0.3634 -0.7041
  824TIP3   OH223962   5.322   1.245   6.271  0.1140  0.0395  0.0592
  824TIP3    H123963   5.314   1.187   6.195 -0.7895 -0.5014  0.5383
  824TIP3    H223964   5.347   1.187   6.342 -1.7382  0.0161  0.7630
  825TIP3   OH223965   3.227   0.755  13.006  0.0819  0.2412  0.4487
  825TIP3    H123966   3.201   0.751  12.914  1.9619 -0.7920 -0.1007
  825TIP3    H223967   3.208   0.668  13.040 -0.2813  0.5123  0.9507
  826TIP3   OH223968   2.130   4.422   5.719  0.2470  0.0386  0.2072
  826TIP3    H123969   2.151   4.410   5.626 -1.2906  0.9267 -0.3054
  826TIP3    H223970   2.127   4.334   5.754 -0.5488 -0.4249 -0.9465
  827TIP3   OH223971   6.722   5.412   5.695  0.1910  0.4632 -0.2669
  827TIP3    H123972   6.710   5.431   5.602  3.5469  3.2932 -0.3019
  827TIP3    H223973   6.809   5.372   5.701 -0.9153 -1.9890  1.5209
  828TIP3   OH223974   5.428   3.415  14.401  0.2420  0.6366 -0.5762
  828TIP3    H123975   5.396   3.470  14.330  1.6262  1.2609 -0.7510
  828TIP3    H223976   5.454   3.333  14.358 -2.2903 -0.4394 -0.2480
  829TIP3   OH223977   4.944   3.984  15.954  0.4639 -0.3714 -0.1236
  829TIP3    H123978   5.038   3.994  15.936  0.1888 -0.0271 -1.5144
  829TIP3    H223979   4.902   3.997  15.869 -1.0093  1.5834  0.8216
  830TIP3   OH223980   2.553   2.389   2.834  0.5154  0.0030 -0.0433
  830TIP3    H123981   2.584   2.443   2.762  0.1140 -0.3541 -0.4914
  830TIP3    H223982   2.485   2.441   2.876  1.0662  0.4023  0.3700
  831TIP3   OH223983   6.160   5.681  12.275  0.2599 -0.2924  0.1007
  831TIP3    H123984   6.205   5.598  12.291 -1.2453 -1.0636  0.4432
  831TIP3    H223985   6.089   5.659  12.214  0.3307  0.9017 -0.4366
  832TIP3   OH223986   4.571   1.582   4.405 -0.3029 -0.1424  0.4401
  832TIP3    H123987   4.585   1.652   4.341  1.0483  0.7161  1.5947
  832TIP3    H223988   4.606   1.504   4.364 -1.5125 -0.1051 -0.7356
  833TIP3   OH223989   6.075   4.371   6.186  0.0438  0.3427  0.3819
  833TIP3    H123990   6.078   4.352   6.093 -1.3544  0.9575  0.1934
  833TIP3    H223991   6.126   4.451   6.196 -1.2673  1.2811 -0.1553
  834TIP3   OH223992   6.226   0.552  16.116 -0.1972 -0.3352  1.0180
  834TIP3    H123993   6.283   0.621  16.149 -2.0832  2.3128 -0.8434
  834TIP3    H223994   6.146   0.559  16.168 -1.0096  0.0093 -0.2377
  835TIP3   OH223995   4.883   2.646   2.793 -0.0720 -0.0498  0.3482
  835TIP3    H123996   4.956   2.586   2.780 -0.2429 -0.1054 -0.4165
  835TIP3    H223997   4.877   2.658   2.887  0.2459 -0.8845  0.4745
  836TIP3   OH223998   2.425   4.542  12.567 -0.0346  0.4974  0.0185
  836TIP3    H123999   2.460   4.467  12.614  0.1546  0.3310 -0.3847
  836TIP3    H224000   2.335   4.550  12.598  0.4938  1.2458  1.4526
  837TIP3   OH224001   1.762   0.289   1.895 -0.2809  0.1884  0.3628
  837TIP3    H124002   1.856   0.269   1.904 -0.3271 -0.4900 -0.5313
  837TIP3    H224003   1.720   0.231   1.958 -0.2306 -0.9456 -0.6050
  838TIP3   OH224004   5.938   1.373   1.537 -0.1221 -0.0059 -0.2695
  838TIP3    H124005   6.013   1.422   1.503 -0.9596 -0.4845 -3.0152
  838TIP3    H224006   5.978   1.296   1.578  0.9239 -0.8448 -2.6847
  839TIP3   OH224007   6.778   6.065  14.804 -0.7127  0.4171  0.2416
  839TIP3    H124008   6.788   6.054  14.899 -1.1591 -1.1866  0.1223
  839TIP3    H224009   6.864   6.096  14.775  0.5613 -2.3490  0.7490
  840TIP3   OH224010   1.259   1.955   4.384 -0.2605 -0.0343  0.0361
  840TIP3    H124011   1.277   2.005   4.464  0.8361  0.6355 -0.6212
  840TIP3    H224012   1.191   1.892   4.411 -0.6982  0.8980  1.2137
  841TIP3   OH224013   5.518   1.752   1.050  0.0199  0.7234  0.5169
  841TIP3    H124014   5.468   1.677   1.081  1.4978 -0.2144  0.7200
  841TIP3    H224015   5.465   1.828   1.073 -1.8220 -0.2715 -0.2710
  842TIP3   OH224016   1.570   5.590  12.581  0.2822  0.0763  0.4224
  842TIP3    H124017   1.633   5.660  12.568  0.4741  0.0923  1.3195
  842TIP3    H224018   1.621   5.518  12.619 -0.1205 -0.1402  0.5690
  843TIP3   OH224019   1.738   4.598  14.261 -0.0278  0.0051 -0.0862
  843TIP3    H124020   1.786   4.545  14.325  0.3985  0.4750 -0.0040
  843TIP3    H224021   1.691   4.663  14.314  0.5534  0.5752 -0.2548
  844TIP3   OH224022   2.289   4.585   2.751  0.2697 -0.2065 -0.2380
  844TIP3    H124023   2.246   4.649   2.807  2.6675 -0.1736  1.7602
  844TIP3    H224024   2.234   4.507   2.755 -0.5531  0.4098  0.6671
  845TIP3   OH224025   4.339   3.795  16.323  0.3710  0.0944  0.4068
  845TIP3    H124026   4.395   3.873  16.322  0.0451  0.4251  2.5088
  845TIP3    H224027   4.367   3.748  16.401 -0.6458 -0.9941  0.1248
  846TIP3   OH224028   4.637   2.435  16.190  0.2866  0.0287 -0.8496
  846TIP3    H124029   4.605   2.439  16.100  1.5380 -1.8130 -1.4387
  846TIP3    H224030   4.562   2.462  16.243  0.0662  3.0275 -2.4556
  847TIP3   OH224031   1.267   1.694  15.451  0.2602 -0.0202 -0.3651
  847TIP3    H124032   1.252   1.750  15.527  0.3012  1.2850 -1.2807
  847TIP3    H224033   1.361   1.696  15.437  0.5161 -1.8760  0.6935
  848TIP3   OH224034   1.328   3.253   4.379 -0.0908 -0.1591 -0.1055
  848TIP3    H124035   1.306   3.323   4.439 -0.0345 -0.1643 -0.0784
  848TIP3    H224036   1.392   3.200   4.427  0.5431  0.2717 -0.4568
  849TIP3   OH224037   5.930   1.864  16.761  0.4837  0.5297 -0.0251
  849TIP3    H124038   5.865   1.794  16.755  0.8494  0.2503 -0.9981
  849TIP3    H224039   5.942   1.879  16.854 -1.5735  1.1328  0.1943
  850TIP3   OH224040   2.585   2.759   0.308 -0.7955 -0.0297 -0.3156
  850TIP3    H124041   2.585   2.666   0.283  1.4086 -0.7556  1.9379
  850TIP3    H224042   2.510   2.767   0.368  0.1643 -0.9299  1.0734
  851TIP3   OH224043   5.201   4.228  12.541 -0.5057  0.5731  0.3198
  851TIP3    H124044   5.247   4.160  12.591 -0.7197  0.1551 -0.0494
  851TIP3    H224045   5.253   4.239  12.462  0.5839  2.1864  1.2015
  852TIP3   OH224046   0.850   0.114   5.083  0.5824  0.8248  0.1578
  852TIP3    H124047   0.785   0.183   5.071  0.1923  0.4914  0.3098
  852TIP3    H224048   0.865   0.112   5.177 -0.1572  0.0428  0.2765
  853TIP3   OH224049   1.503   6.463  16.130 -0.4999 -0.1306 -0.2095
  853TIP3    H124050   1.585   6.498  16.095  0.9711 -2.8569  0.2156
  853TIP3    H224051   1.525   6.438  16.220 -1.2996 -2.2757 -0.5511
  854TIP3   OH224052   6.296   5.907  16.525  0.4908 -0.1575  0.3092
  854TIP3    H124053   6.230   5.908  16.594 -2.7697 -0.3760 -2.5812
  854TIP3    H224054   6.293   5.996  16.489 -0.9837 -1.1320 -2.1728
  855TIP3   OH224055   3.459   6.078  16.232 -0.3453 -0.4184 -0.1459
  855TIP3    H124056   3.464   5.998  16.285  0.1524 -2.6380 -3.2608
  855TIP3    H224057   3.382   6.066  16.177 -0.6853  1.6515 -0.1983
  856TIP3   OH224058   1.394   5.227   2.629 -0.1653  0.4480 -0.4235
  856TIP3    H124059   1.433   5.311   2.653  0.8320  0.6204 -2.4658
  856TIP3    H224060   1.322   5.249   2.570  0.9239 -0.1500 -2.0241
  857TIP3   OH224061   0.568   4.103   2.648  0.5594  0.3194  0.4282
  857TIP3    H124062   0.581   4.027   2.705  0.1047  0.7238  1.0821
  857TIP3    H224063   0.652   4.148   2.648  0.1170  1.2690  2.2148
  858TIP3   OH224064   4.873   0.308  14.681 -0.5398  0.2446 -0.4007
  858TIP3    H124065   4.842   0.308  14.771  0.6399 -0.3279  0.0280
  858TIP3    H224066   4.963   0.341  14.686 -0.7525  1.0619 -1.4884
  859TIP3   OH224067   2.254   0.143   5.084  0.0800  0.1406  0.3493
  859TIP3    H124068   2.344   0.161   5.112 -0.2298  2.8030 -0.1632
  859TIP3    H224069   2.238   0.203   5.012 -2.1753 -0.1627  0.5136
  860TIP3   OH224070   2.235   4.481  12.004 -0.2346 -0.3950 -0.3305
  860TIP3    H124071   2.275   4.533  12.074  1.4558 -2.5733  0.4623
  860TIP3    H224072   2.242   4.536  11.926  1.8844  0.4321  0.3621
  861TIP3   OH224073   1.043   0.198  12.765 -0.6005  0.0150 -0.5931
  861TIP3    H124074   1.094   0.148  12.828  0.3066 -0.0200 -1.3368
  861TIP3    H224075   1.081   0.285  12.766 -0.2243 -0.1261 -1.4658
  862TIP3   OH224076   3.659   1.895  14.215  1.0508 -0.0193 -0.2631
  862TIP3    H124077   3.638   1.972  14.268  0.2609 -0.4794  0.1029
  862TIP3    H224078   3.633   1.821  14.269 -2.6224 -0.4792 -2.3714
  863TIP3   OH224079   3.197   2.442   1.420  0.0738  0.4443  0.4267
  863TIP3    H124080   3.127   2.436   1.355  0.0090  0.0789  0.5338
  863TIP3    H224081   3.273   2.473   1.370  0.2616 -0.6758  0.0034
  864TIP3   OH224082   1.814   2.255   3.903  0.3414  0.3292  0.9858
  864TIP3    H124083   1.795   2.252   3.809  1.4548  0.8238  0.7260
  864TIP3    H224084   1.909   2.241   3.908  0.3875  0.9705  1.9931
  865TIP3   OH224085   1.393   5.115  16.329  0.7211  0.3227  0.6263
  865TIP3    H124086   1.372   5.127  16.422 -1.7619  0.7659  0.0501
  865TIP3    H224087   1.315   5.141  16.282  2.1650  0.7906 -1.6833
  866TIP3   OH224088   0.643   6.680   3.272 -0.3405  0.1347  0.4089
  866TIP3    H124089   0.577   6.740   3.306 -0.6788  0.4073 -0.7130
  866TIP3    H224090   0.727   6.722   3.292 -0.4949 -0.1103  1.6379
  867TIP3   OH224091   0.834   6.438  13.161  0.2389 -0.2772 -0.2214
  867TIP3    H124092   0.794   6.396  13.237  0.8085 -0.4466 -0.0092
  867TIP3    H224093   0.793   6.394  13.086 -0.8790  0.4128 -0.0387
  868TIP3   OH224094   3.407   5.613   4.166  0.2819 -0.3498 -0.3246
  868TIP3    H124095   3.487   5.578   4.127  0.9957 -0.7636  1.4153
  868TIP3    H224096   3.338   5.552   4.140  0.6002 -0.2415 -1.4609
  869TIP3   OH224097   2.995   0.083   3.883 -0.1198 -0.6050 -0.5351
  869TIP3    H124098   2.944   0.039   3.815  0.1833 -1.5373 -0.1851
  869TIP3    H224099   2.940   0.080   3.961  0.5651 -1.9177 -0.0682
  870TIP3   OH224100   5.795   6.686   0.355 -0.4214 -0.1965 -0.1079
  870TIP3    H124101   5.840   6.770   0.354  2.3096 -1.4210  2.5343
  870TIP3    H224102   5.783   6.666   0.448 -0.4192 -2.9448 -0.5967
  871TIP3   OH224103   0.127   4.769   4.121  0.0592  0.1271 -0.5780
  871TIP3    H124104   0.202   4.767   4.180  1.1739 -0.1190 -1.9502
  871TIP3    H224105   0.054   4.794   4.177  1.3581  1.5657  0.5989
  872TIP3   OH224106   4.908   3.698  14.769 -0.5203  0.4805  0.0540
  872TIP3    H124107   4.995   3.738  14.765 -0.4447  0.5007  1.3564
  872TIP3    H224108   4.907   3.651  14.853 -1.5422 -0.0484 -0.2313
  873TIP3   OH224109   5.794   2.792   0.398  0.5669  0.5632  0.0788
  873TIP3    H124110   5.860   2.724   0.412  0.6631  0.8671  1.2211
  873TIP3    H224111   5.741   2.791   0.478 -0.1683  1.0388 -0.3869
  874TIP3   OH224112   4.141   1.255   3.017  0.0696  0.0972  0.3277
  874TIP3    H124113   4.048   1.278   3.008  0.2511  0.5801 -0.3619
  874TIP3    H224114   4.149   1.170   2.975 -0.2046 -0.3160  1.0854
  875TIP3   OH224115   6.504   1.799  12.400  0.4578  0.1612  0.4870
  875TIP3    H124116   6.561   1.835  12.467 -0.6918  0.2714  1.4323
  875TIP3    H224117   6.469   1.719  12.439 -0.0626  0.1106 -0.0716
  876TIP3   OH224118   3.780   3.859  11.922  0.2884 -0.0634  0.0661
  876TIP3    H124119   3.859   3.882  11.872 -0.6261  2.0015 -0.5384
  876TIP3    H224120   3.720   3.931  11.905 -1.4935 -1.2520  1.0748
  877TIP3   OH224121   5.769   3.053  15.762 -0.1992  0.2800  0.5089
  877TIP3    H124122   5.723   3.003  15.829 -0.1660  0.4494  0.6607
  877TIP3    H224123   5.764   3.144  15.792  0.1368  0.3138  0.4713
  878TIP3   OH224124   3.219   5.236   3.177 -0.6533 -0.3500 -0.0865
  878TIP3    H124125   3.308   5.202   3.162 -0.9924 -0.8827 -0.9672
  878TIP3    H224126   3.209   5.235   3.272 -0.3621 -2.0264 -0.0359
  879TIP3   OH224127   0.111   1.318   4.386 -0.6923 -0.0388 -0.2963
  879TIP3    H124128   0.084   1.406   4.360 -1.0502 -0.7215 -2.3920
  879TIP3    H224129   0.050   1.259   4.342  0.1892 -1.3813  0.2056
  880TIP3   OH224130   1.474   2.801  14.135  0.4001 -0.0687  0.7520
  880TIP3    H124131   1.441   2.773  14.220  0.6585  1.7820  1.5101
  880TIP3    H224132   1.499   2.720  14.091 -2.3709 -1.3005  1.2793
  881TIP3   OH224133   3.693   4.612  12.381  0.5304  1.1317 -0.3655
  881TIP3    H124134   3.669   4.615  12.473 -1.3347  2.3830 -0.8326
  881TIP3    H224135   3.620   4.565  12.339  2.4257 -1.5454 -0.9681
  882TIP3   OH224136   6.570   4.404  12.167 -0.5044 -0.6960  0.0001
  882TIP3    H124137   6.605   4.343  12.102  1.8101  0.7608 -0.2300
  882TIP3    H224138   6.533   4.475  12.116  1.9421  0.7942  0.1530
  883TIP3   OH224139   1.930   4.931   2.552 -0.1340 -0.3283  0.1577
  883TIP3    H124140   1.967   4.881   2.479  0.3362 -1.3194  1.0589
  883TIP3    H224141   1.839   4.946   2.527  0.0170 -0.6522 -0.6322
  884TIP3   OH224142   5.369   4.565   2.488  0.4863  0.3789  0.1724
  884TIP3    H124143   5.464   4.551   2.487  0.4373  0.0569 -0.2168
  884TIP3    H224144   5.352   4.619   2.411  0.1347 -1.0985 -0.8312
  885TIP3   OH224145   2.027   6.156   5.779 -0.1011  0.5367  0.0793
  885TIP3    H124146   2.081   6.228   5.746 -0.2871  0.8510  0.4562
  885TIP3    H224147   2.031   6.165   5.874  1.3655 -1.0258  0.2236
  886TIP3   OH224148   0.366   6.234  14.020 -0.3467  0.3442 -0.1421
  886TIP3    H124149   0.340   6.304  14.080 -0.0237  0.4738 -0.1487
  886TIP3    H224150   0.284   6.197  13.989 -0.5262  0.9301 -0.3780
  887TIP3   OH224151   2.262   3.159  14.713 -0.3525 -0.0295 -0.3870
  887TIP3    H124152   2.301   3.189  14.631 -1.7102  1.2624 -0.5963
  887TIP3    H224153   2.273   3.233  14.773 -0.1563 -0.6360  0.3346
  888TIP3   OH224154   3.704   2.884   0.828  0.0880  0.1760  0.6245
  888TIP3    H124155   3.646   2.834   0.770 -0.9768  0.0823  1.7202
  888TIP3    H224156   3.680   2.975   0.814  1.9334  0.4345 -1.2699
  889TIP3   OH224157   0.660   1.187   5.981 -0.3767  0.0259 -0.4892
  889TIP3    H124158   0.702   1.252   6.038 -0.5387  0.8701 -1.3149
  889TIP3    H224159   0.591   1.236   5.936 -1.5252 -1.0740  0.0028
  890TIP3   OH224160   2.260   3.340   3.009  0.6714 -0.1896 -0.5112
  890TIP3    H124161   2.250   3.251   3.043 -0.7128 -0.5840 -1.8018
  890TIP3    H224162   2.297   3.390   3.082 -0.5861 -1.3338  0.9859
  891TIP3   OH224163   3.363   6.501  16.600  0.4285 -0.0004  0.0198
  891TIP3    H124164   3.400   6.563  16.536  0.5014 -1.3451 -1.2846
  891TIP3    H224165   3.440   6.466  16.645  0.3241  1.8129  1.7587
  892TIP3   OH224166   4.533   2.298   5.067 -0.4043  0.3942 -0.4362
  892TIP3    H124167   4.549   2.250   4.986  0.5927 -0.2052  0.0993
  892TIP3    H224168   4.487   2.235   5.123  1.5547 -0.2594  0.5398
  893TIP3   OH224169   6.619   5.573   3.291 -0.6007 -0.6468 -0.3600
  893TIP3    H124170   6.649   5.482   3.289  1.6859  0.0175  0.3888
  893TIP3    H224171   6.606   5.595   3.198  1.0837 -1.1112 -0.7577
  894TIP3   OH224172   0.041   2.732  11.937  0.4213  0.0864  0.6479
  894TIP3    H124173   0.010   2.812  11.980  1.6110  0.8543  0.1666
  894TIP3    H224174   0.020   2.745  11.844  0.8172 -0.0503  0.5353
  895TIP3   OH224175   2.608   3.302   0.338 -0.6051  0.0213  0.0304
  895TIP3    H124176   2.595   3.210   0.314 -2.4898 -0.1462  1.4393
  895TIP3    H224177   2.646   3.298   0.426  2.0593  0.6402 -0.9850
  896TIP3   OH224178   2.594   3.731   3.270  0.4636 -0.3068 -0.3163
  896TIP3    H124179   2.588   3.825   3.282  1.4049 -0.0989 -1.2968
  896TIP3    H224180   2.507   3.698   3.291  0.4543  0.6262  1.2461
  897TIP3   OH224181   2.005   2.587   0.689  0.0808  0.1092  0.2569
  897TIP3    H124182   2.085   2.534   0.694  0.3541  0.5638  0.9547
  897TIP3    H224183   1.974   2.575   0.600  0.8235 -0.2352  0.0317
  898TIP3   OH224184   5.228   3.928   1.824 -0.1028  0.0871  0.2048
  898TIP3    H124185   5.294   3.997   1.819  0.7305 -0.6342  0.9187
  898TIP3    H224186   5.278   3.846   1.822 -1.0136 -0.4900  0.1933
  899TIP3   OH224187   1.025   6.458  16.552 -0.3775  0.0284  0.4536
  899TIP3    H124188   0.976   6.398  16.608  3.1374 -2.1541  1.5268
  899TIP3    H224189   1.031   6.539  16.603 -0.2303 -0.7267  1.6661
  900TIP3   OH224190   4.715   6.096  14.038 -0.5600 -0.7533  0.5111
  900TIP3    H124191   4.746   6.044  14.113  1.3876  0.0472  0.3083
  900TIP3    H224192   4.789   6.151  14.015 -1.8191  0.4788 -0.7490
  901TIP3   OH224193   3.201   1.743  12.740  0.0161  0.2940  0.4503
  901TIP3    H124194   3.165   1.738  12.651 -0.0736  0.6140  0.4652
  901TIP3    H224195   3.293   1.721  12.730 -0.2285 -0.7951  0.4472
  902TIP3   OH224196   2.517   2.391   1.945 -0.3503 -0.4431  0.0905
  902TIP3    H124197   2.466   2.444   1.884 -1.6150 -0.6524  0.9305
  902TIP3    H224198   2.607   2.424   1.936 -0.7060  0.2678 -1.0618
  903TIP3   OH224199   0.467   0.471   6.702  0.3910  0.2612  0.6156
  903TIP3    H124200   0.481   0.565   6.713  0.7788  0.3931 -0.7178
  903TIP3    H224201   0.374   0.462   6.685  0.4052  0.4493  0.4315
  904TIP3   OH224202   4.165   3.878  15.658  0.4002  0.1481 -0.3460
  904TIP3    H124203   4.208   3.926  15.729  1.0202  0.1382 -0.7111
  904TIP3    H224204   4.236   3.853  15.599  0.0321 -0.8656 -0.3741
  905TIP3   OH224205   6.752   2.122  15.373 -0.1129 -0.1880  0.4186
  905TIP3    H124206   6.747   2.053  15.439 -0.5615 -1.2075 -0.6619
  905TIP3    H224207   6.666   2.121  15.331  0.6953 -0.6892 -1.2936
  906TIP3   OH224208   3.391   1.051  16.601 -0.0791 -0.0200  0.2986
  906TIP3    H124209   3.364   1.072  16.512 -0.3961  0.7005  0.5618
  906TIP3    H224210   3.366   0.959  16.612 -2.2973  0.5499  0.4768
  907TIP3   OH224211   1.070   1.327   4.538 -0.1223  0.6078  0.2932
  907TIP3    H124212   0.977   1.307   4.549 -0.3382  1.3977 -0.0241
  907TIP3    H224213   1.115   1.251   4.574 -0.8885  0.2615  0.5470
  908TIP3   OH224214   5.668   0.928  16.385  0.3765 -0.2196  0.1192
  908TIP3    H124215   5.647   0.841  16.352  0.9173 -0.1657 -0.3875
  908TIP3    H224216   5.589   0.980  16.370 -0.1057 -0.7222  0.8254
  909TIP3   OH224217   1.202   3.470   3.225  0.9810  0.7020 -0.0460
  909TIP3    H124218   1.170   3.524   3.297  2.4538  2.1317 -0.4002
  909TIP3    H224219   1.162   3.384   3.240 -1.1361  1.7450  0.7649
  910TIP3   OH224220   0.072   4.227  16.716  0.0364  0.0879 -0.3909
  910TIP3    H124221  -0.006   4.207  16.664 -0.2245  2.4087 -0.9964
  910TIP3    H224222   0.135   4.159  16.692 -0.5711  0.2616 -2.6564
  911TIP3   OH224223   4.294   6.171  11.426  0.0515 -0.0278 -0.2740
  911TIP3    H124224   4.339   6.092  11.457  1.3496  0.6494 -0.3741
  911TIP3    H224225   4.253   6.145  11.344  0.4798 -0.5893 -0.3105
  912TIP3   OH224226   4.394   6.633   5.191 -0.2278 -0.0645  0.1672
  912TIP3    H124227   4.482   6.669   5.183  0.3005 -1.2668  0.3141
  912TIP3    H224228   4.365   6.621   5.100 -1.1051  2.2623  0.0784
  913TIP3   OH224229   0.384   5.962  10.706 -0.1990  1.3009  0.0364
  913TIP3    H124230   0.311   6.023  10.708  0.5607  2.2283  1.3687
  913TIP3    H224231   0.445   5.995  10.772  0.5746 -0.5024  0.2989
  914TIP3   OH224232   2.796   5.110   2.763 -0.0300 -0.2429  0.5824
  914TIP3    H124233   2.833   5.041   2.818 -0.9617 -0.8869  0.4105
  914TIP3    H224234   2.873   5.155   2.726  0.5918 -1.3891  0.4379
  915TIP3   OH224235   6.259   2.842   6.051 -0.3632 -0.4007  0.8824
  915TIP3    H124236   6.223   2.905   5.989 -0.9033 -0.4733  1.1176
  915TIP3    H224237   6.200   2.846   6.126 -1.5470 -2.5764  0.1365
  916TIP3   OH224238   6.215   4.205  15.300 -0.5224 -0.6146 -0.3350
  916TIP3    H124239   6.156   4.145  15.345 -1.5383  0.7236  0.1725
  916TIP3    H224240   6.257   4.151  15.233 -1.1394 -1.9632  0.3268
  917TIP3   OH224241   4.382   4.332   1.132 -0.0704  0.0023 -0.1662
  917TIP3    H124242   4.375   4.422   1.100 -1.3151 -0.7994 -2.3471
  917TIP3    H224243   4.302   4.318   1.183 -0.8662 -0.4262 -1.4769
  918TIP3   OH224244   2.371   5.010  12.380  0.4462 -0.3535 -0.1340
  918TIP3    H124245   2.432   4.967  12.439  0.6727  0.1772  0.0257
  918TIP3    H224246   2.293   4.954  12.380  0.5790 -0.5381  0.3882
  919TIP3   OH224247   4.984   2.538   4.358  0.2132 -0.1481 -0.3225
  919TIP3    H124248   5.013   2.452   4.389  0.5802 -0.0970 -0.5168
  919TIP3    H224249   5.065   2.586   4.341  0.0107  0.2678 -0.1365
  920TIP3   OH224250   5.775   6.193  16.392 -0.2115  0.0559 -0.3920
  920TIP3    H124251   5.806   6.177  16.481 -2.6453 -1.4698  0.2986
  920TIP3    H224252   5.854   6.212  16.341  1.2807  0.6319  1.9996
  921TIP3   OH224253   5.264   5.409  10.544 -0.2309 -0.1478 -0.2247
  921TIP3    H124254   5.171   5.391  10.540 -0.2247 -0.6786  1.2964
  921TIP3    H224255   5.301   5.335  10.592  0.9225  0.2187 -0.5160
  922TIP3   OH224256   4.724   6.708   6.085  0.2753 -0.1392 -0.3410
  922TIP3    H124257   4.732   6.650   6.161  0.0102 -1.2872 -1.1513
  922TIP3    H224258   4.659   6.773   6.111 -0.7993 -1.2927 -0.0197
  923TIP3   OH224259   2.481   3.952   5.147 -0.6648  0.0576  0.2898
  923TIP3    H124260   2.401   3.962   5.095  0.5145  1.4599 -1.3897
  923TIP3    H224261   2.516   3.867   5.120 -0.2378  0.6227 -1.0383
  924TIP3   OH224262   0.819   3.503  13.743 -0.5149 -0.0370 -0.0905
  924TIP3    H124263   0.879   3.574  13.764  0.8961 -1.3684  0.6556
  924TIP3    H224264   0.752   3.506  13.812  0.0975 -0.0247  0.5161
  925TIP3   OH224265   6.789   1.672   4.805  0.2608  0.1334  0.3021
  925TIP3    H124266   6.850   1.693   4.735 -0.1702 -0.2615 -0.2046
  925TIP3    H224267   6.724   1.742   4.803  0.3920  0.2600  0.4772
  926TIP3   OH224268   4.433   5.354  13.822  0.3492 -0.5128 -0.6012
  926TIP3    H124269   4.347   5.315  13.808 -0.6127  1.0750  0.4556
  926TIP3    H224270   4.438   5.425  13.758  0.3313  0.1496  0.1066
  927TIP3   OH224271   1.833   6.551  11.164 -0.2556  0.4150  0.1185
  927TIP3    H124272   1.779   6.505  11.228 -0.6985 -0.5195 -0.8835
  927TIP3    H224273   1.898   6.486  11.137 -2.1154 -0.4304 -2.8118
  928TIP3   OH224274   6.219   5.797  15.866  0.8539  0.2117  0.1694
  928TIP3    H124275   6.218   5.829  15.776  2.3887  0.6037  0.2714
  928TIP3    H224276   6.136   5.829  15.903  0.3047  0.2286 -1.0225
  929TIP3   OH224277   0.699   5.657   1.574  0.1064  0.6129  0.8743
  929TIP3    H124278   0.708   5.685   1.483  0.6834 -2.4242 -0.1033
  929TIP3    H224279   0.606   5.639   1.585 -0.1179  1.9209  1.2171
  930TIP3   OH224280   5.444   2.464  11.971  0.3583 -0.0884 -0.0881
  930TIP3    H124281   5.374   2.408  12.004  1.0403 -0.2329  1.1793
  930TIP3    H224282   5.410   2.553  11.980 -0.0170 -0.2025 -0.3598
  931TIP3   OH224283   1.927   5.119  14.184 -0.1227 -0.7907 -0.1263
  931TIP3    H124284   1.932   5.113  14.280  0.2379  1.0295  0.0105
  931TIP3    H224285   1.842   5.082  14.162 -0.7947 -0.0058  1.0428
  932TIP3   OH224286   3.649   0.300  15.854  0.3172  0.0682  0.1408
  932TIP3    H124287   3.665   0.210  15.823 -1.0289  0.1391 -0.8416
  932TIP3    H224288   3.685   0.301  15.942 -0.3429 -1.6855  0.4840
  933TIP3   OH224289   4.761   0.338   5.821  0.2551  0.0126  0.3850
  933TIP3    H124290   4.795   0.427   5.830 -0.5644  0.2838  0.8800
  933TIP3    H224291   4.825   0.283   5.866  0.5705  0.3974  0.4087
  934TIP3   OH224292   2.361   1.025   4.196 -0.2410 -0.0694 -0.3016
  934TIP3    H124293   2.370   1.118   4.174  0.0647  0.3227  1.3238
  934TIP3    H224294   2.273   1.002   4.165 -0.6033  0.9711 -0.1066
  935TIP3   OH224295   2.319   3.302  15.098  0.0060 -0.2947 -0.5186
  935TIP3    H124296   2.227   3.278  15.104  0.2359 -1.3985 -1.1155
  935TIP3    H224297   2.343   3.329  15.187 -0.2040 -2.6124  0.2994
  936TIP3   OH224298   1.502   4.450  12.661  0.3389  0.0607 -0.3807
  936TIP3    H124299   1.482   4.460  12.567 -1.1639 -1.2438 -0.2477
  936TIP3    H224300   1.419   4.468  12.704 -0.1297 -3.2606  0.3989
  937TIP3   OH224301   5.675   1.310   5.470  0.2017  0.3554  0.4432
  937TIP3    H124302   5.717   1.384   5.513  3.5507 -0.0505 -1.8007
  937TIP3    H224303   5.669   1.336   5.378 -3.9721  0.0073  0.4029
  938TIP3   OH224304   6.106   3.852   3.301  0.2384 -0.2099  0.1728
  938TIP3    H124305   6.078   3.841   3.210  0.1276  0.3614  0.1369
  938TIP3    H224306   6.047   3.918   3.337 -0.5443 -1.3128  1.0312
  939TIP3   OH224307   4.678   1.085   1.060 -0.0917  0.3362 -0.4289
  939TIP3    H124308   4.724   1.157   1.017 -1.5295  1.2305 -0.5638
  939TIP3    H224309   4.646   1.123   1.142  0.6705 -0.6967  0.3766
  940TIP3   OH224310   0.817   6.610  14.731  0.5689  0.3112 -0.0033
  940TIP3    H124311   0.911   6.597  14.717  0.8431 -0.5177  2.3010
  940TIP3    H224312   0.812   6.680  14.797 -0.4833  0.8466 -0.6147
  941TIP3   OH224313   0.981   5.368  15.068  0.0564 -0.2480  0.1875
  941TIP3    H124314   1.056   5.405  15.114 -0.9529 -2.3655  3.9100
  941TIP3    H224315   0.994   5.274  15.071 -2.3318 -0.6499  0.1880
  942TIP3   OH224316   1.657   3.888  15.965  0.1937 -0.1124 -0.4730
  942TIP3    H124317   1.639   3.899  15.871  0.6473  0.4249 -0.5056
  942TIP3    H224318   1.744   3.849  15.968  0.0539 -0.4050 -0.2804
  943TIP3   OH224319   6.801   4.207  13.001 -0.5058  0.0880  0.5123
  943TIP3    H124320   6.847   4.139  13.049 -0.1774 -0.2157 -0.2230
  943TIP3    H224321   6.770   4.164  12.921  0.3925  0.9751 -0.3394
  944TIP3   OH224322   2.427   1.115  16.060 -0.7792  0.4750 -0.2305
  944TIP3    H124323   2.504   1.162  16.090  0.7083 -1.2523 -1.1614
  944TIP3    H224324   2.413   1.046  16.125 -0.9253  0.1631 -0.5858
  945TIP3   OH224325   3.935   6.737   4.090 -0.1217  0.5795 -0.1507
  945TIP3    H124326   4.011   6.765   4.142 -0.3835  1.6604 -0.3398
  945TIP3    H224327   3.973   6.698   4.011  0.2911 -1.2673  0.8918
  946TIP3   OH224328   2.584   0.380  12.172 -0.0994 -0.5310 -0.2112
  946TIP3    H124329   2.592   0.300  12.119  1.6079 -0.5296 -0.0042
  946TIP3    H224330   2.672   0.417  12.173 -0.8937  1.5057 -0.4949
  947TIP3   OH224331   4.862   6.779  12.271  0.4394 -0.3217  0.5201
  947TIP3    H124332   4.937   6.729  12.303  1.5637 -0.0135 -1.4563
  947TIP3    H224333   4.822   6.723  12.205  0.9851  0.8522 -0.8524
  948TIP3   OH224334   6.614   4.033   3.256  0.0908 -0.0809  0.0771
  948TIP3    H124335   6.656   4.119   3.263 -1.6085  0.9957 -1.6404
  948TIP3    H224336   6.617   4.012   3.163 -1.6592 -0.6945  0.1090
  949TIP3   OH224337   2.901   1.049   1.151 -0.3436  0.2076 -0.2847
  949TIP3    H124338   2.898   0.953   1.155  1.6445  0.0395 -1.3218
  949TIP3    H224339   2.830   1.078   1.208 -1.9967 -1.8744 -1.1730
  950TIP3   OH224340   1.923   1.154   5.264 -0.4202  0.1757  0.3869
  950TIP3    H124341   2.011   1.158   5.226 -0.1884  0.1222  0.9110
  950TIP3    H224342   1.900   1.245   5.279  0.2600  0.1305  1.8540
  951TIP3   OH224343   1.455   5.890   2.112  0.1736  0.1595  0.0472
  951TIP3    H124344   1.536   5.874   2.161 -0.2090 -2.1978 -0.0125
  951TIP3    H224345   1.474   5.860   2.023 -1.1715 -1.7891  0.3690
  952TIP3   OH224346   2.071   5.952  16.620 -0.3095  0.1151  0.9577
  952TIP3    H124347   2.064   5.926  16.528 -3.8261  0.9501  0.8483
  952TIP3    H224348   2.099   5.873  16.666 -0.2422 -0.8091 -0.6069
  953TIP3   OH224349   4.363   5.364   3.211 -0.8636  0.4368 -0.3834
  953TIP3    H124350   4.364   5.275   3.176 -0.3552  0.8015 -1.3250
  953TIP3    H224351   4.275   5.396   3.195 -0.8698  0.3166 -0.5880
  954TIP3   OH224352   0.917   3.777  13.516 -0.7288  0.0369  0.1780
  954TIP3    H124353   0.918   3.701  13.457 -0.5084 -0.5559  0.9288
  954TIP3    H224354   0.864   3.842  13.470  1.3302  0.4793 -1.7319
  955TIP3   OH224355   6.293   6.552   0.777  0.0891  0.5231  0.1054
  955TIP3    H124356   6.251   6.636   0.756  1.6904  1.1334 -0.8524
  955TIP3    H224357   6.336   6.527   0.696 -1.6336 -2.0771 -0.1239
  956TIP3   OH224358   4.958   0.987   0.668 -0.0765  0.0157  0.2202
  956TIP3    H124359   4.872   0.964   0.705 -0.6783  2.4078  0.4572
  956TIP3    H224360   4.937   1.038   0.590  1.1683 -0.3665 -0.3787
  957TIP3   OH224361   4.943   0.264  13.364  0.0543  0.1005 -0.1170
  957TIP3    H124362   4.890   0.249  13.443  1.5806 -1.1231  0.7455
  957TIP3    H224363   4.915   0.349  13.332 -0.4516  0.7674  1.9168
  958TIP3   OH224364   1.030   6.412   4.797 -0.1443  0.0281  0.3547
  958TIP3    H124365   1.028   6.469   4.720  1.2763  0.0205  0.2981
  958TIP3    H224366   0.984   6.333   4.768  0.2416  0.0820 -0.4404
  959TIP3   OH224367   1.530   1.885  16.827 -0.0971 -0.1161 -0.1692
  959TIP3    H124368   1.508   1.944  16.899  0.9481 -0.6513  0.6189
  959TIP3    H224369   1.532   1.940  16.749 -3.2086  0.1536 -0.1886
  960TIP3   OH224370   5.663   3.924  16.730  0.1565  0.4843 -0.0396
  960TIP3    H124371   5.588   3.972  16.698  0.5289  0.3575 -1.1333
  960TIP3    H224372   5.630   3.835  16.745  0.3299  0.1164 -1.6423
  961TIP3   OH224373   1.363   4.865   2.322 -0.0474  0.0332  0.3909
  961TIP3    H124374   1.375   4.780   2.280 -0.6364  0.4636 -0.7000
  961TIP3    H224375   1.451   4.901   2.329  0.0268  0.2431 -1.1765
  962TIP3   OH224376   5.139   2.497   6.176  0.1482 -0.1586 -0.5225
  962TIP3    H124377   5.115   2.405   6.180 -1.2779  0.2112  1.9179
  962TIP3    H224378   5.057   2.543   6.156 -0.0442  0.7333  1.8576
  963TIP3   OH224379   3.437   6.815   6.314 -0.5317 -0.7110  0.1124
  963TIP3    H124380   3.371   6.823   6.384  1.3727 -1.3863  2.1095
  963TIP3    H224381   3.501   6.884   6.334 -0.9605  0.4960 -2.2866
  964TIP3   OH224382   5.933   4.988   4.366  0.2556  0.5458  0.1144
  964TIP3    H124383   5.988   4.910   4.366 -0.7270 -0.1683  0.1641
  964TIP3    H224384   5.980   5.051   4.311  1.3452  0.1340  0.5573
  965TIP3   OH224385   5.154   3.143  11.057  0.3186 -0.5819 -0.7838
  965TIP3    H124386   5.233   3.188  11.028 -1.3816  2.6018 -0.9812
  965TIP3    H224387   5.154   3.155  11.152  0.4394 -1.2904 -0.6882
  966TIP3   OH224388   3.079   2.566   1.935 -0.1062 -0.7982  0.2421
  966TIP3    H124389   3.172   2.554   1.917 -0.4890  0.2431 -2.8902
  966TIP3    H224390   3.038   2.483   1.911 -0.3128 -0.2368 -1.4449
  967TIP3   OH224391   0.559   0.567   5.899  0.1643  0.3181  0.4117
  967TIP3    H124392   0.509   0.595   5.823  0.4595  1.3413  0.5752
  967TIP3    H224393   0.630   0.514   5.863  1.3441  2.2370 -0.2341
  968TIP3   OH224394   3.389   0.913  11.345  0.3141  0.6790 -0.3597
  968TIP3    H124395   3.401   0.859  11.268  2.4464  0.4957  0.0312
  968TIP3    H224396   3.387   1.003  11.312 -1.8131  0.4795 -0.8724
  969TIP3   OH224397   2.973   3.081   5.930  0.5630 -0.1890  0.8785
  969TIP3    H124398   3.066   3.061   5.940  1.2212  2.0158 -0.0437
  969TIP3    H224399   2.945   3.032   5.853  1.0980 -0.4680  0.8592
  970TIP3   OH224400   1.203   1.642  10.439 -0.2028 -0.5457  0.0669
  970TIP3    H124401   1.251   1.663  10.520  2.7104  0.9457 -1.8778
  970TIP3    H224402   1.237   1.557  10.412 -1.3295 -1.1420  0.4707
  971TIP3   OH224403   6.690   0.324   3.689 -0.1941  0.0925 -0.0484
  971TIP3    H124404   6.704   0.399   3.746  1.3057  1.1858 -1.7049
  971TIP3    H224405   6.777   0.285   3.679 -0.9449 -1.9474  0.8112
  972TIP3   OH224406   5.722   4.075   4.041  0.3197 -0.3758  0.3241
  972TIP3    H124407   5.785   4.029   4.096  1.9013  0.6356 -0.5899
  972TIP3    H224408   5.662   4.116   4.104  1.9414  0.5614  1.3323
  973TIP3   OH224409   2.349   5.173  14.939 -0.1583  0.2630 -0.2853
  973TIP3    H124410   2.375   5.168  15.031 -0.5739  0.2622 -0.1633
  973TIP3    H224411   2.257   5.199  14.942  0.0353  1.0207 -0.7273
  974TIP3   OH224412   6.402   0.140   5.856  0.1611 -0.1539  0.3274
  974TIP3    H124413   6.434   0.056   5.824  2.0546  0.0976  1.4034
  974TIP3    H224414   6.383   0.190   5.776 -1.7646 -1.8126 -0.3315
  975TIP3   OH224415   5.059   0.223   0.550 -0.0907  0.6223 -1.2071
  975TIP3    H124416   5.030   0.209   0.459 -1.5580  1.3996 -0.8938
  975TIP3    H224417   5.018   0.152   0.599 -1.3013  1.5579 -0.8066
  976TIP3   OH224418   5.973   1.879   2.192  0.0410  0.1792  0.4177
  976TIP3    H124419   5.888   1.839   2.210  1.1606 -3.3335 -1.1133
  976TIP3    H224420   5.975   1.889   2.096  1.1559  0.7087  0.4801
  977TIP3   OH224421   1.791   5.096   0.172 -0.0907 -0.0707  0.1902
  977TIP3    H124422   1.840   5.014   0.180  1.9639  1.1096  0.5049
  977TIP3    H224423   1.859   5.163   0.161 -1.7418  1.3724 -2.2810
  978TIP3   OH224424   6.056   3.379   2.194 -0.3636  0.4663  0.7447
  978TIP3    H124425   6.011   3.451   2.237  0.7009  0.8384  1.2857
  978TIP3    H224426   6.107   3.337   2.264  0.4118  0.2996  0.1042
  979TIP3   OH224427   5.923   1.625  14.206 -0.2924  0.0912 -0.3574
  979TIP3    H124428   5.828   1.632  14.197 -0.5562 -1.2146  0.9187
  979TIP3    H224429   5.955   1.715  14.208 -1.8667  0.6723  2.2928
  980TIP3   OH224430   5.240   1.047  14.942 -0.1619 -0.1169  0.3707
  980TIP3    H124431   5.191   0.976  14.903 -0.3506 -0.3736  1.0644
  980TIP3    H224432   5.174   1.107  14.976 -0.0105 -0.4189  1.2270
  981TIP3   OH224433   3.424   2.283  13.126  0.1331 -0.2520 -0.0325
  981TIP3    H124434   3.436   2.191  13.101  0.7359 -0.2152  0.1048
  981TIP3    H224435   3.340   2.285  13.171  0.0160 -0.6993 -0.2300
  982TIP3   OH224436   2.275   6.301  12.257 -0.4548  0.1408 -0.4769
  982TIP3    H124437   2.180   6.299  12.246 -0.6402  3.3890 -0.4985
  982TIP3    H224438   2.291   6.256  12.340 -2.0860  0.1277 -0.1357
  983TIP3   OH224439   5.471   2.689   1.503 -0.1001  0.2152  0.3398
  983TIP3    H124440   5.441   2.683   1.594  1.1005 -1.7656  0.6698
  983TIP3    H224441   5.523   2.769   1.500 -3.2797  2.4688  0.3257
  984TIP3   OH224442   0.281   4.999   3.172  0.3060 -0.1479  0.1851
  984TIP3    H124443   0.342   5.034   3.238  1.1871  0.9688 -1.1676
  984TIP3    H224444   0.331   4.933   3.125 -0.5599 -1.4831  1.0643
  985TIP3   OH224445   4.171   1.836  13.704 -0.0925  0.3314 -0.1871
  985TIP3    H124446   4.134   1.794  13.782 -0.1678 -1.4102 -1.0981
  985TIP3    H224447   4.114   1.807  13.633 -0.1534  2.0652 -0.8822
  986TIP3   OH224448   1.155   4.648   4.555  0.4538 -0.1386 -0.4871
  986TIP3    H124449   1.104   4.727   4.539  1.2869  0.6790  0.7807
  986TIP3    H224450   1.099   4.594   4.611 -0.6818 -1.1176 -2.4222
  987TIP3   OH224451   3.349   5.398  12.667 -0.2816 -0.3706  0.1699
  987TIP3    H124452   3.272   5.424  12.617  0.9694  0.3121 -1.4849
  987TIP3    H224453   3.335   5.306  12.687 -1.0880 -0.5113 -0.9605
  988TIP3   OH224454   4.458   0.190  13.506  0.1229 -0.0448 -0.1045
  988TIP3    H124455   4.478   0.268  13.557  1.2115  0.5672 -1.3918
  988TIP3    H224456   4.402   0.221  13.435 -0.9736 -0.7908  0.4026
  989TIP3   OH224457   0.042   1.369  12.774 -0.9542  0.0611  0.3022
  989TIP3    H124458  -0.033   1.386  12.830 -0.3528 -0.1538  1.1993
  989TIP3    H224459   0.061   1.276  12.785 -0.9585 -0.0386 -0.4412
  990TIP3   OH224460   1.956   5.458   1.016  0.5449 -0.3136 -0.1128
  990TIP3    H124461   2.029   5.517   1.000 -0.0590  1.0795  1.9050
  990TIP3    H224462   1.957   5.444   1.111  0.7717 -3.7633 -0.4694
  991TIP3   OH224463   2.848   0.609   3.504 -0.1321 -0.0777  0.5720
  991TIP3    H124464   2.909   0.564   3.446  0.6902  0.3270  1.0994
  991TIP3    H224465   2.820   0.543   3.567 -0.4819 -0.3424  0.1384
  992TIP3   OH224466   2.903   0.569  17.088 -0.9189 -0.0060 -0.4237
  992TIP3    H124467   2.990   0.530  17.096 -0.2409  1.1561 -1.6766
  992TIP3    H224468   2.900   0.603  16.998 -1.6596  2.2680  0.3931
  993TIP3   OH224469   3.220   2.532   0.243  0.1757 -0.2799  0.1368
  993TIP3    H124470   3.168   2.572   0.313  1.0550  1.2116 -0.0323
  993TIP3    H224471   3.303   2.511   0.284 -0.4571 -2.5839  0.3809
  994TIP3   OH224472   6.104   1.858  15.508 -0.0354 -0.6065  0.4948
  994TIP3    H124473   6.094   1.820  15.595 -1.3339  1.5914  1.3927
  994TIP3    H224474   6.037   1.814  15.455 -0.9505 -0.2220  1.2917
  995TIP3   OH224475   4.165   4.494   3.051  0.4721 -0.0583 -0.3448
  995TIP3    H124476   4.210   4.540   3.121 -0.0784  0.1390 -0.1168
  995TIP3    H224477   4.129   4.415   3.094  2.4696 -1.3845 -0.9813
  996TIP3   OH224478   1.741   5.569   3.412 -0.4404 -0.2447 -0.4816
  996TIP3    H124479   1.712   5.650   3.371  2.2719  2.5351  2.5797
  996TIP3    H224480   1.695   5.566   3.496  0.3669 -1.2944 -0.0530
  997TIP3   OH224481   0.389   2.590  12.714 -0.4197 -0.4377 -0.0399
  997TIP3    H124482   0.413   2.497  12.709  1.5020 -0.0214  0.6948
  997TIP3    H224483   0.298   2.592  12.685 -0.9857 -2.7575  1.2718
  998TIP3   OH224484   0.330   1.451  12.096  0.2033  0.1755 -0.0122
  998TIP3    H124485   0.237   1.451  12.118  0.3198 -0.1962  0.4915
  998TIP3    H224486   0.369   1.388  12.157  0.8621  0.7008  0.1192
  999TIP3   OH224487   5.328   0.153   0.928 -0.2078  0.4385  0.4606
  999TIP3    H124488   5.267   0.081   0.938 -0.4904  0.6354  0.1588
  999TIP3    H224489   5.274   0.228   0.902  0.4444 -0.0298 -2.6002
 1000TIP3   OH224490   4.149   4.810  13.281  0.1989  0.0655  0.5204
 1000TIP3    H124491   4.154   4.877  13.349 -0.3394 -1.2371  1.9003
 1000TIP3    H224492   4.156   4.727  13.328 -1.9802 -0.9651 -0.7846
 1001TIP3   OH224493   5.687   2.560   0.209 -0.1963 -0.1524  0.0880
 1001TIP3    H124494   5.666   2.533   0.298 -1.1988 -2.3779 -0.7456
 1001TIP3    H224495   5.633   2.637   0.193 -0.7029 -0.2894  1.0832
 1002TIP3   OH224496   5.040   5.469  16.335  0.3783 -0.8401  0.4661
 1002TIP3    H124497   5.043   5.391  16.281 -0.8893  1.4550 -3.2958
 1002TIP3    H224498   5.104   5.529  16.296 -0.6913  1.0187  1.3815
 1003TIP3   OH224499   0.985   5.496   4.397 -0.3652 -0.1942  0.0285
 1003TIP3    H124500   0.980   5.472   4.489 -0.4903 -0.8878 -0.1567
 1003TIP3    H224501   0.921   5.439   4.353  0.1773 -0.3504 -0.5793
 1004TIP3   OH224502   2.511   5.615   0.990 -0.0552 -0.0603 -0.5793
 1004TIP3    H124503   2.524   5.558   1.066 -0.9364  0.0115 -0.3617
 1004TIP3    H224504   2.463   5.561   0.928  1.9355 -0.6047 -1.7101
 1005TIP3   OH224505   2.632   0.927   5.050 -0.1949 -0.3619 -0.0542
 1005TIP3    H124506   2.552   0.874   5.045 -1.1714  0.9770  0.6455
 1005TIP3    H224507   2.610   0.996   5.112  0.2207  2.1954 -2.5804
 1006TIP3   OH224508   5.993   4.033   3.720 -0.0461  0.3273  0.1651
 1006TIP3    H124509   5.899   4.024   3.734 -0.1433 -0.7458 -1.0085
 1006TIP3    H224510   6.029   3.947   3.740  0.5789  0.5129 -0.1343
 1007TIP3   OH224511   2.374   1.764  15.674 -0.5606  0.3437 -0.1517
 1007TIP3    H124512   2.391   1.857  15.666 -1.8735  0.7214  0.9485
 1007TIP3    H224513   2.389   1.745  15.767 -1.6443 -0.2158 -0.0713
 1008TIP3   OH224514   0.696   5.935   4.455  0.9174 -0.2917 -0.2034
 1008TIP3    H124515   0.769   5.879   4.482 -0.9981 -2.4826  0.7252
 1008TIP3    H224516   0.630   5.923   4.523 -1.4383 -0.6793 -2.4145
 1009TIP3   OH224517   0.721   5.516  12.111 -0.1369  0.6585 -0.2973
 1009TIP3    H124518   0.687   5.458  12.044  0.7537 -0.8506  0.4961
 1009TIP3    H224519   0.648   5.527  12.173  0.1418 -0.9608  0.3743
 1010TIP3   OH224520   6.353   3.139  13.382  0.1785 -0.7744  0.3484
 1010TIP3    H124521   6.301   3.123  13.303 -1.1020 -2.6675  1.4814
 1010TIP3    H224522   6.376   3.052  13.414  0.8481 -0.0651  1.9351
 1011TIP3   OH224523   2.004   6.154  16.399  0.3069 -0.1540 -0.1920
 1011TIP3    H124524   2.058   6.100  16.341 -1.2469 -1.0296 -0.9041
 1011TIP3    H224525   1.988   6.234  16.349  1.1205  0.2119  0.1203
 1012TIP3   OH224526   6.183   5.031   5.564 -0.1252  0.0585  0.2996
 1012TIP3    H124527   6.155   4.959   5.507  0.8488  0.5229 -0.7960
 1012TIP3    H224528   6.163   5.000   5.652 -1.8234 -0.6082 -0.2725
 1013TIP3   OH224529   5.219   6.472  16.956  0.1414  0.6397 -0.1194
 1013TIP3    H124530   5.313   6.487  16.969  0.7105 -2.4447 -0.0705
 1013TIP3    H224531   5.181   6.560  16.962  2.9874  2.0123 -0.1483
 1014TIP3   OH224532   1.779   5.943   1.966  0.1442 -0.5540  0.2184
 1014TIP3    H124533   1.843   6.008   1.935 -1.7940  1.1439 -0.4406
 1014TIP3    H224534   1.783   5.873   1.900  1.8745 -0.9254  0.6473
 1015TIP3   OH224535   3.404   2.931  13.507  0.0068 -0.3186 -0.4923
 1015TIP3    H124536   3.347   2.854  13.505 -2.0602  1.0685  0.8744
 1015TIP3    H224537   3.409   2.960  13.416 -0.2703 -1.3005 -0.8324
 1016TIP3   OH224538   5.203   1.958   0.018  0.2432  0.4865 -0.3555
 1016TIP3    H124539   5.156   1.880   0.049 -0.4537  2.0409  2.8269
 1016TIP3    H224540   5.134   2.022   0.001  1.0058  1.8630  1.5516
 1017TIP3   OH224541   4.954   3.752  16.749 -0.8240 -0.3191  0.5824
 1017TIP3    H124542   4.943   3.794  16.664 -3.4698  1.4880  1.6562
 1017TIP3    H224543   5.001   3.817  16.802 -1.5037 -0.3199  1.2046
 1018TIP3   OH224544   3.308   4.877  12.085  0.1167 -0.1078  0.3551
 1018TIP3    H124545   3.311   4.803  12.024 -0.7153 -0.1951  0.4136
 1018TIP3    H224546   3.224   4.919  12.068  0.0265  0.0701  1.2062
 1019TIP3   OH224547   4.962   5.758  15.003  0.2186 -0.1871 -0.6029
 1019TIP3    H124548   4.963   5.761  14.907  1.5011  1.5942 -0.5903
 1019TIP3    H224549   4.915   5.838  15.028 -0.9140 -1.0927  0.2975
 1020TIP3   OH224550   5.664   5.002  15.598 -0.3528 -0.2598 -0.8377
 1020TIP3    H124551   5.596   5.014  15.532 -0.9857 -0.0788 -0.1691
 1020TIP3    H224552   5.615   4.990  15.680  0.4388  0.8391 -0.1904
 1021TIP3   OH224553   1.971   5.754   2.800 -0.4874 -0.2675  0.7107
 1021TIP3    H124554   1.955   5.814   2.873  0.8291  0.5849  0.3260
 1021TIP3    H224555   2.058   5.719   2.815  1.3618  2.5603 -2.1391
 1022TIP3   OH224556   4.965   2.473  10.932 -0.1548 -0.0473 -0.1286
 1022TIP3    H124557   4.934   2.395  10.886 -0.4812  0.4951 -0.8434
 1022TIP3    H224558   5.031   2.511  10.873 -0.9201  0.9146 -0.3828
 1023TIP3   OH224559   4.732   4.304  12.743 -0.1988 -0.0856  0.2850
 1023TIP3    H124560   4.741   4.399  12.751 -1.1050  0.0807 -0.4563
 1023TIP3    H224561   4.657   4.292  12.685  0.2496 -1.2555 -0.0855
 1024TIP3   OH224562   5.419   6.298  11.364  0.3389 -0.0059  0.1531
 1024TIP3    H124563   5.403   6.375  11.419 -1.3991  0.0478 -0.3715
 1024TIP3    H224564   5.335   6.253  11.361  0.8985 -1.0278 -0.9437
 1025TIP3   OH224565   1.459   6.217   5.948 -0.1549 -0.1334  0.0191
 1025TIP3    H124566   1.363   6.218   5.944 -0.2531  1.9344  1.3783
 1025TIP3    H224567   1.479   6.228   6.041  1.4288 -1.0582 -0.1816
 1026TIP3   OH224568   5.296   0.306  17.197  0.5043 -0.1108 -0.1278
 1026TIP3    H124569   5.343   0.384  17.169  0.1307  0.9727  2.0865
 1026TIP3    H224570   5.347   0.272  17.271 -0.2069 -1.0583 -0.0471
 1027TIP3   OH224571   0.129   5.756  14.983 -0.0060 -0.2543 -0.9042
 1027TIP3    H124572   0.077   5.675  14.992  0.4056 -0.4206  0.0659
 1027TIP3    H224573   0.205   5.742  15.039  0.0664  0.8183 -0.7168
 1028TIP3   OH224574   4.916   3.056  12.163  0.2308  0.0558 -0.3322
 1028TIP3    H124575   4.986   3.090  12.107  1.3849  1.1392  1.6673
 1028TIP3    H224576   4.943   2.967  12.183  1.9166  0.9264  1.6270
 1029TIP3   OH224577   5.301   6.236   3.679  0.6344  0.2276 -0.1729
 1029TIP3    H124578   5.355   6.281   3.744  0.9225  0.1470 -0.3528
 1029TIP3    H224579   5.212   6.269   3.694  0.8644  0.9665 -0.3961
 1030TIP3   OH224580   6.718   5.821   0.478 -0.4180 -0.0944 -1.0231
 1030TIP3    H124581   6.813   5.828   0.480 -0.4560  0.5262 -0.9940
 1030TIP3    H224582   6.694   5.852   0.390 -0.7940  3.0346  0.0624
 1031TIP3   OH224583   2.428   1.906  16.754  0.2208 -0.1402  0.3143
 1031TIP3    H124584   2.491   1.899  16.825  1.2466  0.7306 -0.4633
 1031TIP3    H224585   2.467   1.856  16.682  0.2559  0.7494 -0.3098
 1032TIP3   OH224586   5.905   2.963   4.218 -0.4974  0.4869  0.3913
 1032TIP3    H124587   5.928   3.056   4.216  0.2702  0.2816 -0.7873
 1032TIP3    H224588   5.809   2.963   4.226 -0.7714  1.4381 -2.0251
 1033TIP3   OH224589   4.839   4.672  11.343  0.5011 -0.5325  0.2322
 1033TIP3    H124590   4.865   4.762  11.322 -3.2822  0.4413 -1.0259
 1033TIP3    H224591   4.913   4.619  11.314  2.2079  2.0469 -0.4941
 1034TIP3   OH224592   3.889   2.303   0.104  0.4463 -0.5547 -0.5934
 1034TIP3    H124593   3.835   2.232   0.139 -0.4025 -0.5343 -1.8176
 1034TIP3    H224594   3.957   2.258   0.053  1.8082 -0.5941  1.1395
 1035TIP3   OH224595   5.801   4.578   5.162 -0.2353  0.1563 -0.0449
 1035TIP3    H124596   5.770   4.502   5.211 -0.0185  1.1691  1.7606
 1035TIP3    H224597   5.889   4.553   5.134 -0.6282 -0.7082 -0.5413
 1036TIP3   OH224598   2.877   0.480   6.269  0.5063 -0.5413 -0.0891
 1036TIP3    H124599   2.929   0.486   6.349  2.1689 -0.3252 -1.1354
 1036TIP3    H224600   2.817   0.555   6.273  0.9414 -0.2293  0.6967
 1037TIP3   OH224601   5.536   5.344  10.809 -0.1509  0.0819  0.1826
 1037TIP3    H124602   5.477   5.297  10.749 -1.5785  0.1860  1.4345
 1037TIP3    H224603   5.622   5.336  10.769 -0.4439 -2.9190 -0.0983
 1038TIP3   OH224604   3.942   6.124   4.978 -0.0312  0.8495 -0.0696
 1038TIP3    H124605   3.909   6.199   4.930 -0.0504  0.0516 -1.3500
 1038TIP3    H224606   3.973   6.064   4.910 -1.4175 -0.9568  0.8024
 1039TIP3   OH224607   4.612   1.396  14.854  0.4248  0.1263  0.0384
 1039TIP3    H124608   4.570   1.320  14.815  0.7418  0.1104 -0.2856
 1039TIP3    H224609   4.642   1.448  14.779  2.8803 -0.9167  0.2009
 1040TIP3   OH224610   1.875   4.303  12.901  0.1381 -0.2121  0.5940
 1040TIP3    H124611   1.877   4.245  12.825  1.5820  0.8209 -0.2123
 1040TIP3    H224612   1.967   4.314  12.926 -0.2145  0.5002  1.6812
 1041TIP3   OH224613   6.509   4.957  15.232  0.1495  0.3733 -0.7453
 1041TIP3    H124614   6.536   4.894  15.164 -1.0918 -0.4660 -0.4852
 1041TIP3    H224615   6.418   4.978  15.211  0.0822  0.9252  0.0591
 1042TIP3   OH224616   5.103   1.283  14.024  0.5238 -0.2899  0.5899
 1042TIP3    H124617   5.151   1.302  13.943  0.9104  1.6442  1.2086
 1042TIP3    H224618   5.011   1.282  13.998  0.7459 -3.1095 -0.4444
 1043TIP3   OH224619   3.911   4.516   0.284 -0.3184 -0.4927 -0.0187
 1043TIP3    H124620   3.948   4.566   0.211 -0.1536 -1.1446 -0.3849
 1043TIP3    H224621   3.980   4.455   0.308  0.4478  1.0626  2.0426
 1044TIP3   OH224622   6.543   0.459   5.567 -0.9841  0.0592 -0.5177
 1044TIP3    H124623   6.534   0.498   5.654 -0.6016  1.2475 -0.9905
 1044TIP3    H224624   6.634   0.428   5.565 -1.3843 -1.2314 -0.0170
 1045TIP3   OH224625   3.193   2.132   5.819  0.0233  0.5108 -0.0964
 1045TIP3    H124626   3.170   2.186   5.744  1.8839  1.4864 -0.0330
 1045TIP3    H224627   3.145   2.170   5.892  0.4397  1.3821 -0.2675
 1046TIP3   OH224628   1.965   3.957   0.506 -0.1530  0.0157 -0.5104
 1046TIP3    H124629   1.953   3.881   0.448 -0.5804 -0.8052  0.6025
 1046TIP3    H224630   1.885   4.009   0.495 -0.8376 -0.8195  0.2693
 1047TIP3   OH224631   2.950   1.237  17.078 -0.7029  0.2087 -0.2762
 1047TIP3    H124632   3.045   1.229  17.086 -0.7623 -1.0934 -0.5975
 1047TIP3    H224633   2.933   1.225  16.984 -1.1214  1.4456 -0.3818
 1048TIP3   OH224634   1.532   1.160  10.661 -0.0498 -0.0117  0.0259
 1048TIP3    H124635   1.566   1.076  10.692 -1.6026 -0.2498  1.1591
 1048TIP3    H224636   1.447   1.140  10.623  0.0558  0.9024 -0.7451
 1049TIP3   OH224637   2.806   1.228  11.120  0.1868  1.0363 -0.1399
 1049TIP3    H124638   2.791   1.313  11.078  1.1054  1.6727  0.7562
 1049TIP3    H224639   2.900   1.213  11.111  0.0502  0.1689 -0.1699
 1050TIP3   OH224640   0.081   5.847   7.086 -0.0573  0.4324 -0.3257
 1050TIP3    H124641   0.024   5.838   7.010 -0.4718 -0.1353  0.0444
 1050TIP3    H224642   0.161   5.886   7.052 -0.8318  1.6875 -0.7736
 1051TIP3   OH224643   6.000   4.417  16.804 -0.4578  0.1963 -0.2869
 1051TIP3    H124644   6.058   4.422  16.880 -1.0884 -1.7330  0.3600
 1051TIP3    H224645   6.059   4.407  16.729  0.1426  1.6344 -0.0484
 1052TIP3   OH224646   0.133   1.221   1.723 -0.4480 -0.1842 -0.0232
 1052TIP3    H124647   0.082   1.180   1.653  0.3102 -1.4165  0.0992
 1052TIP3    H224648   0.126   1.315   1.706 -0.2583 -0.4411 -1.7758
 1053TIP3   OH224649   4.131   0.731   2.655  0.3891  0.9750 -0.2758
 1053TIP3    H124650   4.098   0.646   2.683  1.5475  0.6217  0.0917
 1053TIP3    H224651   4.167   0.715   2.568  0.5761  1.0957 -0.2214
 1054TIP3   OH224652   0.910   2.151   5.361  0.1167  0.5083  0.6818
 1054TIP3    H124653   0.946   2.237   5.338  0.2171  0.7397  1.6627
 1054TIP3    H224654   0.829   2.171   5.409 -0.4160  0.0257 -0.0045
 1055TIP3   OH224655   2.598   3.603  12.150 -0.3199 -0.5269 -0.0946
 1055TIP3    H124656   2.609   3.627  12.058  1.8375  0.9389  0.4714
 1055TIP3    H224657   2.507   3.574  12.156 -1.6212  2.6032 -1.9982
 1056TIP3   OH224658   2.324   5.006  14.693 -0.1346  0.3456 -0.6686
 1056TIP3    H124659   2.392   4.998  14.760  0.2041 -0.0362 -1.0534
 1056TIP3    H224660   2.346   5.086  14.646  0.8879 -0.5054 -1.7020
 1057TIP3   OH224661   3.261   4.294   1.553 -0.1978 -0.4228  0.1750
 1057TIP3    H124662   3.170   4.321   1.566 -0.3772 -0.7695 -0.3325
 1057TIP3    H224663   3.257   4.198   1.544  0.3770 -0.5981  1.5096
 1058TIP3   OH224664   3.736   2.681  12.640 -0.5419 -0.1277  0.0677
 1058TIP3    H124665   3.648   2.677  12.602 -0.8068  0.1794  0.6478
 1058TIP3    H224666   3.758   2.774  12.639 -0.6229 -0.0980  0.8273
 1059TIP3   OH224667   6.533   3.363  15.673 -0.3152 -0.5500  0.5598
 1059TIP3    H124668   6.548   3.269  15.671  1.1505 -0.3377 -1.3875
 1059TIP3    H224669   6.615   3.401  15.704 -0.4125  0.1401  0.0157
 1060TIP3   OH224670   1.669   2.806   0.184 -0.0274 -0.4012  0.2012
 1060TIP3    H124671   1.730   2.759   0.129  0.4553 -1.1537  1.3410
 1060TIP3    H224672   1.699   2.897   0.182  0.5610 -0.6001  0.0123
 1061TIP3   OH224673   6.015   4.555   2.717 -0.2833 -0.1796 -0.1597
 1061TIP3    H124674   6.056   4.505   2.646  0.0106  1.0425 -0.8902
 1061TIP3    H224675   5.931   4.584   2.681  0.0509  0.8057 -0.1795
 1062TIP3   OH224676   4.614   3.961   5.049 -0.2128 -0.2452 -0.0882
 1062TIP3    H124677   4.686   3.899   5.033  1.4196  1.3734  0.6494
 1062TIP3    H224678   4.554   3.913   5.106 -0.3009 -2.0012 -1.5402
 1063TIP3   OH224679   3.616   3.169  17.138 -0.3561 -0.2815  0.2058
 1063TIP3    H124680   3.553   3.210  17.197  1.2147 -0.7552  2.3465
 1063TIP3    H224681   3.697   3.219  17.151  0.3085 -1.0489 -0.7935
 1064TIP3   OH224682   4.560   2.378   3.777  0.1369  0.2747 -0.2774
 1064TIP3    H124683   4.605   2.431   3.842  0.8551  0.0423 -0.5722
 1064TIP3    H224684   4.569   2.427   3.695  0.2885 -0.0101 -0.4342
 1065TIP3   OH224685   1.976   0.141  15.385 -0.1889 -0.2030 -0.2501
 1065TIP3    H124686   2.001   0.142  15.292  0.3778 -0.8406 -0.1177
 1065TIP3    H224687   1.907   0.206  15.392  0.5134  0.6480 -0.9141
 1066TIP3   OH224688   4.907   1.498   0.268 -0.1175  0.2719 -0.3115
 1066TIP3    H124689   4.838   1.463   0.325  0.1355 -0.2237 -0.2989
 1066TIP3    H224690   4.885   1.465   0.181  0.4125 -0.3857 -0.2131
 1067TIP3   OH224691   5.633   0.833   0.851 -0.1791 -0.1945 -0.0695
 1067TIP3    H124692   5.570   0.777   0.896  0.8907 -2.3506 -1.1059
 1067TIP3    H224693   5.648   0.906   0.911 -2.8559 -0.1184  0.6207
 1068TIP3   OH224694   3.051   3.018   2.514  0.0855 -0.4272 -0.3912
 1068TIP3    H124695   2.966   3.014   2.470  0.2326 -1.4413 -0.6051
 1068TIP3    H224696   3.059   3.109   2.541 -1.7519 -0.6324  1.0131
 1069TIP3   OH224697   2.636   0.240  12.964  0.3377  0.0768 -0.2751
 1069TIP3    H124698   2.718   0.273  12.927 -0.1185 -0.4680 -1.8908
 1069TIP3    H224699   2.570   0.262  12.897 -0.5753 -0.8084  0.3092
 1070TIP3   OH224700   5.163   2.722   3.984 -0.1670  0.5697  0.1973
 1070TIP3    H124701   5.080   2.710   4.029  1.2890  1.1703  3.3434
 1070TIP3    H224702   5.168   2.817   3.968 -0.6318  0.3709 -1.1993
 1071TIP3   OH224703   1.644   6.027   5.165  0.2787 -0.2145 -0.4208
 1071TIP3    H124704   1.729   5.985   5.153  1.3138  1.0429  1.7701
 1071TIP3    H224705   1.640   6.093   5.096  0.6733 -0.8877 -1.0981
 1072TIP3   OH224706   0.131   3.531   5.118 -0.3567  0.0111 -0.1323
 1072TIP3    H124707   0.181   3.584   5.057  1.7648 -1.2241  0.4353
 1072TIP3    H224708   0.124   3.445   5.076  2.4969 -1.3508  1.8389
 1073TIP3   OH224709   6.485   3.731  13.059 -0.4205 -0.5132 -0.5363
 1073TIP3    H124710   6.398   3.722  13.099  0.4897 -1.0901  1.4108
 1073TIP3    H224711   6.521   3.642  13.058  0.1623 -0.2844 -1.3720
 1074TIP3   OH224712   3.963   4.605  14.349 -0.2963  0.0347 -0.4618
 1074TIP3    H124713   3.967   4.586  14.256 -2.6801 -0.9331 -0.4400
 1074TIP3    H224714   4.053   4.599  14.379  0.4286 -0.3222 -2.5577
 1075TIP3   OH224715   1.415   4.518  16.716  0.1994 -0.2171  0.6154
 1075TIP3    H124716   1.373   4.470  16.787 -1.3374 -0.3244 -0.3183
 1075TIP3    H224717   1.443   4.600  16.756 -2.0329  0.4040  1.0479
 1076TIP3   OH224718   0.297   6.456  14.604 -0.5038  0.4930  0.0814
 1076TIP3    H124719   0.227   6.521  14.606  0.5496  1.8157 -1.9814
 1076TIP3    H224720   0.347   6.478  14.526  2.4180 -0.1993  1.6225
 1077TIP3   OH224721   1.181   4.838  15.280 -0.3906  0.4043 -0.7607
 1077TIP3    H124722   1.118   4.899  15.317  0.9386  0.6326  1.2490
 1077TIP3    H224723   1.266   4.878  15.296  0.4753 -1.6056 -0.0371
 1078TIP3   OH224724   3.618   2.739  11.405 -0.0170  0.3268 -0.2053
 1078TIP3    H124725   3.687   2.710  11.465  2.2129 -1.2535 -3.2150
 1078TIP3    H224726   3.628   2.834  11.401 -1.3958  0.7473  3.0310
 1079TIP3   OH224727   4.536   2.860  11.074 -0.3174 -0.1096 -0.6250
 1079TIP3    H124728   4.513   2.933  11.016  0.5642  1.0531  0.4240
 1079TIP3    H224729   4.624   2.834  11.045 -0.4201 -0.4195 -0.6626
 1080TIP3   OH224730   1.834   0.991   4.624 -0.1776 -0.6216  0.1619
 1080TIP3    H124731   1.913   0.948   4.594  0.0044 -0.7096  0.7425
 1080TIP3    H224732   1.823   0.960   4.714 -0.2986  0.1710  0.4316
 1081TIP3   OH224733   1.954   1.104   6.060 -0.2896  0.5148  0.0120
 1081TIP3    H124734   2.014   1.132   6.129 -0.9087  2.5006 -0.1928
 1081TIP3    H224735   1.960   1.008   6.060  1.0654  0.5606  1.5898
 1082TIP3   OH224736   5.583   3.585   0.750 -0.0093 -0.5701 -0.0328
 1082TIP3    H124737   5.535   3.607   0.829 -1.5908  0.3922 -1.1980
 1082TIP3    H224738   5.517   3.546   0.692  0.6662  0.4359 -1.5504
 1083TIP3   OH224739   1.827   2.239   1.144  0.0546  0.4033 -0.5021
 1083TIP3    H124740   1.910   2.281   1.166  0.2742 -0.1170 -0.3147
 1083TIP3    H224741   1.828   2.156   1.193 -0.4934  0.3106 -0.6391
 1084TIP3   OH224742   4.562   0.573  15.193  0.3141  0.2702  0.2382
 1084TIP3    H124743   4.524   0.567  15.105 -2.0401  1.0025  1.1140
 1084TIP3    H224744   4.633   0.636  15.184  1.2336 -0.9138 -1.4421
 1085TIP3   OH224745   2.131   6.327  16.087  0.4072 -0.2653  0.2349
 1085TIP3    H124746   2.196   6.277  16.037  2.5406  1.1794  1.4137
 1085TIP3    H224747   2.118   6.407  16.036  0.0254 -0.2690  0.3255
 1086TIP3   OH224748   5.568   5.912   6.685  0.7498 -0.4241 -0.6022
 1086TIP3    H124749   5.623   5.837   6.663 -0.3524 -1.9575  1.5534
 1086TIP3    H224750   5.601   5.941   6.770 -0.9002 -0.5570  0.1090
 1087TIP3   OH224751   4.766   6.159  16.259 -0.1380  0.4151  0.2940
 1087TIP3    H124752   4.804   6.171  16.172 -1.5544 -0.9406 -0.5650
 1087TIP3    H224753   4.682   6.116  16.243 -0.2596 -0.2489  2.3605
 1088TIP3   OH224754   1.695   5.242  17.229  0.3810 -0.0137  0.1683
 1088TIP3    H124755   1.734   5.196  17.303  1.7716  2.9772  1.4837
 1088TIP3    H224756   1.608   5.268  17.259 -0.6900 -2.1794 -0.8294
 1089TIP3   OH224757   4.666   6.622  16.053 -0.1003 -0.2800 -0.2926
 1089TIP3    H124758   4.639   6.568  15.978 -1.0963  1.3755 -1.1787
 1089TIP3    H224759   4.646   6.568  16.129  0.9937 -2.0396 -1.1694
 1090TIP3   OH224760   0.613   4.142   1.309  0.6451 -0.2047 -0.5772
 1090TIP3    H124761   0.670   4.103   1.243 -1.6117 -1.8680 -1.6779
 1090TIP3    H224762   0.527   4.145   1.268 -0.2745  1.4948  1.2779
 1091TIP3   OH224763   4.520   3.595  11.537  0.5620 -0.4637 -0.3849
 1091TIP3    H124764   4.568   3.652  11.598  1.7645 -0.5932 -1.1845
 1091TIP3    H224765   4.561   3.509  11.547  1.0809 -0.3914 -1.6706
 1092TIP3   OH224766   2.621   3.382  14.667  0.3848  0.2279 -0.4355
 1092TIP3    H124767   2.579   3.442  14.728  0.3546  0.8336 -1.0391
 1092TIP3    H224768   2.635   3.434  14.587 -0.2766 -0.7497 -1.2117
 1093TIP3   OH224769   4.569   0.212  10.957  0.0167 -0.0390  0.4762
 1093TIP3    H124770   4.531   0.219  10.870  2.8708 -0.6338 -0.9425
 1093TIP3    H224771   4.533   0.130  10.992 -0.2547 -0.4220 -0.6553
 1094TIP3   OH224772   4.460   0.429   5.216 -0.3670  0.3958 -0.1110
 1094TIP3    H124773   4.553   0.416   5.199 -0.4833  0.9963 -1.2738
 1094TIP3    H224774   4.426   0.342   5.237  0.7090  0.3703  1.7285
 1095TIP3   OH224775   0.911   1.427  10.955 -0.5224 -0.3811 -0.4227
 1095TIP3    H124776   0.920   1.335  10.979 -0.8890 -0.2557  0.2163
 1095TIP3    H224777   0.874   1.425  10.866 -1.5828 -0.8621  0.0133
 1096TIP3   OH224778   5.021   2.532  12.312  0.3434 -0.0318 -0.3338
 1096TIP3    H124779   5.007   2.492  12.397  0.5635 -2.8405 -1.5259
 1096TIP3    H224780   5.114   2.555  12.312  0.1913  0.6396  0.4077
 1097TIP3   OH224781   2.450   4.230  13.403 -0.6270 -0.5978  0.5342
 1097TIP3    H124782   2.382   4.296  13.392 -1.3802 -1.2052  1.3127
 1097TIP3    H224783   2.421   4.157  13.348 -0.7777 -0.9690  1.0893
 1098TIP3   OH224784   1.521   1.891  16.084 -0.0162  0.1278  0.4235
 1098TIP3    H124785   1.569   1.829  16.028  0.2518 -0.5204  1.3518
 1098TIP3    H224786   1.445   1.916  16.032  0.5230 -0.0273 -0.4558
 1099TIP3   OH224787   3.075   3.878  13.475 -0.0582  0.3576  0.5943
 1099TIP3    H124788   3.110   3.918  13.395  1.5762  1.3901  1.7781
 1099TIP3    H224789   3.018   3.946  13.512 -2.1474 -0.7110 -0.4595
 1100TIP3   OH224790   0.404   3.971  14.644  0.7131  0.3294  0.1788
 1100TIP3    H124791   0.464   3.904  14.611  0.6380  0.5352 -0.3724
 1100TIP3    H224792   0.336   3.921  14.690  2.0805  0.1473  2.1225
 1101TIP3   OH224793   6.060   5.284  14.789  0.4016  0.2448  0.7030
 1101TIP3    H124794   6.095   5.362  14.745  1.6651 -0.8410 -0.2938
 1101TIP3    H224795   6.134   5.251  14.840  0.8493 -1.9185 -1.1951
 1102TIP3   OH224796   0.805   1.785   4.721  0.2090  0.2488 -0.3150
 1102TIP3    H124797   0.866   1.855   4.746 -0.7439  0.5944  1.1569
 1102TIP3    H224798   0.860   1.707   4.715  0.7215  0.3794  1.8149
 1103TIP3   OH224799   6.816   5.457   3.501  0.6826 -0.4367 -0.3808
 1103TIP3    H124800   6.759   5.454   3.424 -1.8783  0.4239  1.3788
 1103TIP3    H224801   6.787   5.385   3.555  0.0101  1.0594  1.3420
 1104TIP3   OH224802   3.120   4.105  13.939  0.0402  0.0915  0.4282
 1104TIP3    H124803   3.106   4.194  13.970  0.7103  0.3162  0.1104
 1104TIP3    H224804   3.136   4.054  14.019 -0.2797  0.2626  0.6046
 1105TIP3   OH224805   3.385   4.457   4.087 -0.1362 -0.1483 -0.0839
 1105TIP3    H124806   3.293   4.467   4.062 -0.1574  0.1517  0.1055
 1105TIP3    H224807   3.424   4.543   4.072 -0.3329  0.2787  1.6118
 1106TIP3   OH224808   3.124   5.325  13.100  0.1836  0.3339 -0.0880
 1106TIP3    H124809   3.189   5.334  13.030 -1.6404  0.5893 -1.8454
 1106TIP3    H224810   3.161   5.375  13.173  2.5718 -0.6760 -0.5132
 1107TIP3   OH224811   6.628   2.151  16.409 -0.2000  0.1286 -0.6351
 1107TIP3    H124812   6.723   2.162  16.411 -0.3432  1.5804 -0.7993
 1107TIP3    H224813   6.603   2.149  16.501  0.0602 -1.0690 -0.5805
 1108TIP3   OH224814   5.701   3.247  15.332 -0.9823  0.0341 -0.1535
 1108TIP3    H124815   5.626   3.265  15.388 -1.3517  1.3017 -1.0011
 1108TIP3    H224816   5.777   3.259  15.389 -1.3205  1.9987 -0.0445
 1109TIP3   OH224817   6.584   2.475   3.248 -0.6311 -0.1851  0.4679
 1109TIP3    H124818   6.666   2.452   3.291  1.4878 -0.2141 -3.1589
 1109TIP3    H224819   6.582   2.571   3.249 -0.6675 -0.1882  0.7312
 1110TIP3   OH224820   3.669   4.362  15.677  0.2664  0.0031  0.5245
 1110TIP3    H124821   3.591   4.310  15.658  0.7996 -0.3610 -0.8339
 1110TIP3    H224822   3.664   4.380  15.771 -1.7502  0.4861  0.3900
 1111TIP3   OH224823   4.214   5.892  15.433 -0.0918 -0.0205 -0.2836
 1111TIP3    H124824   4.297   5.868  15.391  1.3475  2.1945  1.0994
 1111TIP3    H224825   4.215   5.846  15.517 -1.0909 -1.2630 -0.9090
 1112TIP3   OH224826   1.619   1.165   4.633 -0.1071  0.3442  0.1423
 1112TIP3    H124827   1.544   1.107   4.620  0.0105  0.1729  0.2191
 1112TIP3    H224828   1.696   1.111   4.614  0.0455  0.2196  1.0395
 1113TIP3   OH224829   0.543   5.334  11.927 -0.7206 -0.2727 -0.0592
 1113TIP3    H124830   0.534   5.411  11.870 -1.0779  0.3968  0.8849
 1113TIP3    H224831   0.453   5.306  11.942 -0.8302  1.0592  2.1654
 1114TIP3   OH224832   3.848   1.333  12.010 -0.0687  0.0185 -0.3239
 1114TIP3    H124833   3.937   1.334  11.976  0.5501  2.3772  1.1899
 1114TIP3    H224834   3.832   1.423  12.039 -2.8082 -0.4352 -0.1770
 1115TIP3   OH224835   0.529   2.035   5.868 -0.1338 -0.0458 -0.7117
 1115TIP3    H124836   0.584   2.061   5.793  0.1977  0.6190 -0.2504
 1115TIP3    H224837   0.555   1.945   5.886  0.7575  0.2233 -0.5675
 1116TIP3   OH224838   4.424   1.127  10.883  0.6385 -0.0365  0.0175
 1116TIP3    H124839   4.375   1.178  10.948  0.2730  0.3147 -0.5287
 1116TIP3    H224840   4.358   1.101  10.818  1.3349  1.2856 -1.2595
 1117TIP3   OH224841   6.380   0.878  17.065  0.2316 -0.1045 -0.0968
 1117TIP3    H124842   6.344   0.910  16.982  2.5458  0.7765 -0.8506
 1117TIP3    H224843   6.339   0.793  17.078 -1.8347  0.6802 -0.9852
 1118TIP3   OH224844   4.402   0.810  11.294  0.0463  0.0063  0.7095
 1118TIP3    H124845   4.306   0.808  11.296  0.0226 -0.6198 -0.4147
 1118TIP3    H224846   4.427   0.718  11.282  0.7985  0.1500  1.1316
 1119TIP3   OH224847   1.941   3.469  12.101 -0.1269 -0.4700  0.2465
 1119TIP3    H124848   1.882   3.490  12.173 -0.5138 -0.6511 -0.0145
 1119TIP3    H224849   2.012   3.533  12.108 -1.3854  1.1203 -0.6772
 1120TIP3   OH224850   5.637   6.030   6.426  0.1713 -0.1915 -0.0674
 1120TIP3    H124851   5.699   5.957   6.423  2.4465  1.5462  1.1872
 1120TIP3    H224852   5.577   6.007   6.497  1.6890 -0.2775  1.2324
 1121TIP3   OH224853   4.425   6.144  17.040  0.5399 -0.2028 -0.4226
 1121TIP3    H124854   4.516   6.147  17.068  0.5612  0.5416 -0.5405
 1121TIP3    H224855   4.423   6.082  16.967  0.5167 -2.0505  1.0718
 1122TIP3   OH224856   5.329   0.692   5.947 -0.0878 -0.1072 -0.4113
 1122TIP3    H124857   5.353   0.739   6.027 -0.4108  1.4557 -1.1867
 1122TIP3    H224858   5.406   0.638   5.926  0.4837  0.4364  0.2576
 1123TIP3   OH224859   4.432   2.703  15.036  0.5278  0.7035  0.5436
 1123TIP3    H124860   4.509   2.686  15.091  0.0655  1.4288  1.4370
 1123TIP3    H224861   4.453   2.783  14.989 -0.0005  1.3762  1.4232
 1124TIP3   OH224862   5.490   6.050  15.700  0.4850 -0.0319 -0.0073
 1124TIP3    H124863   5.573   6.026  15.660  1.1638  1.8479  0.1622
 1124TIP3    H224864   5.513   6.080  15.788 -0.1539  1.7110 -0.3875
 1125TIP3   OH224865   4.058   5.289  11.506  0.0180  0.0398 -0.2173
 1125TIP3    H124866   4.036   5.250  11.421 -2.7922  1.9464 -0.5438
 1125TIP3    H224867   4.089   5.377  11.484  1.8215 -0.3469  0.6588
 1126TIP3   OH224868   4.576   5.719   0.744  0.2517  0.3987 -0.0791
 1126TIP3    H124869   4.542   5.796   0.790 -2.6885 -0.5032 -0.5435
 1126TIP3    H224870   4.538   5.725   0.656  0.7837 -1.0741 -0.4347
 1127TIP3   OH224871   5.410   4.402  16.844 -0.1392 -0.5943  0.6140
 1127TIP3    H124872   5.505   4.391  16.848 -0.1847 -1.7277 -0.6472
 1127TIP3    H224873   5.381   4.333  16.785 -1.4991  1.1199 -0.8189
 1128TIP3   OH224874   1.435   3.357   1.147  0.0264  0.5519 -0.3015
 1128TIP3    H124875   1.468   3.444   1.170 -0.8576  0.5094  1.3152
 1128TIP3    H224876   1.450   3.349   1.053 -0.0834  2.5522 -0.5319
 1129TIP3   OH224877   5.047   2.566   1.355 -0.1363  0.3678  1.3430
 1129TIP3    H124878   5.024   2.558   1.448 -2.1747  2.0868  1.0500
 1129TIP3    H224879   5.139   2.541   1.352 -0.2080 -0.4774  3.6995
 1130TIP3   OH224880   4.844   4.679   1.087 -0.3486 -0.0465  0.1740
 1130TIP3    H124881   4.764   4.677   1.140  1.3125 -0.6504  2.7918
 1130TIP3    H224882   4.853   4.590   1.053  1.1003 -1.0956  3.0170
 1131TIP3   OH224883   6.551   0.257   1.535 -0.3380 -0.3758 -0.1377
 1131TIP3    H124884   6.511   0.183   1.580 -1.9778  0.3049 -0.4117
 1131TIP3    H224885   6.560   0.227   1.444  0.2420 -0.7010  0.0222
 1132TIP3   OH224886   4.086   4.956   5.367 -0.5395  0.3491  0.5116
 1132TIP3    H124887   4.159   4.901   5.395 -0.3601  1.1224  1.6444
 1132TIP3    H224888   4.122   5.011   5.298 -0.0057  0.8156  1.1527
 1133TIP3   OH224889   6.455   0.506   5.929  0.4296 -0.9232 -0.0101
 1133TIP3    H124890   6.417   0.484   6.014  0.6052 -1.9699 -0.1885
 1133TIP3    H224891   6.441   0.600   5.920  2.3982 -0.3072  2.1855
 1134TIP3   OH224892   0.176   3.961   2.972  0.5111 -0.5983  0.2793
 1134TIP3    H124893   0.221   3.876   2.970 -0.6056 -1.1842 -0.7021
 1134TIP3    H224894   0.170   3.987   2.880  1.0307  0.6645  0.5838
 1135TIP3   OH224895   5.779   6.220   1.673 -0.0710  0.1753 -0.5422
 1135TIP3    H124896   5.710   6.172   1.719 -1.0610  0.3124 -1.8425
 1135TIP3    H224897   5.776   6.308   1.711  0.3723 -0.1930  0.3978
 1136TIP3   OH224898   0.194   3.981   4.342  0.2539  0.2847  0.2264
 1136TIP3    H124899   0.145   4.046   4.292 -1.2026 -1.8243 -1.3226
 1136TIP3    H224900   0.168   3.996   4.433 -0.5015  1.4807 -0.1597
 1137TIP3   OH224901   0.996   5.785   6.515 -0.3255  0.1200  0.3542
 1137TIP3    H124902   1.067   5.737   6.557  0.2202 -0.7526 -1.4874
 1137TIP3    H224903   0.916   5.747   6.552  0.1054 -2.0115 -0.7742
 1138TIP3   OH224904   2.635   2.556   5.105  0.1984 -0.4195  0.5191
 1138TIP3    H124905   2.727   2.530   5.110  0.2466 -0.1409  1.2134
 1138TIP3    H224906   2.628   2.607   5.025  1.4103  2.4738  2.0940
 1139TIP3   OH224907   5.932   3.766   0.511 -0.0783 -0.3906 -0.3759
 1139TIP3    H124908   5.998   3.835   0.518 -0.6518  0.4032 -2.2079
 1139TIP3    H224909   5.970   3.692   0.557  0.2994  1.2914  2.2266
 1140TIP3   OH224910   1.324   5.083  14.810 -0.3729  0.3116 -0.1124
 1140TIP3    H124911   1.373   5.163  14.830 -0.1217 -0.3101  1.9355
 1140TIP3    H224912   1.240   5.095  14.853  0.0037 -0.8711  1.0199
 1141TIP3   OH224913   4.863   3.257  13.243 -0.1270 -0.6361 -0.0893
 1141TIP3    H124914   4.921   3.182  13.240  0.1075 -0.4429 -0.3928
 1141TIP3    H224915   4.777   3.220  13.263  0.2017 -0.8634  0.9540
 1142TIP3   OH224916   0.289   5.268  10.563  0.0752  0.5910 -0.3632
 1142TIP3    H124917   0.197   5.253  10.584 -0.4148  1.6037 -1.6705
 1142TIP3    H224918   0.317   5.188  10.521 -0.1894  0.2655  0.0642
 1143TIP3   OH224919   5.155   0.606   1.754 -0.4253 -0.1316  0.1751
 1143TIP3    H124920   5.121   0.694   1.770 -0.8235  0.3875 -2.8549
 1143TIP3    H224921   5.077   0.551   1.743 -0.2508 -0.2360 -0.6746
 1144TIP3   OH224922   3.765   2.047   1.492  0.3393  0.6335  0.4004
 1144TIP3    H124923   3.762   1.951   1.482  0.8885  0.7899 -1.9065
 1144TIP3    H224924   3.808   2.061   1.576 -1.2397 -1.1321  1.5962
 1145TIP3   OH224925   4.111   4.664  11.622 -0.3792  0.1365 -0.2449
 1145TIP3    H124926   4.151   4.738  11.667 -1.3999 -0.4751  1.8255
 1145TIP3    H224927   4.028   4.650  11.669  0.2681 -2.9743  0.2156
 1146TIP3   OH224928   2.745   5.360  11.033  0.0596 -0.0283 -0.1444
 1146TIP3    H124929   2.799   5.281  11.039 -0.2052 -0.2204 -0.2546
 1146TIP3    H224930   2.655   5.327  11.030  0.0249  0.1152 -2.7121
 1147TIP3   OH224931   5.163   2.562  14.848 -0.0962  0.4427 -0.1689
 1147TIP3    H124932   5.242   2.583  14.899  0.0249  0.7301 -0.4766
 1147TIP3    H224933   5.123   2.490  14.897 -0.8216  1.7365  1.2251
 1148TIP3   OH224934   3.351   0.099  11.546 -0.0093  0.3548 -0.3820
 1148TIP3    H124935   3.303   0.129  11.623  0.7597 -0.6133  0.5101
 1148TIP3    H224936   3.442   0.124  11.563  0.3108 -0.6304 -0.5618
 1149TIP3   OH224937   3.107   0.928  16.449  0.3982 -0.1357  0.5533
 1149TIP3    H124938   3.129   0.858  16.387  0.7479 -0.7265  1.3283
 1149TIP3    H224939   3.159   1.003  16.420  0.1275 -0.2289 -0.2031
 1150TIP3   OH224940   0.533   6.327  14.383  0.3101 -0.1507  0.3648
 1150TIP3    H124941   0.585   6.386  14.437 -0.3659  0.1830  0.6674
 1150TIP3    H224942   0.596   6.285  14.325  0.9791 -0.1297  1.0662
 1151TIP3   OH224943   2.174   2.872  10.756 -0.3428  0.1009  0.3012
 1151TIP3    H124944   2.149   2.948  10.703  0.8549  0.0542 -0.3628
 1151TIP3    H224945   2.133   2.888  10.841 -1.9137  0.4051 -0.4723
 1152TIP3   OH224946   2.530   1.675  12.942  0.2188 -0.0305 -0.3400
 1152TIP3    H124947   2.585   1.726  12.882 -0.7781 -0.5283 -1.7084
 1152TIP3    H224948   2.484   1.741  12.994  0.3877  0.4232 -0.7647
 1153TIP3   OH224949   0.822   4.043   1.980  0.3516 -0.4438 -0.6579
 1153TIP3    H124950   0.793   4.129   1.949 -1.7367  0.3796  2.9766
 1153TIP3    H224951   0.741   3.999   2.006  1.6347 -2.1752  0.6140
 1154TIP3   OH224952   5.280   1.938  13.313  0.2032  0.4583 -0.9088
 1154TIP3    H124953   5.320   2.015  13.352 -0.7154  0.5863 -0.1697
 1154TIP3    H224954   5.345   1.869  13.324 -0.4501  0.1527  2.0957
 1155TIP3   OH224955   6.161   2.883   3.677 -0.2137  0.0960  0.1777
 1155TIP3    H124956   6.249   2.868   3.713  0.0969  2.4130  0.5248
 1155TIP3    H224957   6.115   2.932   3.746 -1.1547  0.5417 -0.7465
 1156TIP3   OH224958   3.236   4.954   3.297  0.2502  0.7925  0.1109
 1156TIP3    H124959   3.297   4.943   3.224  1.4650 -0.5629  1.2699
 1156TIP3    H224960   3.291   4.978   3.371 -0.1146 -2.9093  1.8094
 1157TIP3   OH224961   1.216   1.196  15.950 -0.3348  0.2170  0.1482
 1157TIP3    H124962   1.251   1.227  15.866  1.5546 -1.6516  0.1601
 1157TIP3    H224963   1.225   1.100  15.946  0.8960  0.1353  2.9080
 1158TIP3   OH224964   4.466   4.155   2.295 -0.8181 -0.7887 -0.0985
 1158TIP3    H124965   4.518   4.183   2.370 -0.1169  1.5750 -1.3881
 1158TIP3    H224966   4.388   4.211   2.296 -0.8433 -0.7817 -1.0637
 1159TIP3   OH224967   0.627   1.049   0.977  0.1391  0.1121 -0.6169
 1159TIP3    H124968   0.656   0.964   1.010 -0.5609  0.0832 -0.0790
 1159TIP3    H224969   0.546   1.068   1.023  0.6301  1.3994 -0.2214
 1160TIP3   OH224970   5.161   2.356   4.502 -0.3266 -0.7830  0.0486
 1160TIP3    H124971   5.233   2.370   4.564 -0.4220 -1.8645  0.4273
 1160TIP3    H224972   5.186   2.277   4.454 -0.4393 -0.1842 -1.0476
 1161TIP3   OH224973   2.674   1.907  12.504 -0.1267 -0.2689 -0.4899
 1161TIP3    H124974   2.689   1.840  12.437  0.8810 -0.2027 -0.3438
 1161TIP3    H224975   2.597   1.876  12.552 -0.0019 -1.0480 -0.7742
 1162TIP3   OH224976   2.624   0.044   5.465 -0.4433 -0.5431 -0.1153
 1162TIP3    H124977   2.663   0.120   5.424  1.6081 -1.9467 -0.9358
 1162TIP3    H224978   2.580  -0.002   5.394 -0.3773 -0.8944  0.0687
 1163TIP3   OH224979   0.521   6.464  13.393  0.0187 -0.0547 -0.0959
 1163TIP3    H124980   0.544   6.537  13.336 -2.2411  1.0664  0.2929
 1163TIP3    H224981   0.468   6.407  13.338  0.7960 -0.8216 -0.0662
 1164TIP3   OH224982   6.286   6.548  17.190 -0.2619  0.1819 -0.3134
 1164TIP3    H124983   6.237   6.583  17.264  2.0490  0.5125  1.1806
 1164TIP3    H224984   6.277   6.453  17.199  1.3161  0.1230  1.5000
 1165TIP3   OH224985   3.180   4.817  12.649 -0.0819 -0.1764  0.0886
 1165TIP3    H124986   3.142   4.846  12.731 -2.2946 -1.4257 -0.4345
 1165TIP3    H224987   3.251   4.880  12.632  0.0152  0.4718  2.5839
 1166TIP3   OH224988   0.442   5.273  14.293 -0.5364 -0.1035 -0.6452
 1166TIP3    H124989   0.526   5.276  14.247 -0.4610 -0.3984 -0.5307
 1166TIP3    H224990   0.436   5.183  14.326 -0.4916  0.1633  0.1046
 1167TIP3   OH224991   0.056   1.616  14.353 -0.0156  0.4398  0.0777
 1167TIP3    H124992  -0.002   1.693  14.352 -1.8280 -0.8594 -0.4346
 1167TIP3    H224993   0.099   1.617  14.268 -2.0505 -0.4933 -1.0381
 1168TIP3   OH224994   0.685   4.028  12.708  0.0345  0.1247  0.0946
 1168TIP3    H124995   0.593   4.021  12.730  0.3861 -2.1689  1.1086
 1168TIP3    H224996   0.697   3.970  12.633  0.4965  1.2251 -0.7246
 1169TIP3   OH224997   0.228   3.764  16.317  0.5787 -0.2314  0.0143
 1169TIP3    H124998   0.150   3.772  16.372 -0.5943  0.1103 -1.6391
 1169TIP3    H224999   0.194   3.761  16.228  2.5158  0.9005 -0.8139
 1170TIP3   OH225000   4.280   4.648  11.403  0.4219 -0.3538 -0.9881
 1170TIP3    H125001   4.224   4.694  11.340 -0.2059  0.5248  0.1521
 1170TIP3    H225002   4.237   4.663  11.488  1.9323 -0.3717 -0.1771
 1171TIP3   OH225003   6.052   6.470  15.061  0.4937 -0.2838 -0.4016
 1171TIP3    H125004   5.968   6.447  15.100  0.1947 -0.1013 -0.9378
 1171TIP3    H225005   6.031   6.536  14.995  1.1781  0.5834  0.2223
 1172TIP3   OH225006   5.966   5.620  16.538 -0.0016 -0.3933 -0.0247
 1172TIP3    H125007   5.924   5.705  16.525 -1.0201 -1.2493 -3.0049
 1172TIP3    H225008   6.060   5.639  16.531 -0.2350  0.4491 -1.1081
 1173TIP3   OH225009   4.364   3.400   1.243  0.2402  0.2235  0.6258
 1173TIP3    H125010   4.373   3.309   1.217 -0.6867 -0.1074  1.4308
 1173TIP3    H225011   4.408   3.449   1.173 -0.2102 -0.7684 -0.3880
 1174TIP3   OH225012   5.387   6.363  13.818 -0.3082  0.9622 -0.5642
 1174TIP3    H125013   5.449   6.384  13.748 -0.6842  1.1058 -0.8593
 1174TIP3    H225014   5.356   6.275  13.797 -0.2546  0.9159 -0.4517
 1175TIP3   OH225015   0.160   2.911  13.420 -0.0920  0.0714 -0.2698
 1175TIP3    H125016   0.181   3.003  13.402 -1.8307  0.2853 -1.4412
 1175TIP3    H225017   0.239   2.876  13.462 -0.1018  2.6048  2.1368
 1176TIP3   OH225018   2.907   4.497  15.977  0.2743  0.2616 -0.7441
 1176TIP3    H125019   2.991   4.459  16.002 -0.1224 -0.9155 -1.1567
 1176TIP3    H225020   2.920   4.591  15.988  1.3908  0.0482 -0.0453
 1177TIP3   OH225021   0.603   5.725   1.074  0.2498 -0.0782 -0.3488
 1177TIP3    H125022   0.688   5.769   1.070 -0.1888  0.7384 -1.4664
 1177TIP3    H225023   0.622   5.632   1.062  1.2574 -0.3587  2.5657
 1178TIP3   OH225024   1.971   3.382   1.052  0.1721  0.1993 -0.0833
 1178TIP3    H125025   2.038   3.424   1.106  2.1483 -2.0984 -0.5716
 1178TIP3    H225026   1.892   3.385   1.106  1.4278  0.2778  1.8740
 1179TIP3   OH225027   5.225   4.865  11.814 -0.0247 -0.1672 -0.0996
 1179TIP3    H125028   5.180   4.929  11.869  0.3348 -0.8124  0.9694
 1179TIP3    H225029   5.268   4.917  11.746  0.1399  0.7110  0.6694
 1180TIP3   OH225030   6.651   5.035   1.158  0.0543  0.0438 -0.3470
 1180TIP3    H125031   6.640   5.101   1.090  0.6361 -0.9144 -1.4266
 1180TIP3    H225032   6.709   4.970   1.118 -0.6471 -1.2083  0.6020
 1181TIP3   OH225033   4.532   6.644  14.939  0.3735 -0.1754  0.2007
 1181TIP3    H125034   4.571   6.645  15.026 -1.0386 -0.1952  0.8705
 1181TIP3    H225035   4.444   6.607  14.952 -0.0173  0.1934 -1.1544
 1182TIP3   OH225036   6.421   2.282   3.346 -0.1808 -0.0023  0.2794
 1182TIP3    H125037   6.474   2.345   3.297  0.2186 -0.2944  0.3304
 1182TIP3    H225038   6.357   2.250   3.283  0.8676 -1.0139 -0.3053
 1183TIP3   OH225039   0.164   0.393  13.428 -0.1319  0.6436 -0.2959
 1183TIP3    H125040   0.112   0.319  13.461  1.3398 -0.4665 -0.3553
 1183TIP3    H225041   0.193   0.365  13.341 -1.0891  2.1031 -1.1198
 1184TIP3   OH225042   0.430   5.860  16.877 -0.2676  0.4387 -0.1262
 1184TIP3    H125043   0.348   5.868  16.927 -0.0907 -0.9294  0.4338
 1184TIP3    H225044   0.401   5.841  16.788 -0.5629 -0.0747  0.0767
 1185TIP3   OH225045   4.792   2.466  15.812  1.0637  0.0846 -0.4855
 1185TIP3    H125046   4.732   2.477  15.738  1.6322  4.4423 -0.5562
 1185TIP3    H225047   4.879   2.480  15.774  1.3884  2.0978  0.8503
 1186TIP3   OH225048   5.057   5.185  12.248 -0.3764  0.3556  0.7921
 1186TIP3    H125049   4.967   5.211  12.229 -1.5006 -2.3483  1.9387
 1186TIP3    H225050   5.084   5.134  12.171 -0.5423 -0.4190  1.2343
 1187TIP3   OH225051   3.018   4.201   5.699 -0.4840  0.2294  0.3744
 1187TIP3    H125052   3.019   4.293   5.673 -0.6318  0.2081  0.2905
 1187TIP3    H225053   3.039   4.202   5.792 -0.1323  0.3206  0.2974
 1188TIP3   OH225054   4.867   2.148  12.768 -0.2000 -0.0427 -0.1695
 1188TIP3    H125055   4.805   2.140  12.840 -1.2073  0.0473 -1.0027
 1188TIP3    H225056   4.900   2.059  12.753 -0.9718 -0.2861 -0.4439
 1189TIP3   OH225057   5.595   3.003   0.922  0.3494  0.1356  0.0498
 1189TIP3    H125058   5.592   2.940   0.850 -1.6718  0.1286  0.0698
 1189TIP3    H225059   5.687   3.006   0.947  0.7672 -1.5228 -1.0680
 1190TIP3   OH225060   5.948   1.898   1.913  0.1128  0.3800 -0.2795
 1190TIP3    H125061   6.014   1.962   1.889  0.0135  0.0734 -1.4038
 1190TIP3    H225062   5.917   1.862   1.830 -0.6106 -0.3409  0.2819
 1191TIP3   OH225063   4.418   6.816  13.882 -0.2702 -0.0818 -0.1438
 1191TIP3    H125064   4.457   6.774  13.805 -3.0639 -1.7921 -0.7743
 1191TIP3    H225065   4.359   6.883  13.845  0.0218  0.6321  0.6452
 1192TIP3   OH225066   3.664   0.722   1.279  0.5244  0.6801  0.3640
 1192TIP3    H125067   3.615   0.641   1.291 -0.8383  1.3780 -0.2241
 1192TIP3    H225068   3.598   0.786   1.252  1.7559  1.6892 -0.3689
 1193TIP3   OH225069   3.791   4.162   1.130  0.2169  0.1476  0.2355
 1193TIP3    H125070   3.864   4.148   1.190  1.5123 -1.1411 -1.5384
 1193TIP3    H225071   3.811   4.244   1.086 -0.5477  0.9055  1.2581
 1194TIP3   OH225072   2.445   0.886  13.847 -0.5086  0.5923  0.3837
 1194TIP3    H125073   2.384   0.903  13.918 -0.0172 -2.5087  1.7106
 1194TIP3    H225074   2.393   0.839  13.782 -0.1307  0.1630  0.3845
 1195TIP3   OH225075   0.577   0.961   3.744 -0.0296 -0.2193 -0.1175
 1195TIP3    H125076   0.577   1.020   3.669  2.4568  0.3543  0.2604
 1195TIP3    H225077   0.669   0.939   3.758  0.0905  1.9856  4.4660
 1196TIP3   OH225078   5.710   4.948   4.210  0.4979  0.4536 -0.1580
 1196TIP3    H125079   5.789   4.953   4.264  0.0239 -1.4489  0.7916
 1196TIP3    H225080   5.697   5.038   4.178  2.3226  1.0561  0.6801
 1197TIP3   OH225081   6.018   5.711   2.989 -0.0337 -0.4372 -0.1614
 1197TIP3    H125082   5.968   5.774   3.040  2.3247  0.4275  1.2459
 1197TIP3    H225083   6.024   5.634   3.045 -0.1110 -0.6721 -0.4757
 1198TIP3   OH225084   4.952   6.416  13.902  0.1780 -0.0109 -0.1852
 1198TIP3    H125085   4.976   6.505  13.874  0.4745 -0.2437 -0.6758
 1198TIP3    H225086   4.894   6.430  13.977 -1.7040  0.6762 -1.6973
 1199TIP3   OH225087   0.978   4.472   5.146  0.2876  0.0223 -0.0198
 1199TIP3    H125088   0.954   4.550   5.196 -0.8929 -0.0278 -0.4745
 1199TIP3    H225089   0.998   4.406   5.212 -2.0345 -0.2941  0.4540
 1200TIP3   OH225090   4.320   1.049   3.976 -0.3005  0.6527 -0.6454
 1200TIP3    H125091   4.275   1.064   4.059 -1.9955 -1.5289 -1.0796
 1200TIP3    H225092   4.342   1.137   3.945 -0.4762  1.5820  1.6113
 1201TIP3   OH225093   5.664   1.219  15.184  0.2754 -0.4137 -0.3788
 1201TIP3    H125094   5.614   1.298  15.203  1.5859  0.4989 -0.5266
 1201TIP3    H225095   5.612   1.172  15.119  0.3071  1.2581 -1.6884
 1202TIP3   OH225096   3.194   5.145   5.109 -0.8700  0.0291 -0.6133
 1202TIP3    H125097   3.166   5.172   5.197  0.6890 -3.2232  1.0333
 1202TIP3    H225098   3.142   5.067   5.090  1.5752 -1.6455 -0.7698
 1203TIP3   OH225099   6.299   6.315   2.427 -0.3395  0.1651  0.4041
 1203TIP3    H125100   6.249   6.245   2.384 -0.0295  0.8781 -1.1845
 1203TIP3    H225101   6.233   6.378   2.454 -0.4425  0.2739 -0.0996
 1204TIP3   OH225102   0.493   0.285  14.903  0.4993  0.5149  0.3228
 1204TIP3    H125103   0.486   0.238  14.820  0.5863  0.3614  0.4033
 1204TIP3    H225104   0.465   0.374  14.882 -1.7230 -0.0551  0.6101
 1205TIP3   OH225105   5.095   5.364  13.045 -0.1130 -0.4594  0.1255
 1205TIP3    H125106   5.057   5.451  13.060 -3.3748 -1.9730  1.5231
 1205TIP3    H225107   5.021   5.310  13.019  1.6380 -3.0763  0.2356
 1206TIP3   OH225108   5.620   3.114  13.916  0.2500  0.1717 -0.3558
 1206TIP3    H125109   5.663   3.094  13.833  1.0113  0.2118  0.0216
 1206TIP3    H225110   5.600   3.207  13.910 -0.1152  0.0722 -0.6831
 1207TIP3   OH225111   1.670   6.194   3.193 -0.1675 -0.2933 -0.4923
 1207TIP3    H125112   1.765   6.181   3.187  0.2243  2.0990 -0.6131
 1207TIP3    H225113   1.641   6.132   3.259  1.3461 -1.6337 -1.0352
 1208TIP3   OH225114   1.015   3.830  12.602 -0.2748 -0.1545 -0.3521
 1208TIP3    H125115   1.103   3.805  12.629  0.4655  1.9553 -0.6374
 1208TIP3    H225116   1.023   3.853  12.510 -0.8849  0.9406 -0.1538
 1209TIP3   OH225117   5.341   3.505   4.983 -0.1532 -0.4205 -0.0502
 1209TIP3    H125118   5.412   3.518   5.046  0.5630  0.4430 -1.0175
 1209TIP3    H225119   5.385   3.470   4.905 -0.3599  2.4439 -1.5550
 1210TIP3   OH225120   4.548   1.626  16.601 -0.0405 -0.2029 -0.5581
 1210TIP3    H125121   4.642   1.609  16.615 -0.2413 -2.4335 -1.4421
 1210TIP3    H225122   4.544   1.718  16.578  1.7464  0.3494  0.9975
 1211TIP3   OH225123   4.650   5.802   4.831  0.0369  0.8028 -0.3038
 1211TIP3    H125124   4.710   5.872   4.807  1.8595  0.0051  1.6504
 1211TIP3    H225125   4.696   5.721   4.809 -1.5434  0.1466 -1.4313
 1212TIP3   OH225126   6.375   5.460   5.319  0.0272 -0.0371 -0.0912
 1212TIP3    H125127   6.465   5.431   5.328  0.2996  1.1407  1.2119
 1212TIP3    H225128   6.324   5.393   5.365  0.0018 -1.6072 -2.2304
 1213TIP3   OH225129   5.230   3.560   4.011  0.1236 -0.7751 -0.0970
 1213TIP3    H125130   5.161   3.618   4.044 -0.8131 -0.7123 -2.0569
 1213TIP3    H225131   5.310   3.590   4.056 -0.2243  2.3570 -1.2994
 1214TIP3   OH225132   0.460   6.122   2.300 -0.5652  0.3248  0.2916
 1214TIP3    H125133   0.474   6.027   2.300 -0.0256  0.3699 -1.5443
 1214TIP3    H225134   0.438   6.143   2.209  2.1154  2.3290 -0.0030
 1215TIP3   OH225135   5.931   4.262  13.766  0.2105 -0.0646  1.0152
 1215TIP3    H125136   5.897   4.333  13.712  1.8842  0.0232 -0.0075
 1215TIP3    H225137   5.865   4.249  13.834 -1.5730  0.3843 -0.5695
 1216TIP3   OH225138   3.986   0.944  15.193 -0.5416  0.1736  0.1091
 1216TIP3    H125139   3.942   0.975  15.114 -1.3833  0.0810  0.5267
 1216TIP3    H225140   4.077   0.931  15.167 -1.3454 -2.7550 -1.7255
 1217TIP3   OH225141   4.449   4.222  13.992 -0.2584 -0.1817 -0.2050
 1217TIP3    H125142   4.518   4.158  13.976 -1.6324 -2.0629  1.0660
 1217TIP3    H225143   4.477   4.268  14.071 -0.0993 -0.4309 -0.1150
 1218TIP3   OH225144   1.238   5.516  16.113  0.5489  0.0972  0.2653
 1218TIP3    H125145   1.281   5.573  16.177  1.3775  1.6943 -1.6296
 1218TIP3    H225146   1.193   5.575  16.054 -2.5052 -1.4504  0.8309
 1219TIP3   OH225147   3.915   1.860  16.064  0.2412 -0.3024 -0.4284
 1219TIP3    H125148   3.890   1.891  15.978 -2.3474 -0.6787  0.1244
 1219TIP3    H225149   3.961   1.777  16.047 -0.6722 -0.6198 -1.4277
 1220TIP3   OH225150   6.285   6.524  10.964  0.1312  0.0852 -0.0594
 1220TIP3    H125151   6.203   6.545  10.919  0.7843  0.5770 -1.0546
 1220TIP3    H225152   6.345   6.499  10.893  1.5782  2.1168  0.3719
 1221TIP3   OH225153   5.843   4.063  14.557  0.4779  0.5369  0.1113
 1221TIP3    H125154   5.816   4.082  14.646 -1.7235  1.2847 -0.6595
 1221TIP3    H225155   5.924   4.012  14.567 -0.8085 -1.2166  2.5459
 1222TIP3   OH225156   1.711   4.141  14.641 -0.1351  0.6109 -0.6280
 1222TIP3    H125157   1.752   4.173  14.561  0.9130  1.6466  0.2776
 1222TIP3    H225158   1.777   4.083  14.680 -1.2554 -1.1948 -1.2624
 1223TIP3   OH225159   4.072   0.404   2.550  0.1085 -0.6254 -0.1051
 1223TIP3    H125160   4.103   0.470   2.488  1.4764 -2.8640 -1.9677
 1223TIP3    H225161   4.122   0.420   2.630 -0.5792  1.3722 -0.0200
 1224TIP3   OH225162   6.820   2.055   2.115  0.6225 -0.4451 -0.4327
 1224TIP3    H125163   6.909   2.076   2.089  0.3753  0.5901 -0.4767
 1224TIP3    H225164   6.824   2.046   2.210  0.9525 -1.3501 -0.5231
 1225TIP3   OH225165   0.590   5.198   0.598  0.3860  0.4506 -0.2979
 1225TIP3    H125166   0.657   5.167   0.537 -0.3630 -2.1437  0.0999
 1225TIP3    H225167   0.639   5.226   0.676  1.0778 -2.7826  0.5741
 1226TIP3   OH225168   0.107   3.168   0.735 -0.0599  0.7286 -0.2868
 1226TIP3    H125169   0.097   3.075   0.756  0.6077  0.6721 -0.1969
 1226TIP3    H225170   0.196   3.176   0.702  0.3300  1.5412  0.8910
 1227TIP3   OH225171   5.603   2.939  16.331  0.0325  0.4567  0.2020
 1227TIP3    H125172   5.662   2.980  16.394 -0.5438 -1.3316  2.0118
 1227TIP3    H225173   5.661   2.905  16.262  0.8648  0.8315  0.7103
 1228TIP3   OH225174   2.830   6.384  11.475  0.1463 -0.2199 -0.3050
 1228TIP3    H125175   2.774   6.349  11.405 -0.0850  0.9518 -0.7214
 1228TIP3    H225176   2.877   6.457  11.434 -0.1441  0.6230  0.8110
 1229TIP3   OH225177   0.539   5.431   5.214 -0.2474 -0.2159 -0.1899
 1229TIP3    H125178   0.505   5.506   5.263  1.4437  0.1633  0.4944
 1229TIP3    H225179   0.469   5.366   5.216 -1.6322  1.2058 -0.5174
 1230TIP3   OH225180   4.488   1.882  15.329 -0.0562 -0.5647  0.2911
 1230TIP3    H125181   4.556   1.815  15.329 -0.0238 -0.5327  0.7577
 1230TIP3    H225182   4.428   1.855  15.259 -0.4950 -1.5402  1.0244
 1231TIP3   OH225183   3.862   1.573   4.512  0.0725  0.3209 -0.6220
 1231TIP3    H125184   3.814   1.652   4.537  1.1233  1.1453 -1.1587
 1231TIP3    H225185   3.793   1.508   4.497 -0.7421  0.5183  1.7729
 1232TIP3   OH225186   4.144   6.002  11.712  0.0927  0.5156 -0.1036
 1232TIP3    H125187   4.209   6.069  11.734  0.6682  0.1471 -0.6656
 1232TIP3    H225188   4.179   5.958  11.635  0.1331 -1.0000  0.7333
 1233TIP3   OH225189   5.882   3.571   4.556 -0.4112  0.0521  0.7401
 1233TIP3    H125190   5.931   3.646   4.522 -0.9776 -0.5681 -1.5865
 1233TIP3    H225191   5.824   3.609   4.622  1.0777  1.2354  1.4336
 1234TIP3   OH225192   6.493   1.755  13.296 -0.3270 -0.1549  0.0417
 1234TIP3    H125193   6.458   1.810  13.225 -0.2268  0.3086  0.3489
 1234TIP3    H225194   6.428   1.763  13.366  0.7347  1.2889  0.8913
 1235TIP3   OH225195   5.289   4.344   1.610  0.0239 -0.1251 -0.4832
 1235TIP3    H125196   5.207   4.380   1.646  0.8246  2.0238 -0.6415
 1235TIP3    H225197   5.352   4.415   1.619  1.6182 -1.3591 -1.3635
 1236TIP3   OH225198   0.854   5.764  12.022 -0.3497  0.5702  0.0100
 1236TIP3    H125199   0.835   5.677  12.059 -0.7505 -0.2601 -2.0089
 1236TIP3    H225200   0.949   5.771  12.027  0.2567 -1.9413 -3.5555
 1237TIP3   OH225201   5.241   1.148   3.250 -0.2460  0.2032  0.0418
 1237TIP3    H125202   5.191   1.174   3.328 -0.4002 -0.5537  0.2052
 1237TIP3    H225203   5.259   1.230   3.204  0.4845  0.7555  1.2563
 1238TIP3   OH225204   3.790   3.658  12.722 -0.6437 -0.0339 -0.2405
 1238TIP3    H125205   3.847   3.734  12.722  1.7032 -1.6892 -0.3856
 1238TIP3    H225206   3.765   3.646  12.630 -1.8429  1.0714 -0.0894
 1239TIP3   OH225207   3.664   4.919  12.379 -0.2914 -0.2682  0.4580
 1239TIP3    H125208   3.618   4.835  12.387  0.2210 -0.5917  0.0610
 1239TIP3    H225209   3.680   4.946  12.469 -0.3300 -0.6717  0.5887
 1240TIP3   OH225210   3.381   0.640   5.432  0.1888 -0.3228  0.3148
 1240TIP3    H125211   3.433   0.618   5.509  0.3948  0.6308  0.4696
 1240TIP3    H225212   3.322   0.566   5.420  1.5662 -1.4242  0.1435
 1241TIP3   OH225213   6.160   4.035  12.318 -0.2256  0.0704  0.6165
 1241TIP3    H125214   6.178   3.944  12.295  1.0483  0.6488 -0.8290
 1241TIP3    H225215   6.068   4.049  12.293 -0.4742 -0.8375  0.9925
 1242TIP3   OH225216   3.913   6.189  14.663  0.2983  0.4215  0.0059
 1242TIP3    H125217   3.849   6.122  14.639  0.3159  0.1683  0.6688
 1242TIP3    H225218   3.912   6.250  14.588 -1.8067  1.2521  0.6245
 1243TIP3   OH225219   5.977   1.341  14.227 -0.2075 -0.2907  0.1430
 1243TIP3    H125220   5.889   1.353  14.261 -0.1964 -0.0275  0.0796
 1243TIP3    H225221   6.008   1.429  14.207  0.5928 -0.2432  1.4614
 1244TIP3   OH225222   2.263   3.001  12.008  0.2730  0.0127 -0.0632
 1244TIP3    H125223   2.274   3.094  12.027  0.7597  0.1235 -0.8299
 1244TIP3    H225224   2.168   2.989  12.005  0.2048  0.5351 -0.1676
 1245TIP3   OH225225   6.197   0.446  17.068  0.3145  0.2571 -0.2506
 1245TIP3    H125226   6.236   0.359  17.073 -0.1385 -0.0695 -1.7489
 1245TIP3    H225227   6.255   0.501  17.120  0.2630 -1.0338  1.2645
 1246TIP3   OH225228   0.356   4.857   1.760  0.1448  0.2514  0.3510
 1246TIP3    H125229   0.307   4.783   1.723 -0.5136  0.1175  1.4704
 1246TIP3    H225230   0.445   4.824   1.770 -0.0441 -0.2395  0.4298
 1247TIP3   OH225231   0.756   0.521  16.480  0.5537  0.3406  0.3740
 1247TIP3    H125232   0.682   0.563  16.436  1.3636  2.5723  1.0208
 1247TIP3    H225233   0.719   0.488  16.562 -0.0572 -0.0075 -0.0306
 1248TIP3   OH225234   5.874   3.839  12.698  0.6048 -0.1866 -0.2850
 1248TIP3    H125235   5.782   3.833  12.726  0.0994 -1.7203 -2.0634
 1248TIP3    H225236   5.915   3.896  12.763 -0.6757 -2.6379  2.9545
 1249TIP3   OH225237   0.636   4.730   3.990  0.1748 -0.3994 -0.5052
 1249TIP3    H125238   0.684   4.770   4.062 -0.7469 -0.1312 -0.0310
 1249TIP3    H225239   0.697   4.735   3.916 -0.1905  2.8266 -0.7682
 1250TIP3   OH225240   5.176   1.781  16.046  0.1299  0.1306 -0.6353
 1250TIP3    H125241   5.128   1.790  15.963 -1.1835 -1.9042 -0.1797
 1250TIP3    H225242   5.108   1.787  16.113  0.9823  0.3263  0.2306
 1251TIP3   OH225243   6.707   5.496  11.959  0.4399 -0.2238 -0.1385
 1251TIP3    H125244   6.764   5.536  11.893 -1.0033  0.5912 -0.9669
 1251TIP3    H225245   6.620   5.532  11.939  0.0087  0.4181  2.5086
 1252TIP3   OH225246   4.611   2.155   3.355  0.5070  0.2326 -0.2693
 1252TIP3    H125247   4.637   2.064   3.343  1.0366  0.3103  0.2026
 1252TIP3    H225248   4.644   2.200   3.277  0.7024  0.1077 -0.2608
 1253TIP3   OH225249   3.404   1.537   4.515 -0.4195  0.0029  0.3210
 1253TIP3    H125250   3.454   1.530   4.434 -1.0042 -0.6182  0.0074
 1253TIP3    H225251   3.394   1.631   4.528  0.3739  0.1244  0.1120
 1254TIP3   OH225252   1.588   0.056  10.816 -0.3153  0.0299  0.2034
 1254TIP3    H125253   1.602   0.148  10.790 -0.4188  0.4911  1.7073
 1254TIP3    H225254   1.622   0.006  10.742  0.0166  1.2744 -0.5283
 1255TIP3   OH225255   2.170   2.025  15.039  0.0332  0.0936 -0.1511
 1255TIP3    H125256   2.256   2.059  15.065  0.5587 -0.7412 -0.7048
 1255TIP3    H225257   2.191   1.952  14.980 -1.0815  0.7088 -1.3418
 1256TIP3   OH225258   6.418   1.257  14.008 -0.7328 -0.1148 -0.1987
 1256TIP3    H125259   6.347   1.222  13.954 -0.2112 -2.0607  0.2846
 1256TIP3    H225260   6.498   1.239  13.958 -0.3322 -0.9443  0.6979
 1257TIP3   OH225261   3.141   2.209   4.517 -0.2391 -0.0684  0.1766
 1257TIP3    H125262   3.205   2.280   4.524 -0.3329  0.0582 -0.2369
 1257TIP3    H225263   3.194   2.130   4.520 -0.0105  0.0437 -0.6522
 1258TIP3   OH225264   5.818   3.736   3.256 -0.2377  0.6391 -0.3787
 1258TIP3    H125265   5.874   3.702   3.186 -0.8664 -0.2936 -0.4505
 1258TIP3    H225266   5.829   3.831   3.251 -0.3861  0.6046 -1.8516
 1259TIP3   OH225267   4.055   1.301  13.073 -0.0106  0.3937  0.2123
 1259TIP3    H125268   4.031   1.360  13.002  0.0354  0.2935  0.1131
 1259TIP3    H225269   3.992   1.320  13.143 -0.2127  0.3173  0.0519
 1260TIP3   OH225270   4.303   2.228   4.429  0.1986 -0.7548 -0.1571
 1260TIP3    H125271   4.272   2.251   4.342  0.1686  2.3804  0.5611
 1260TIP3    H225272   4.229   2.245   4.487  1.1425  0.2910  0.8045
 1261TIP3   OH225273   0.024   0.657  12.068 -0.3278  0.2405  0.0132
 1261TIP3    H125274  -0.007   0.698  12.149  0.1835  0.4499  0.1057
 1261TIP3    H225275   0.103   0.706  12.045 -0.5257  0.2476 -0.6737
 1262TIP3   OH225276   2.223   0.698  16.357 -0.2647  0.4135 -0.0849
 1262TIP3    H125277   2.319   0.706  16.350 -0.2382  0.6576  0.5074
 1262TIP3    H225278   2.199   0.640  16.285  0.1891  1.3304 -1.0176
 1263TIP3   OH225279   5.019   3.323   4.124  0.2959  0.1883  0.1222
 1263TIP3    H125280   4.974   3.391   4.074  0.6143 -1.6098 -2.9217
 1263TIP3    H225281   4.948   3.274   4.166 -0.1078  1.0124  0.4115
 1264TIP3   OH225282   5.030   1.615  14.836 -0.3586  0.3256 -0.0103
 1264TIP3    H125283   5.027   1.527  14.800  1.0051 -0.1168  0.9039
 1264TIP3    H225284   4.938   1.635  14.855 -0.5176 -1.9744  2.2318
 1265TIP3   OH225285   2.337   0.783   2.677 -0.5511 -0.2438  0.1892
 1265TIP3    H125286   2.252   0.799   2.637 -0.5466 -0.6970 -0.0050
 1265TIP3    H225287   2.320   0.787   2.771 -1.2153 -2.4084  0.1988
 1266TIP3   OH225288   3.821   6.286   0.370  0.2320  0.2208 -0.2698
 1266TIP3    H125289   3.891   6.223   0.391 -0.1584 -0.3362 -0.6098
 1266TIP3    H225290   3.842   6.363   0.423  2.0779  0.7440 -1.6415
 1267TIP3   OH225291   6.455   5.662   3.872 -0.0957 -0.0500  0.2919
 1267TIP3    H125292   6.540   5.704   3.884 -0.0691 -0.2999  1.0064
 1267TIP3    H225293   6.476   5.569   3.859 -0.2378 -0.0525  0.0661
 1268TIP3   OH225294   6.333   5.111  16.145 -0.0291  0.4806  0.1172
 1268TIP3    H125295   6.303   5.042  16.203 -0.7039 -0.0917 -0.8683
 1268TIP3    H225296   6.425   5.092  16.129 -0.1299 -0.0078  0.1110
 1269TIP3   OH225297   2.114   0.072   0.163  0.4877  0.0518 -0.7506
 1269TIP3    H125298   2.184   0.065   0.228 -0.0935 -0.0512 -0.1237
 1269TIP3    H225299   2.121   0.161   0.128  0.1982  0.4466  0.1660
 1270TIP3   OH225300   3.390   0.320   0.516  0.1003  0.1600 -0.2201
 1270TIP3    H125301   3.459   0.320   0.450  0.5563  0.2096  0.2465
 1270TIP3    H225302   3.360   0.229   0.520  0.7820 -0.0581  0.2212
 1271TIP3   OH225303   0.447   4.560   0.811  0.5444  0.3023 -0.1811
 1271TIP3    H125304   0.467   4.631   0.749  1.3899  0.6063  0.4163
 1271TIP3    H225305   0.506   4.576   0.885  0.4987 -0.8244  0.1164
 1272TIP3   OH225306   6.819   2.790   1.569 -0.6249 -0.0855  0.1393
 1272TIP3    H125307   6.827   2.872   1.521  0.9103 -0.9991 -1.2537
 1272TIP3    H225308   6.840   2.814   1.660  1.8349  0.7656 -0.5648
 1273TIP3   OH225309   3.848   3.799  11.237 -0.4490 -0.1323 -0.1714
 1273TIP3    H125310   3.836   3.723  11.294  0.9818 -0.5839 -0.4417
 1273TIP3    H225311   3.933   3.835  11.262 -0.3176  0.3418 -1.2338
 1274TIP3   OH225312   4.420   5.635   2.387 -0.1325  0.1696  0.1610
 1274TIP3    H125313   4.447   5.682   2.308  2.6024 -0.9516  0.3172
 1274TIP3    H225314   4.343   5.584   2.360  0.5463  0.0672 -1.7047
 1275TIP3   OH225315   3.746   5.191   3.512 -0.0459  0.2305  0.2108
 1275TIP3    H125316   3.831   5.147   3.504 -0.6988 -0.9036 -0.8356
 1275TIP3    H225317   3.712   5.164   3.597 -0.1164 -0.7193 -0.1129
 1276TIP3   OH225318   4.169   1.434  11.521  0.4444 -0.1099 -0.1364
 1276TIP3    H125319   4.226   1.429  11.598  0.1731  1.8334  0.2537
 1276TIP3    H225320   4.229   1.447  11.448  0.5778  2.6525  0.3571
 1277TIP3   OH225321   3.097   3.387  10.920 -0.0968  0.4619  0.1884
 1277TIP3    H125322   3.122   3.473  10.954  1.5655  0.6420 -1.3126
 1277TIP3    H225323   3.003   3.393  10.905 -0.1955  1.6242  1.1463
 1278TIP3   OH225324   3.419   0.949  13.875 -0.0891  0.3585  0.0382
 1278TIP3    H125325   3.337   0.995  13.896 -0.4026 -0.4924  0.7144
 1278TIP3    H225326   3.392   0.875  13.821  0.2485  0.1322  0.1797
 1279TIP3   OH225327   1.393   6.560  16.703  0.1263 -0.1302  0.3753
 1279TIP3    H125328   1.370   6.640  16.749  1.5269  1.2240 -1.1540
 1279TIP3    H225329   1.486   6.546  16.723 -0.2903 -1.8922  1.3101
 1280TIP3   OH225330   1.314   5.062   0.305  0.0886 -0.0175 -0.8874
 1280TIP3    H125331   1.221   5.043   0.293 -0.8765  1.2850  2.9629
 1280TIP3    H225332   1.317   5.157   0.319  1.9219 -0.0928 -0.5710
 1281TIP3   OH225333   6.556   4.844  16.416  0.3972  0.2363 -0.1581
 1281TIP3    H125334   6.642   4.821  16.380  1.0427  1.0232  0.7980
 1281TIP3    H225335   6.569   4.931  16.453 -0.6405  0.0856  0.5936
 1282TIP3   OH225336   4.550   4.914  14.089  0.0973 -0.2470  0.3149
 1282TIP3    H125337   4.484   4.879  14.030  0.5905 -0.6983  0.0180
 1282TIP3    H225338   4.532   5.008  14.092  0.3392 -0.1399 -0.9262
 1283TIP3   OH225339   3.115   1.251   5.580 -0.0363  0.0617  0.0876
 1283TIP3    H125340   3.083   1.263   5.490 -2.1998  1.0548  0.9190
 1283TIP3    H225341   3.142   1.339   5.608  0.8606 -0.2869  0.3454
 1284TIP3   OH225342   5.617   5.579  16.150 -0.1492 -0.2349 -0.2169
 1284TIP3    H125343   5.580   5.617  16.230  0.7683 -0.3956  0.2994
 1284TIP3    H225344   5.689   5.524  16.181 -0.5917 -1.3247 -1.0657
 1285TIP3   OH225345   2.425   3.988   2.880  0.4654 -0.0137 -0.4020
 1285TIP3    H125346   2.462   4.007   2.967 -1.2956  1.5330  0.0951
 1285TIP3    H225347   2.330   3.988   2.895  0.0802  1.3349 -2.4906
 1286TIP3   OH225348   3.950   5.623   1.879 -0.2007  0.0345  0.1357
 1286TIP3    H125349   3.996   5.691   1.926  2.3050 -1.3573 -0.1340
 1286TIP3    H225350   3.923   5.664   1.796  1.3192  0.6895 -0.0529
 1287TIP3   OH225351   4.702   0.390  13.725 -0.1028  0.2184  0.4915
 1287TIP3    H125352   4.701   0.376  13.630 -0.4997 -0.9303  0.6474
 1287TIP3    H225353   4.639   0.460  13.739 -2.0750 -1.3723  0.1271
 1288TIP3   OH225354   0.085   4.264   0.657  0.5772 -0.0262 -0.3620
 1288TIP3    H125355   0.056   4.218   0.736  1.1760 -0.3340 -0.3140
 1288TIP3    H225356   0.179   4.247   0.653  0.2941 -1.4337 -2.0511
 1289TIP3   OH225357   2.160   0.665   1.998 -0.1725  0.7247  0.6353
 1289TIP3    H125358   2.172   0.749   1.952  1.4535 -0.3403 -1.0849
 1289TIP3    H225359   2.250   0.636   2.017 -0.4321 -1.9680 -1.5455
 1290TIP3   OH225360   3.400   0.583   4.112  0.3694  0.2184  0.4407
 1290TIP3    H125361   3.407   0.488   4.102 -1.1988  0.2784 -2.3754
 1290TIP3    H225362   3.367   0.596   4.201  0.7874 -1.8514  0.9369
 1291TIP3   OH225363   4.262   3.562   2.546  0.6251  0.1677  0.2336
 1291TIP3    H125364   4.259   3.467   2.559 -1.1384  0.0826 -0.5601
 1291TIP3    H225365   4.350   3.578   2.511  0.6004 -1.3146 -0.6293
 1292TIP3   OH225366   0.064   6.320  13.015  0.0780 -0.1552 -0.3381
 1292TIP3    H125367   0.026   6.241  12.977 -0.6567  0.1131 -0.1806
 1292TIP3    H225368   0.157   6.315  12.993  0.5491 -2.2861  1.7403
 1293TIP3   OH225369   3.314   6.286   2.355  0.2259 -0.1706 -0.0497
 1293TIP3    H125370   3.253   6.314   2.287 -0.9866  0.2532  1.1803
 1293TIP3    H225371   3.331   6.193   2.335  0.8112  0.2273 -1.5769
 1294TIP3   OH225372   5.046   0.577   0.863 -0.3473  0.0902 -0.2910
 1294TIP3    H125373   5.048   0.567   0.768 -0.7936  0.8345 -0.3897
 1294TIP3    H225374   5.072   0.491   0.897  1.0363  0.1705 -1.0828
 1295TIP3   OH225375   1.690   3.977  13.475  0.0438  0.8909 -0.6771
 1295TIP3    H125376   1.757   3.910  13.493 -1.2129 -1.0446 -2.7565
 1295TIP3    H225377   1.631   3.972  13.550  0.6504  0.5661 -0.2078
 1296TIP3   OH225378   0.110   1.898  13.980 -0.5162 -0.1817  0.0443
 1296TIP3    H125379   0.087   1.989  13.961 -2.9498 -0.9119 -0.9679
 1296TIP3    H225380   0.124   1.896  14.075 -0.6719  1.1894  0.1191
 1297TIP3   OH225381   0.742   5.001   2.307 -0.0818 -0.5239  0.0338
 1297TIP3    H125382   0.700   5.086   2.296 -0.1251 -0.7515 -1.9927
 1297TIP3    H225383   0.712   4.970   2.392  0.7912  1.9248  1.3449
 1298TIP3   OH225384   0.695   3.677  15.129 -0.1750  0.4820  0.6469
 1298TIP3    H125385   0.766   3.678  15.192  0.2670  1.6051  0.1720
 1298TIP3    H225386   0.738   3.678  15.044 -0.7559  0.1106  0.3411
 1299TIP3   OH225387   2.476   6.630  14.078 -0.3958  0.4832  0.6114
 1299TIP3    H125388   2.471   6.534  14.082 -1.6025  0.4891 -0.3291
 1299TIP3    H225389   2.451   6.652  13.989 -1.4961  1.7503  1.1986
 1300TIP3   OH225390   2.829   6.231   4.649  0.4934  0.1168 -0.1062
 1300TIP3    H125391   2.890   6.215   4.577 -0.3795 -0.4113 -0.7532
 1300TIP3    H225392   2.767   6.295   4.614 -0.2530 -0.5494 -0.0295
 1301TIP3   OH225393   3.461   5.056  12.944 -0.4361 -0.0768  0.2698
 1301TIP3    H125394   3.473   4.964  12.921  0.7934 -0.4596  2.2116
 1301TIP3    H225395   3.543   5.099  12.918 -0.7945  0.3761 -0.1390
 1302TIP3   OH225396   3.946   5.931   6.501 -0.3229 -0.2352  0.6214
 1302TIP3    H125397   3.999   5.940   6.580  0.4712 -0.6144  0.1423
 1302TIP3    H225398   4.009   5.914   6.431 -0.9540  0.8523 -0.2347
 1303TIP3   OH225399   5.514   4.568   2.781 -0.2723  0.0254  0.1756
 1303TIP3    H125400   5.573   4.638   2.810 -0.8439  0.1524  1.0638
 1303TIP3    H225401   5.570   4.490   2.775  0.1949  0.3668 -0.0187
 1304TIP3   OH225402   3.965   0.954   4.993  0.5626  0.5679  0.2628
 1304TIP3    H125403   3.911   0.988   4.921 -1.0711 -0.2124  1.0646
 1304TIP3    H225404   4.010   1.030   5.028  0.6820  1.1068 -0.9942
 1305TIP3   OH225405   3.347   0.421   0.047 -0.0798  0.0676  0.3524
 1305TIP3    H125406   3.273   0.399   0.103  0.2379 -0.6260  0.5058
 1305TIP3    H225407   3.410   0.350   0.061  0.3060  0.2649 -0.3383
 1306TIP3   OH225408   0.309   0.434  12.494  0.5095  0.4897 -0.3775
 1306TIP3    H125409   0.300   0.517  12.540 -0.3853  0.7454 -0.9754
 1306TIP3    H225410   0.243   0.377  12.534 -0.0414  0.6086 -1.0909
 1307TIP3   OH225411   3.853   4.418  15.292 -0.0817  0.1831 -0.0024
 1307TIP3    H125412   3.853   4.469  15.373 -0.2406  0.6205 -0.2771
 1307TIP3    H225413   3.770   4.371  15.293 -0.7400  1.3208 -0.6205
 1308TIP3   OH225414   3.024   3.868   2.748  0.3179  0.3058 -0.2572
 1308TIP3    H125415   3.033   3.960   2.723  0.3039  0.4011  0.0872
 1308TIP3    H225416   3.028   3.868   2.843 -1.0471  0.1087 -0.1790
 1309TIP3   OH225417   0.285   4.674  11.660 -0.0957 -0.3922 -0.0454
 1309TIP3    H125418   0.199   4.686  11.700  0.0694  2.4567 -0.3182
 1309TIP3    H225419   0.336   4.629  11.726 -0.3936  2.4082  2.2866
 1310TIP3   OH225420   2.376   4.781   2.970 -0.1963  0.6431 -1.4682
 1310TIP3    H125421   2.298   4.726   2.964 -1.1471  1.6340  0.6480
 1310TIP3    H225422   2.343   4.868   2.992  1.4809  1.0278 -0.2113
 1311TIP3   OH225423   3.846   0.208   1.931 -0.0440 -0.0128 -0.4521
 1311TIP3    H125424   3.802   0.293   1.925 -0.3645 -0.1181  0.3322
 1311TIP3    H225425   3.830   0.167   1.846  0.6925  0.9804 -1.0915
 1312TIP3   OH225426   1.108   2.045   2.182  0.0126 -0.3613 -0.0336
 1312TIP3    H125427   1.086   2.135   2.162 -0.3570 -0.4963 -0.2468
 1312TIP3    H225428   1.039   2.015   2.242 -0.9916 -1.0938 -1.4926
 1313TIP3   OH225429   3.052   6.218   1.642 -0.0668  0.2987  0.3034
 1313TIP3    H125430   2.979   6.160   1.665 -0.0753  0.1380 -0.1231
 1313TIP3    H225431   3.102   6.168   1.577  0.2115  0.5648  0.3129
 1314TIP3   OH225432   0.443   5.729  14.271  0.1351 -0.1115 -0.4626
 1314TIP3    H125433   0.370   5.789  14.289  1.4207  1.5791 -0.5821
 1314TIP3    H225434   0.452   5.678  14.351 -0.7193  0.1475 -0.1853
 1315TIP3   OH225435   0.651   6.451   1.790  0.4200  0.2682 -0.0149
 1315TIP3    H125436   0.743   6.463   1.816 -0.0606  2.5797  0.9143
 1315TIP3    H225437   0.655   6.398   1.711  2.6918  1.5505 -0.8543
 1316TIP3   OH225438   4.050   3.595  13.879  0.3019  0.5208  0.2812
 1316TIP3    H125439   4.093   3.654  13.817  1.0212 -0.4736 -0.2083
 1316TIP3    H225440   4.106   3.517  13.880 -1.4288 -0.8231 -0.3326
 1317TIP3   OH225441   1.068   0.723   1.634 -0.1673  0.0107  0.4863
 1317TIP3    H125442   1.104   0.634   1.635 -1.0267 -0.3476  1.0824
 1317TIP3    H225443   1.076   0.751   1.543 -1.6848 -1.4644 -0.1706
 1318TIP3   OH225444   2.841   6.691  14.385 -0.5673 -0.3576 -0.0127
 1318TIP3    H125445   2.852   6.673  14.478  2.0281 -1.8537 -0.5289
 1318TIP3    H225446   2.748   6.673  14.369 -0.6050 -2.2861  1.8530
 1319TIP3   OH225447   5.964   4.842  12.633  0.4196  0.1147  0.1821
 1319TIP3    H125448   6.009   4.760  12.651  0.0551  0.0978  1.0580
 1319TIP3    H225449   6.017   4.884  12.565 -0.8191 -2.0412 -2.3420
 1320TIP3   OH225450   6.685   5.798  17.160  0.4202  0.3101  0.0363
 1320TIP3    H125451   6.649   5.886  17.172 -0.1383 -0.1427  2.0455
 1320TIP3    H225452   6.779   5.809  17.170  0.4999  0.8613 -1.1027
 1321TIP3   OH225453   3.359   4.839   5.551 -0.2938 -0.1038 -0.2695
 1321TIP3    H125454   3.427   4.797   5.604 -0.1553  1.2239  0.6659
 1321TIP3    H225455   3.399   4.922   5.523 -0.7144 -0.3424 -1.6774
 1322TIP3   OH225456   2.452   2.500  14.936 -0.1668 -0.0606 -0.1947
 1322TIP3    H125457   2.466   2.465  15.024  2.9391 -3.7177 -1.8541
 1322TIP3    H225458   2.386   2.442  14.898  0.0487  0.1911 -0.9612
 1323TIP3   OH225459   3.648   5.016  16.885 -0.3963 -0.6929  0.3994
 1323TIP3    H125460   3.696   4.967  16.952  2.4896 -0.8701 -1.6053
 1323TIP3    H225461   3.684   5.104  16.889 -1.4941 -0.2201  0.2436
 1324TIP3   OH225462   4.491   1.692   5.239  0.4271 -0.1751  0.1313
 1324TIP3    H125463   4.478   1.603   5.206  0.1856  0.2910 -1.1028
 1324TIP3    H225464   4.412   1.739   5.213  1.5463  0.9918 -1.4014
 1325TIP3   OH225465   1.986   6.770   4.166  0.6640  0.2932 -0.5428
 1325TIP3    H125466   1.948   6.838   4.222  1.4180 -1.0089  1.6711
 1325TIP3    H225467   2.073   6.754   4.203  0.9599 -1.0668 -1.7249
 1326TIP3   OH225468   0.244   0.571   2.899  0.0612  0.1346 -0.4454
 1326TIP3    H125469   0.318   0.552   2.957 -0.7458 -0.3713  0.4339
 1326TIP3    H225470   0.267   0.655   2.858  0.6406  0.5128  0.6195
 1327TIP3   OH225471   1.313   4.595  12.137 -0.0002 -0.5121  0.0634
 1327TIP3    H125472   1.400   4.633  12.124  0.1547  0.0416  2.2978
 1327TIP3    H225473   1.269   4.656  12.196 -1.3344 -1.6267  0.2666
 1328TIP3   OH225474   3.206   6.571   1.343 -0.0744  0.0945  0.2669
 1328TIP3    H125475   3.184   6.491   1.391 -1.7762  1.1997  1.4426
 1328TIP3    H225476   3.300   6.583   1.359 -0.1279 -0.7997  1.4187
 1329TIP3   OH225477   3.940   3.129  15.558  0.1532  0.3066  0.4970
 1329TIP3    H125478   3.940   3.071  15.482  0.1962  1.6627 -0.5856
 1329TIP3    H225479   3.969   3.213  15.523 -0.4543  1.1291  1.8963
 1330TIP3   OH225480   1.602   1.902   2.596 -0.0257 -0.4884  0.2672
 1330TIP3    H125481   1.628   1.975   2.540 -0.4191  1.9771  3.0473
 1330TIP3    H225482   1.647   1.917   2.679 -1.0471 -2.8029  1.3558
 1331TIP3   OH225483   1.719   4.371   1.117 -0.1789  0.4887  0.4785
 1331TIP3    H125484   1.786   4.362   1.184  2.5629  0.4621 -2.0886
 1331TIP3    H225485   1.735   4.298   1.057 -2.6710  0.3903 -0.1876
 1332TIP3   OH225486   3.319   2.968   0.801  0.6090  0.7264  0.9417
 1332TIP3    H125487   3.317   3.029   0.727  1.4794  1.7475  1.7436
 1332TIP3    H225488   3.252   3.001   0.861 -0.7068 -0.5942  0.2701
 1333TIP3   OH225489   3.182   2.606   5.401 -0.3525  0.3973  0.2653
 1333TIP3    H125490   3.164   2.515   5.375 -0.9039  0.8236 -0.9047
 1333TIP3    H225491   3.256   2.632   5.347 -0.2416  0.6771  0.5500
 1334TIP3   OH225492   3.622   4.566  10.914  0.2721  0.3755 -0.4473
 1334TIP3    H125493   3.554   4.611  10.963 -1.9500 -1.4743 -1.6224
 1334TIP3    H225494   3.657   4.632  10.854  0.0721  1.5593  0.7169
 1335TIP3   OH225495   2.239   6.019  14.038  0.4718 -0.0743 -0.0613
 1335TIP3    H125496   2.243   5.951  13.971 -0.1128  0.3087 -0.4923
 1335TIP3    H225497   2.328   6.024  14.072  0.5412 -0.9761 -0.1006
 1336TIP3   OH225498   0.307   5.386   2.651 -0.0007  0.3816  0.2767
 1336TIP3    H125499   0.361   5.308   2.664 -1.2008 -0.4026  0.8436
 1336TIP3    H225500   0.274   5.378   2.562 -1.2450 -0.5443  0.7850
 1337TIP3   OH225501   4.280   4.212   3.598 -0.3362 -0.5558 -0.5917
 1337TIP3    H125502   4.240   4.298   3.603 -1.4283 -1.0955  0.2481
 1337TIP3    H225503   4.335   4.215   3.520 -0.2086  0.9530 -0.4613
 1338TIP3   OH225504   0.661   1.538  14.100  0.1216 -0.1487 -0.3957
 1338TIP3    H125505   0.704   1.606  14.152  0.0721 -0.2159 -0.2641
 1338TIP3    H225506   0.587   1.582  14.059 -0.0752 -0.1843 -0.0869
 1339TIP3   OH225507   6.183   4.189   6.364  0.5657 -0.0204 -0.0223
 1339TIP3    H125508   6.119   4.228   6.304  0.6075  0.0831  0.0014
 1339TIP3    H225509   6.218   4.114   6.316  0.3664 -0.1264 -0.0041
 1340TIP3   OH225510   3.325   4.344   5.434 -0.7203 -0.5382 -0.4731
 1340TIP3    H125511   3.366   4.261   5.460  1.6145  0.5664 -0.3660
 1340TIP3    H225512   3.319   4.339   5.339  0.0486 -0.5813 -0.5242
 1341TIP3   OH225513   3.714   6.437   1.462  0.0776  0.0447 -0.4739
 1341TIP3    H125514   3.772   6.511   1.479 -0.8460  0.5851  0.4455
 1341TIP3    H225515   3.766   6.360   1.483  0.5229  0.5134  0.1706
 1342TIP3   OH225516   1.174   4.731   5.046  0.0759  0.6012  0.3127
 1342TIP3    H125517   1.118   4.701   5.118 -0.7610 -1.4304 -1.0834
 1342TIP3    H225518   1.224   4.654   5.021  0.5823  1.3513 -1.0718
 1343TIP3   OH225519   2.199   6.524  14.601  0.7872  0.2529 -0.1897
 1343TIP3    H125520   2.186   6.525  14.506  1.2205 -0.7858 -0.2816
 1343TIP3    H225521   2.164   6.439  14.629 -0.3798  1.0111  0.7555
 1344TIP3   OH225522   2.676   6.527   2.828  0.3317  0.1173  0.5164
 1344TIP3    H125523   2.609   6.458   2.829 -0.7318  1.1117  0.5415
 1344TIP3    H225524   2.737   6.502   2.897 -0.5871 -0.2933  1.2077
 1345TIP3   OH225525   3.354   4.825  11.761  0.1984 -0.0615 -0.9146
 1345TIP3    H125526   3.353   4.821  11.666  0.7251 -0.5200 -0.9003
 1345TIP3    H225527   3.323   4.914  11.781  1.9614  0.7484 -1.5629
 1346TIP3   OH225528   6.750   5.316  11.301 -0.4384  0.3015  0.2127
 1346TIP3    H125529   6.845   5.313  11.289 -0.4077 -0.1366  0.5660
 1346TIP3    H225530   6.716   5.340  11.215 -0.0574 -0.2769 -0.1060
 1347TIP3   OH225531   6.159   5.395  17.213  0.4556 -0.3641  0.4488
 1347TIP3    H125532   6.212   5.396  17.133  1.1498  2.6519  0.8558
 1347TIP3    H225533   6.070   5.378  17.183  0.6896  0.8271 -0.9891
 1348TIP3   OH225534   1.388   3.167  14.629 -0.4197  0.3999 -0.4309
 1348TIP3    H125535   1.458   3.105  14.608  0.8042  1.2772  0.8990
 1348TIP3    H225536   1.422   3.218  14.703 -2.5049  0.8046  0.3047
 1349TIP3   OH225537   4.928   1.885  14.694 -0.1219 -0.4754 -0.3459
 1349TIP3    H125538   4.966   1.867  14.780 -0.8019  0.1105  0.0915
 1349TIP3    H225539   4.927   1.981  14.687 -0.9264 -0.4882 -0.6026
 1350TIP3   OH225540   2.349   4.516  13.002  0.5283  0.4077 -0.5364
 1350TIP3    H125541   2.347   4.594  12.947 -1.2640 -0.0823 -1.2155
 1350TIP3    H225542   2.372   4.548  13.089 -0.6718  1.7766 -0.7001
 1351TIP3   OH225543   3.579   0.807   3.275  0.0053 -0.5925 -0.3291
 1351TIP3    H125544   3.613   0.726   3.237 -0.0947 -0.7802 -0.0264
 1351TIP3    H225545   3.653   0.844   3.323  0.4961  0.2917 -1.7191
 1352TIP3   OH225546   2.144   1.679   3.372 -0.7480 -0.3145  0.2702
 1352TIP3    H125547   2.088   1.755   3.383 -1.5716 -0.8809  0.0988
 1352TIP3    H225548   2.141   1.660   3.278  0.3542  0.1007  0.1319
 1353TIP3   OH225549   4.870   1.271   0.953  0.1716 -0.1511 -0.4875
 1353TIP3    H125550   4.850   1.299   0.864  1.0551 -1.6479 -1.1922
 1353TIP3    H225551   4.961   1.242   0.950  0.4245  0.3534  1.0737
 1354TIP3   OH225552   0.723   0.577   5.207  0.0976  0.2397 -0.2465
 1354TIP3    H125553   0.816   0.597   5.216  0.7833 -2.0015 -1.4951
 1354TIP3    H225554   0.706   0.510   5.273 -0.0702 -0.8639 -1.3623
 1355TIP3   OH225555   6.599   4.877  12.161 -0.0348 -0.1627 -0.1452
 1355TIP3    H125556   6.519   4.930  12.162  0.2631  0.4238 -2.1568
 1355TIP3    H225557   6.583   4.811  12.094  1.4317  0.4762 -1.1956
 1356TIP3   OH225558   0.416   2.754  14.079 -0.5274  0.3196  0.0805
 1356TIP3    H125559   0.450   2.825  14.134 -0.1829  0.6746 -0.5755
 1356TIP3    H225560   0.482   2.685  14.086 -0.6629  0.2233  0.3999
 1357TIP3   OH225561   0.639   3.983  15.882 -0.4531 -0.3492 -0.1252
 1357TIP3    H125562   0.546   3.963  15.868 -0.7858  0.6865  0.5653
 1357TIP3    H225563   0.650   4.072  15.850 -0.3115  0.5378  2.2604
 1358TIP3   OH225564   1.395   1.657   1.748 -0.5089 -0.1265 -0.9592
 1358TIP3    H125565   1.341   1.717   1.697 -0.7291 -1.1910 -2.0118
 1358TIP3    H225566   1.421   1.589   1.686 -0.3916 -1.2059  0.2339
 1359TIP3   OH225567   4.798   5.806  13.910 -0.3392  0.1196  0.5783
 1359TIP3    H125568   4.876   5.854  13.882 -0.5410 -1.5334 -3.4499
 1359TIP3    H225569   4.822   5.768  13.994  2.9727  0.1597 -0.2265
 1360TIP3   OH225570   2.206   2.075   5.251  0.0902  0.0016 -0.4641
 1360TIP3    H125571   2.185   2.159   5.210  0.9241  0.6429  0.3895
 1360TIP3    H225572   2.120   2.038   5.274 -0.3710 -0.1706 -2.3296
 1361TIP3   OH225573   5.677   4.973   0.262  0.2308  0.3601  0.7234
 1361TIP3    H125574   5.656   4.948   0.352  0.7857  0.3723  0.8577
 1361TIP3    H225575   5.650   4.898   0.209 -0.9053  0.6959  0.8022
 1362TIP3   OH225576   5.928   0.137   0.371 -0.4379 -0.1707 -0.1270
 1362TIP3    H125577   5.861   0.202   0.352 -1.5252 -0.6200  1.9565
 1362TIP3    H225578   5.968   0.165   0.453  0.5266 -1.0130 -0.2792
 1363TIP3   OH225579   5.541   1.408  17.083  0.2766 -0.2170 -0.0465
 1363TIP3    H125580   5.506   1.364  17.161  0.3029 -0.4737 -0.1781
 1363TIP3    H225581   5.598   1.476  17.117 -0.0155 -0.0734  0.1665
 1364TIP3   OH225582   0.111   0.895   2.811 -0.8955 -0.0050  0.2965
 1364TIP3    H125583   0.200   0.930   2.808 -1.3088  1.0531  0.0252
 1364TIP3    H225584   0.059   0.965   2.850 -1.3456 -1.2192  2.0193
 1365TIP3   OH225585   4.768   0.787  11.253 -0.1707  0.3449  0.2191
 1365TIP3    H125586   4.725   0.703  11.235  0.3184 -0.2683  1.7354
 1365TIP3    H225587   4.850   0.782  11.204 -0.1657 -0.0569  0.2597
 1366TIP3   OH225588   0.066   3.815  15.305  0.8341 -0.1601  0.5909
 1366TIP3    H125589   0.156   3.838  15.330  0.9226  0.8158 -0.5772
 1366TIP3    H225590   0.013   3.889  15.334  0.7153  0.2461 -0.6354
 1367TIP3   OH225591   5.125   1.324   4.029  0.2329 -0.1080  0.2117
 1367TIP3    H125592   5.092   1.245   3.988 -0.1733 -0.6199  1.4645
 1367TIP3    H225593   5.148   1.382   3.956  0.4728 -1.3411 -0.7177
 1368TIP3   OH225594   5.465   5.431  14.785 -0.5264 -0.0009 -0.2114
 1368TIP3    H125595   5.526   5.405  14.855 -0.7193 -0.8391 -0.3403
 1368TIP3    H225596   5.380   5.438  14.829 -0.6533 -0.5584 -0.3506
 1369TIP3   OH225597   0.145   1.136   3.120  0.0302 -0.1725 -0.0486
 1369TIP3    H125598   0.158   1.220   3.164 -1.6189  0.5128 -0.7675
 1369TIP3    H225599   0.194   1.145   3.038 -0.5177  0.2917 -0.3356
 1370TIP3   OH225600   6.088   1.276  11.374  0.0384 -0.2956  1.0488
 1370TIP3    H125601   6.123   1.347  11.319 -0.6334 -0.7226  0.0512
 1370TIP3    H225602   6.053   1.213  11.312  1.0752 -1.7698  1.8983
 1371TIP3   OH225603   3.446   1.397  14.190 -0.5379 -0.1857 -0.0350
 1371TIP3    H125604   3.450   1.383  14.285 -1.7972  0.8926  0.2055
 1371TIP3    H225605   3.440   1.309  14.154 -1.6246 -0.5708  1.0043
 1372TIP3   OH225606   5.593   1.155  14.608  0.3269  0.7858 -0.1601
 1372TIP3    H125607   5.500   1.178  14.604 -0.3581 -1.7938 -1.4031
 1372TIP3    H225608   5.600   1.076  14.555  3.2902  0.9699 -0.1919
 1373TIP3   OH225609   0.496   2.588   4.088 -0.2079 -0.3714  0.1228
 1373TIP3    H125610   0.527   2.511   4.135  0.8227  1.0115  1.8678
 1373TIP3    H225611   0.504   2.660   4.151 -1.1810  1.1709 -1.3953
 1374TIP3   OH225612   0.216   2.069  14.552 -0.0805 -0.8295 -0.4135
 1374TIP3    H125613   0.135   2.038  14.593 -1.3689  1.3484 -1.1760
 1374TIP3    H225614   0.224   2.160  14.580  1.6746 -0.7429 -1.0540
 1375TIP3   OH225615   4.093   4.551   2.139 -0.3477 -0.3251 -0.5877
 1375TIP3    H125616   4.110   4.543   2.045  0.8570 -0.1950 -0.3906
 1375TIP3    H225617   4.146   4.625   2.168 -1.7261  0.4801 -0.0332
 1376TIP3   OH225618   2.484   0.694  16.262  0.3937 -0.4642  0.2299
 1376TIP3    H125619   2.494   0.610  16.306  1.1608 -1.0858 -1.1076
 1376TIP3    H225620   2.572   0.717  16.233  0.1227  0.6071  0.2029
 1377TIP3   OH225621   1.837   3.444  15.179 -0.4962  0.0058  0.0115
 1377TIP3    H125622   1.906   3.388  15.142 -2.1129 -1.8975 -0.3010
 1377TIP3    H225623   1.882   3.494  15.247  1.1954 -1.2011 -0.1369
 1378TIP3   OH225624   2.088   0.538   3.325  0.1011 -0.3595 -0.2693
 1378TIP3    H125625   2.162   0.507   3.377 -0.0992 -0.0514  0.2015
 1378TIP3    H225626   2.072   0.627   3.356  1.7979  0.9739 -2.7791
 1379TIP3   OH225627   3.067   1.039   5.829 -0.7708 -0.2794 -0.1099
 1379TIP3    H125628   3.095   1.001   5.746  1.3116  0.0727  0.3709
 1379TIP3    H225629   3.093   0.975   5.895 -0.4587  0.3814  0.4202
 1380TIP3   OH225630   5.487   1.896  14.457  0.1570  0.1803  0.0745
 1380TIP3    H125631   5.512   1.804  14.467  1.4116  0.6918  2.3005
 1380TIP3    H225632   5.457   1.923  14.544 -2.1339  1.3884 -0.9946
 1381TIP3   OH225633   5.464   3.338   4.491  0.2944 -0.1306  0.1407
 1381TIP3    H125634   5.509   3.378   4.418 -1.4949  1.0435 -0.3892
 1381TIP3    H225635   5.415   3.265   4.452 -1.6566  1.2524 -0.1438
 1382TIP3   OH225636   3.046   5.925   1.076  0.0736 -0.6684 -0.2737
 1382TIP3    H125637   3.063   6.009   1.034 -0.1083  0.0964  1.0974
 1382TIP3    H225638   3.129   5.878   1.071  1.9086  1.6654  3.3434
 1383TIP3   OH225639   6.150   2.171   0.820 -0.0610 -0.2385  0.2950
 1383TIP3    H125640   6.066   2.139   0.787  0.2364  0.9992 -1.9065
 1383TIP3    H225641   6.137   2.266   0.830  0.9760 -0.0718  0.1956
 1384TIP3   OH225642   0.784   1.208   4.493  0.1535  0.5135  0.1232
 1384TIP3    H125643   0.745   1.197   4.580 -1.8479  2.0547 -0.5121
 1384TIP3    H225644   0.768   1.124   4.449  2.5513 -0.8658  1.6396
 1385TIP3   OH225645   1.262   2.334   5.589  0.0514  0.2947  0.0976
 1385TIP3    H125646   1.195   2.391   5.549 -0.3126 -0.8955 -1.0635
 1385TIP3    H225647   1.226   2.312   5.674 -1.2694 -0.6252 -0.6530
 1386TIP3   OH225648   4.467   3.402  14.455 -0.2152 -0.3976  0.1197
 1386TIP3    H125649   4.413   3.476  14.485  0.0883 -0.4796  0.8929
 1386TIP3    H225650   4.553   3.439  14.439  0.0214 -0.6341  0.8116
 1387TIP3   OH225651   2.133   3.947  16.160  0.8651 -0.5957 -0.2137
 1387TIP3    H125652   2.209   3.906  16.200  0.1507 -0.2065  1.6130
 1387TIP3    H225653   2.125   3.905  16.074  2.2904 -1.6381  0.1385
 1388TIP3   OH225654   4.615   1.868  17.165 -0.2595  0.0487 -0.6216
 1388TIP3    H125655   4.554   1.824  17.224  0.9861 -3.5302 -1.7261
 1388TIP3    H225656   4.567   1.875  17.082 -0.5706  1.1973 -0.3621
 1389TIP3   OH225657   5.982   5.138  15.779 -0.1317 -0.2342  0.9776
 1389TIP3    H125658   5.982   5.142  15.874 -0.4478 -5.0979  1.4433
 1389TIP3    H225659   6.058   5.084  15.757 -1.4719 -1.3645 -1.2794
 1390TIP3   OH225660   6.328   4.488   5.814 -0.0199 -0.2116  0.0733
 1390TIP3    H125661   6.374   4.432   5.752  0.0026  1.2501 -1.2899
 1390TIP3    H225662   6.385   4.492   5.890 -0.0589 -2.0544  0.2362
 1391TIP3   OH225663   0.443   3.950  16.265 -0.1801  0.0795  0.7093
 1391TIP3    H125664   0.503   3.893  16.216  0.2492  0.7524  0.4438
 1391TIP3    H225665   0.390   3.889  16.317 -0.7209 -0.6794 -0.6548
 1392TIP3   OH225666   3.169   3.198   4.675 -0.6206  0.0502 -0.1389
 1392TIP3    H125667   3.258   3.163   4.681 -1.1295 -1.6436 -1.5173
 1392TIP3    H225668   3.180   3.290   4.653  0.7805  0.4019  1.7455
 1393TIP3   OH225669   4.448   3.642  13.838 -0.2026  0.3931  0.5512
 1393TIP3    H125670   4.530   3.691  13.843 -0.0635  0.2173  0.0300
 1393TIP3    H225671   4.381   3.705  13.862  0.1138  0.4513  1.3040
 1394TIP3   OH225672   1.916   2.599  12.126 -0.4387 -0.2276  0.3322
 1394TIP3    H125673   1.999   2.626  12.086 -0.4748 -0.4246  0.1208
 1394TIP3    H225674   1.921   2.504  12.130  0.3614 -0.1359  2.5408
 1395TIP3   OH225675   3.542   3.499  13.060 -0.0104 -0.5726 -0.2728
 1395TIP3    H125676   3.571   3.460  12.977  0.3023  2.9583 -1.9907
 1395TIP3    H225677   3.610   3.563  13.081 -1.8068  1.0357  0.8838
 1396TIP3   OH225678   5.906   0.070  12.425  0.6323 -0.1573  0.1481
 1396TIP3    H125679   5.825   0.023  12.445  1.3725 -1.2093  0.8028
 1396TIP3    H225680   5.882   0.163  12.429 -0.8628 -0.4437 -1.1111
 1397TIP3   OH225681   4.028   6.253  13.190 -0.3240  0.2435 -0.0244
 1397TIP3    H125682   3.990   6.183  13.138  0.2814 -1.3469  1.5415
 1397TIP3    H225683   4.120   6.228  13.199 -0.3456  0.6211  1.5111
 1398TIP3   OH225684   0.638   2.156   3.151  0.2943  0.5120 -0.1031
 1398TIP3    H125685   0.600   2.084   3.201  0.6511  0.6585  0.3784
 1398TIP3    H225686   0.713   2.185   3.203 -0.5557  2.0349  0.3024
 1399TIP3   OH225687   4.852   5.507  12.771 -0.2864  1.0967  0.7402
 1399TIP3    H125688   4.941   5.524  12.741 -0.5518  1.0407 -0.1195
 1399TIP3    H225689   4.848   5.545  12.859  1.0273 -0.2425  1.4171
 1400TIP3   OH225690   6.656   6.054   3.853  1.0140  0.6684 -0.3009
 1400TIP3    H125691   6.564   6.044   3.876  1.1730 -1.4108 -0.3286
 1400TIP3    H225692   6.655   6.108   3.774 -0.3272 -0.5545 -1.1763
 1401TIP3   OH225693   1.818   6.449   2.368 -0.3774 -0.1106 -0.1006
 1401TIP3    H125694   1.865   6.532   2.356  0.8534 -0.5176  1.5059
 1401TIP3    H225695   1.752   6.469   2.435  0.0725 -0.4557  0.4572
 1402TIP3   OH225696   0.132   5.643  10.605  0.1979 -0.4116 -0.3422
 1402TIP3    H125697   0.116   5.724  10.557  1.4053 -0.5441 -1.0084
 1402TIP3    H225698   0.191   5.592  10.548  0.6399 -1.1206  0.7098
 1403TIP3   OH225699   6.560   0.717  15.415 -0.1244 -0.0859 -0.4985
 1403TIP3    H125700   6.535   0.763  15.334 -1.9722 -0.1976 -0.0460
 1403TIP3    H225701   6.635   0.663  15.390  0.5185  1.2815 -1.6637
 1404TIP3   OH225702   6.794   4.932  15.953  0.3175 -0.1265  0.2606
 1404TIP3    H125703   6.757   4.892  15.874 -2.2673  0.4258  1.0785
 1404TIP3    H225704   6.861   4.870  15.982  1.0689 -0.5369 -2.1023
 1405TIP3   OH225705   1.848   2.469   4.536 -0.1675  0.0302  0.6261
 1405TIP3    H125706   1.893   2.415   4.471 -0.8913  0.6894 -0.4540
 1405TIP3    H225707   1.757   2.472   4.506 -0.3731  0.9121  1.2904
 1406TIP3   OH225708   3.709   5.817   3.359  0.6970  0.6351  0.1098
 1406TIP3    H125709   3.695   5.889   3.421  0.2600 -0.0135  0.7778
 1406TIP3    H225710   3.805   5.809   3.354  0.7645  1.6587 -0.4521
 1407TIP3   OH225711   2.131   4.432   3.211  0.3377  0.3327 -0.1438
 1407TIP3    H125712   2.208   4.392   3.252  0.3783  0.5000 -0.0561
 1407TIP3    H225713   2.158   4.521   3.191  0.3041  0.2654 -0.4984
 1408TIP3   OH225714   1.539   6.533   0.153 -0.2444  0.7346  0.7177
 1408TIP3    H125715   1.474   6.529   0.223 -0.7852  1.9488  0.3009
 1408TIP3    H225716   1.490   6.557   0.075 -0.4226 -4.4428 -1.1377
 1409TIP3   OH225717   6.532   4.276   0.024 -0.0448  0.1868 -0.0860
 1409TIP3    H125718   6.577   4.217   0.085 -2.0578  0.2293  1.5582
 1409TIP3    H225719   6.579   4.358   0.031 -0.2404  0.2063  1.5205
 1410TIP3   OH225720   5.634   3.331   0.162  0.3554  0.0127  0.1928
 1410TIP3    H125721   5.720   3.339   0.204  0.4898  1.4347 -0.2977
 1410TIP3    H225722   5.571   3.341   0.234  0.4862 -4.2215  1.1307
 1411TIP3   OH225723   4.134   5.016  16.073 -0.4713  0.3719 -0.3754
 1411TIP3    H125724   4.061   5.024  16.011 -2.7111 -1.2310  1.8830
 1411TIP3    H225725   4.125   5.093  16.130 -0.4121  0.1327 -0.0456
 1412TIP3   OH225726   0.594   5.031  15.064  0.2034  0.1253  0.9512
 1412TIP3    H125727   0.590   4.940  15.035  2.7585 -0.7072  2.8558
 1412TIP3    H225728   0.605   5.081  14.983  2.6364 -1.6515  0.0589
 1413TIP3   OH225729   1.871   4.120   4.286  1.1099 -0.1270  0.2703
 1413TIP3    H125730   1.802   4.134   4.351  2.5224  1.1873  1.6045
 1413TIP3    H225731   1.945   4.088   4.337  1.2426 -2.5202 -1.2801
 1414TIP3   OH225732   5.721   3.393  14.754  0.0415 -0.1193  0.0772
 1414TIP3    H125733   5.744   3.454  14.684 -1.9510  0.5066 -0.1133
 1414TIP3    H225734   5.791   3.401  14.817  0.1307  1.9798 -0.2100
 1415TIP3   OH225735   3.926   4.030  16.348 -0.0043  0.6690  0.2209
 1415TIP3    H125736   3.887   3.962  16.402 -1.5537 -0.7301 -2.4260
 1415TIP3    H225737   4.009   3.993  16.318 -0.4087  0.2862 -0.4626
 1416TIP3   OH225738   6.369   3.008   4.487  0.2228  0.1879  0.5681
 1416TIP3    H125739   6.429   3.082   4.486  0.6270 -0.0747  2.0210
 1416TIP3    H225740   6.402   2.949   4.419  1.4438  0.1905  1.1278
 1417TIP3   OH225741   3.547   0.124  13.895  0.0306  0.5199 -0.1929
 1417TIP3    H125742   3.629   0.174  13.898 -0.8697  2.0406  0.5042
 1417TIP3    H225743   3.573   0.034  13.916  1.5197  0.9497 -0.0329
 1418TIP3   OH225744   2.833   0.363   3.962 -0.2677 -0.6323 -0.1169
 1418TIP3    H125745   2.817   0.448   4.002  0.6936 -0.7412  0.5541
 1418TIP3    H225746   2.928   0.353   3.965 -0.2210 -0.9817 -1.7842
 1419TIP3   OH225747   2.290   4.565   2.462  0.3412  0.3102  0.5344
 1419TIP3    H125748   2.286   4.565   2.558  1.4313  0.4142  0.5885
 1419TIP3    H225749   2.236   4.640   2.437 -0.4962 -0.1113  1.0319
 1420TIP3   OH225750   2.220   2.790   5.732  0.4043 -0.2552 -0.1557
 1420TIP3    H125751   2.246   2.829   5.816 -0.4345  0.9301 -0.4266
 1420TIP3    H225752   2.131   2.821   5.718  0.1403 -1.3435 -0.9704
 1421TIP3   OH225753   4.786   3.308  17.159  0.0440 -0.2462 -0.1219
 1421TIP3    H125754   4.771   3.213  17.165 -1.3614 -0.0293  0.2627
 1421TIP3    H225755   4.819   3.322  17.070  0.4951 -1.1232 -0.0990
 1422TIP3   OH225756   6.618   0.660  16.816 -0.5027 -0.2000  0.0075
 1422TIP3    H125757   6.692   0.611  16.781 -1.3373 -0.9636 -0.7061
 1422TIP3    H225758   6.595   0.614  16.897 -0.7072 -0.4389 -0.1873
 1423TIP3   OH225759   1.913   5.312   3.565 -0.0704 -0.1217 -0.0944
 1423TIP3    H125760   1.970   5.244   3.600 -0.3225  0.3888  1.3850
 1423TIP3    H225761   1.964   5.393   3.572  0.2593 -0.1188 -1.9070
 1424TIP3   OH225762   5.619   1.934  12.680 -0.0343  0.1410  0.5562
 1424TIP3    H125763   5.539   1.897  12.718 -0.8962 -0.0643 -1.3520
 1424TIP3    H225764   5.644   1.871  12.612  2.7747 -0.6999  2.1990
 1425TIP3   OH225765   6.406   6.566   4.473  0.4619  0.6425 -0.2485
 1425TIP3    H125766   6.327   6.619   4.467  0.5145  0.5919 -1.9870
 1425TIP3    H225767   6.459   6.608   4.541 -1.3404  0.2520  1.4609
 1426TIP3   OH225768   0.732   0.892   2.205 -0.3324 -0.1290 -0.6811
 1426TIP3    H125769   0.698   0.836   2.275  0.3913  0.5437  0.2315
 1426TIP3    H225770   0.718   0.981   2.236  0.5958  0.1751 -1.0847
 1427TIP3   OH225771   2.836   1.641  13.442  0.5592  0.3629 -0.3469
 1427TIP3    H125772   2.752   1.594  13.444  0.1211  1.0637 -1.3692
 1427TIP3    H225773   2.812   1.733  13.452  1.1417  0.6220 -1.2021
 1428TIP3   OH225774   6.337   6.232  11.028 -0.3971 -0.6063  0.5967
 1428TIP3    H125775   6.323   6.258  10.936  1.6261 -0.5790  0.2602
 1428TIP3    H225776   6.264   6.173  11.047 -0.0338 -1.8514 -1.5430
 1429TIP3   OH225777   6.810   3.832  13.183 -0.0638  0.0033  0.1158
 1429TIP3    H125778   6.878   3.774  13.217  0.1352  0.6889  0.9359
 1429TIP3    H225779   6.801   3.808  13.091  0.3337 -1.0048  0.3275
 1430TIP3   OH225780   2.911   5.131   1.187 -0.0827 -0.1180  0.1485
 1430TIP3    H125781   2.845   5.084   1.136 -1.2212  1.1514  0.4009
 1430TIP3    H225782   2.891   5.109   1.278  1.2265 -1.4503  0.1600
 1431TIP3   OH225783   4.299   2.209   3.057  0.2151  0.1325 -0.5206
 1431TIP3    H125784   4.225   2.256   3.019 -0.8175 -1.9932 -1.3314
 1431TIP3    H225785   4.353   2.185   2.982 -0.9902 -2.6812 -0.6370
 1432TIP3   OH225786   1.215   1.980   5.768 -0.1793  0.3308 -0.3867
 1432TIP3    H125787   1.221   2.073   5.793 -2.0768  0.1084  1.1157
 1432TIP3    H225788   1.181   1.937   5.846 -0.4947 -1.4550 -1.4656
 1433TIP3   OH225789   3.734   4.074   1.723 -0.2002  0.0682 -0.0690
 1433TIP3    H125790   3.697   4.134   1.788  0.3645  2.2175 -1.6231
 1433TIP3    H225791   3.658   4.031   1.684 -0.5659 -0.9465  1.6525
 1434TIP3   OH225792   3.281   6.303  11.142  0.2969  0.1574  0.3079
 1434TIP3    H125793   3.271   6.297  11.047 -0.1845 -0.8537  0.4082
 1434TIP3    H225794   3.300   6.395  11.158 -1.3917  0.7159 -0.6050
 1435TIP3   OH225795   4.683   4.140   3.456  0.4456  0.3159 -0.2067
 1435TIP3    H125796   4.652   4.052   3.473 -0.4049  0.0056 -2.9189
 1435TIP3    H225797   4.606   4.187   3.423  1.6054  1.0209 -2.0882
 1436TIP3   OH225798   1.343   2.066  13.206 -0.9949 -0.0416 -0.4388
 1436TIP3    H125799   1.267   2.029  13.252 -1.7959  0.0882 -1.6075
 1436TIP3    H225800   1.321   2.056  13.114 -0.2540  1.3881 -0.7858
 1437TIP3   OH225801   0.694   2.090   4.087  0.3975  0.1379 -0.3737
 1437TIP3    H125802   0.748   2.116   4.012  1.5639  0.9041  0.6996
 1437TIP3    H225803   0.755   2.082   4.159 -0.9884  1.5898  1.0387
 1438TIP3   OH225804   5.302   4.115  13.433  0.0338  0.1078 -0.2995
 1438TIP3    H125805   5.250   4.036  13.451  1.1652 -0.6943 -0.4414
 1438TIP3    H225806   5.310   4.117  13.338 -1.1207  1.1695 -0.4034
 1439TIP3   OH225807   4.136   5.052  10.212 -0.1306  0.2611 -1.0579
 1439TIP3    H125808   4.176   5.123  10.262 -2.1820  0.7589  0.0104
 1439TIP3    H225809   4.042   5.075  10.209 -0.6208 -1.6644 -1.9532
 1440TIP3   OH225810   1.819   2.669   6.373  0.3306 -0.0740  0.1615
 1440TIP3    H125811   1.767   2.745   6.400 -0.8077 -0.3319 -1.1417
 1440TIP3    H225812   1.754   2.606   6.342  1.3419 -1.0775  0.0243
 1441TIP3   OH225813   3.498   1.974  16.593 -0.2739 -0.3364 -0.1153
 1441TIP3    H125814   3.425   1.981  16.654 -0.2079  1.5021 -0.1772
 1441TIP3    H225815   3.499   2.058  16.546  1.5330 -0.5076 -0.4912
 1442TIP3   OH225816   4.268   0.247  15.261 -0.1967 -0.1058 -0.4385
 1442TIP3    H125817   4.291   0.340  15.258  2.2517 -0.6711 -1.0131
 1442TIP3    H225818   4.174   0.245  15.241 -0.4792  2.2697  0.3139
 1443TIP3   OH225819   3.829   0.498   3.702  0.2568  0.1098  0.2394
 1443TIP3    H125820   3.919   0.476   3.726  0.0470 -1.4185 -0.2154
 1443TIP3    H225821   3.832   0.589   3.675  2.0075 -0.3416 -1.3004
 1444TIP3   OH225822   1.771   2.091  11.170 -0.0245 -0.2156  0.1401
 1444TIP3    H125823   1.688   2.043  11.167 -0.1147 -0.0592  0.1133
 1444TIP3    H225824   1.764   2.145  11.249  0.4881 -0.9859  0.7356
 1445TIP3   OH225825   5.632   5.776  13.946 -0.1712  0.6083 -0.2453
 1445TIP3    H125826   5.539   5.762  13.965  0.1623 -1.0341  0.3182
 1445TIP3    H225827   5.633   5.812  13.857 -1.2698 -1.8031 -1.3265
 1446TIP3   OH225828   6.505   2.900  11.962 -0.5569 -1.0595  0.7622
 1446TIP3    H125829   6.484   2.860  12.046 -2.8909 -1.3203  0.1360
 1446TIP3    H225830   6.456   2.849  11.898  1.5650 -1.1823 -0.8611
 1447TIP3   OH225831   5.213   3.584   6.699  0.4276  0.6121 -0.4567
 1447TIP3    H125832   5.238   3.652   6.761  0.9024 -0.4791  0.5847
 1447TIP3    H225833   5.282   3.518   6.706 -1.9757 -1.9130  1.5728
 1448TIP3   OH225834   1.162   6.617   3.534  0.3463  0.2567 -0.1405
 1448TIP3    H125835   1.150   6.527   3.502 -0.7730  0.1920  0.4051
 1448TIP3    H225836   1.110   6.670   3.474  1.2208  0.5857 -0.6216
 1449TIP3   OH225837   5.156   3.978   4.020 -0.2000 -0.4452 -0.5414
 1449TIP3    H125838   5.063   3.955   4.023  0.2677 -2.4832  0.2743
 1449TIP3    H225839   5.189   3.932   3.943  0.4603 -1.2238  0.1886
 1450TIP3   OH225840   4.576   0.746  15.641 -0.1666  0.0239 -0.3960
 1450TIP3    H125841   4.544   0.685  15.575  1.8421  0.4116 -1.8367
 1450TIP3    H225842   4.526   0.826  15.626 -0.3270 -0.1610 -0.8765
 1451TIP3   OH225843   4.222   6.821   3.109 -0.9104  0.2312  0.1763
 1451TIP3    H125844   4.306   6.861   3.133 -0.9704 -0.3357  1.4244
 1451TIP3    H225845   4.166   6.895   3.086  0.0818  0.5900 -1.2606
 1452TIP3   OH225846   5.584   3.164  14.724 -0.0506  0.2227  0.2393
 1452TIP3    H125847   5.506   3.200  14.682 -0.3837  0.1296  0.7710
 1452TIP3    H225848   5.630   3.241  14.759  0.2030  0.2959 -0.2350
 1453TIP3   OH225849   4.078   6.033  10.591 -0.3369 -0.3562  0.1519
 1453TIP3    H125850   3.989   6.064  10.579  0.1137  0.8655 -0.1761
 1453TIP3    H225851   4.127   6.069  10.517  0.4777 -0.8137  0.4494
 1454TIP3   OH225852   3.416   6.212   6.484  0.0577 -0.1410  0.4317
 1454TIP3    H125853   3.451   6.132   6.443 -0.5054 -0.9448  1.4695
 1454TIP3    H225854   3.492   6.270   6.490  0.7647 -1.0575  0.7429
 1455TIP3   OH225855   5.402   3.309   1.509  0.4584  0.0282  0.3710
 1455TIP3    H125856   5.411   3.398   1.474  0.7049  0.5077  1.6264
 1455TIP3    H225857   5.376   3.321   1.600  2.0374 -1.1476  1.0294
 1456TIP3   OH225858   1.630   6.758  13.455 -0.3971 -0.2974  0.0598
 1456TIP3    H125859   1.561   6.782  13.392  0.2748  0.2212 -0.4943
 1456TIP3    H225860   1.583   6.742  13.537 -1.1970 -0.1140 -0.3524
 1457TIP3   OH225861   3.142   2.107   5.119  0.6202 -0.3527 -0.0581
 1457TIP3    H125862   3.076   2.055   5.072 -1.1570  0.4962  1.3418
 1457TIP3    H225863   3.111   2.106   5.210  2.9791 -0.5063  0.8067
 1458TIP3   OH225864   0.918   0.549   3.305  0.3206 -0.0605 -0.7372
 1458TIP3    H125865   0.852   0.615   3.284  0.2259 -0.0659 -0.4638
 1458TIP3    H225866   0.976   0.592   3.368 -1.0351 -0.9249  1.2378
 1459TIP3   OH225867   3.922   1.379  11.430  0.4164 -0.1437 -0.3461
 1459TIP3    H125868   4.007   1.408  11.461  0.1878  0.9554 -0.6891
 1459TIP3    H225869   3.888   1.454  11.381 -1.3195 -0.0454  0.9099
 1460TIP3   OH225870   0.217   5.471   5.729 -0.1831 -0.3441 -0.0571
 1460TIP3    H125871   0.197   5.464   5.635 -0.5534  0.1912 -0.0238
 1460TIP3    H225872   0.305   5.436   5.737  0.5084  1.1049 -0.8783
 1461TIP3   OH225873   5.287   2.632  14.350 -0.9731 -0.1219  0.3037
 1461TIP3    H125874   5.240   2.614  14.432 -0.6009  2.6276  1.2351
 1461TIP3    H225875   5.373   2.662  14.379 -1.3988  2.5600 -0.9448
 1462TIP3   OH225876   2.829   6.053   1.706  0.0462  0.2051 -0.3011
 1462TIP3    H125877   2.778   6.087   1.780 -0.4275  0.2008 -0.6231
 1462TIP3    H225878   2.781   5.975   1.678  1.0730 -0.7031  0.3723
 1463TIP3   OH225879   4.670   2.869  13.432 -0.6312  0.2880  0.1687
 1463TIP3    H125880   4.696   2.910  13.349 -2.0873  0.5176 -0.2114
 1463TIP3    H225881   4.712   2.783  13.431  0.3320  0.7490 -0.2524
 1464TIP3   OH225882   5.837   1.539  15.606  0.5609  0.3679  0.7034
 1464TIP3    H125883   5.858   1.448  15.585  1.1762  0.1472  2.1701
 1464TIP3    H225884   5.840   1.543  15.702 -0.4389  1.7054  0.7048
 1465TIP3   OH225885   4.212   0.266  16.144 -0.3675 -0.2549  0.3550
 1465TIP3    H125886   4.271   0.240  16.074  1.5293  0.2854  1.6520
 1465TIP3    H225887   4.233   0.358  16.161 -1.1435 -0.2227  1.2555
 1466TIP3   OH225888   3.071   1.997   6.151  0.1869 -0.2902  0.6138
 1466TIP3    H125889   3.021   1.918   6.169 -0.2978 -0.1438 -0.0689
 1466TIP3    H225890   3.162   1.971   6.163  0.0537 -1.0532  0.0531
 1467TIP3   OH225891   1.828   5.081   0.655  0.7289  0.4515  0.0066
 1467TIP3    H125892   1.875   5.115   0.579  1.3983  0.5233  0.4458
 1467TIP3    H225893   1.855   5.137   0.728 -1.0417  1.3211  0.0392
 1468TIP3   OH225894   1.127   2.961   5.528  0.5394  0.0512  0.2395
 1468TIP3    H125895   1.180   2.905   5.585  2.9318  0.6629 -1.2200
 1468TIP3    H225896   1.160   2.943   5.440  0.0034  2.2449 -0.4845
 1469TIP3   OH225897   1.224   6.773  17.109 -0.2375  0.0080  1.0915
 1469TIP3    H125898   1.215   6.764  17.204  1.9512  0.7543  1.4328
 1469TIP3    H225899   1.273   6.855  17.097  0.1469 -0.4306 -0.6374
 1470TIP3   OH225900   1.836   1.554  16.120 -0.5043  0.3475  0.4077
 1470TIP3    H125901   1.745   1.524  16.119 -0.3834 -0.0222  0.0117
 1470TIP3    H225902   1.887   1.473  16.114 -0.0664  0.2442  3.7673
 1471TIP3   OH225903   5.340   5.031   4.041 -0.2692  0.0694  0.1065
 1471TIP3    H125904   5.321   4.989   3.957 -1.1551 -0.1716  0.4128
 1471TIP3    H225905   5.346   4.959   4.103  0.2707  0.2543  0.2723
 1472TIP3   OH225906   0.655   2.603  11.380  0.1147  0.5955  0.3700
 1472TIP3    H125907   0.626   2.628  11.293 -0.0754 -0.1111  0.2222
 1472TIP3    H225908   0.749   2.587  11.370  0.2223  1.1601  0.4492
 1473TIP3   OH225909   2.112   0.644   6.377 -0.4799 -0.5311 -0.6334
 1473TIP3    H125910   2.059   0.719   6.402 -0.5550 -0.6971 -0.2827
 1473TIP3    H225911   2.087   0.626   6.286 -0.0252  0.2329 -0.9158
 1474TIP3   OH225912   0.052   6.623  14.635 -0.1953  0.4224  0.2318
 1474TIP3    H125913   0.046   6.609  14.541 -3.5405 -2.4447  0.6506
 1474TIP3    H225914   0.004   6.705  14.650  0.3000  0.8629 -0.5316
 1475TIP3   OH225915   4.460   5.586  13.670 -0.1572  0.1226 -0.3033
 1475TIP3    H125916   4.411   5.551  13.595  2.1241  1.4825 -2.6026
 1475TIP3    H225917   4.436   5.679  13.673  1.6752  0.6721 -1.0908
 1476TIP3   OH225918   6.587   4.394   1.502 -0.3970 -0.1290 -0.0366
 1476TIP3    H125919   6.600   4.390   1.597 -0.1427  0.6736 -0.0276
 1476TIP3    H225920   6.493   4.401   1.490 -0.5372 -1.5301  0.0925
 1477TIP3   OH225921   1.912   0.630  14.649 -0.6436  0.4294  0.1762
 1477TIP3    H125922   1.905   0.691  14.575  0.5295  1.2560  0.7057
 1477TIP3    H225923   2.002   0.597  14.643 -0.5242  0.5338  1.2386
 1478TIP3   OH225924   6.525   4.080  15.851  0.2221 -0.0601  0.2243
 1478TIP3    H125925   6.518   4.081  15.946  1.9884  0.3977  0.3858
 1478TIP3    H225926   6.618   4.097  15.833 -0.2105  0.6675 -1.5881
 1479TIP3   OH225927   3.091   3.844   4.500  0.9363 -0.0919  0.0541
 1479TIP3    H125928   3.091   3.780   4.429  0.8469  0.1747 -0.1872
 1479TIP3    H225929   3.143   3.803   4.569  0.6225 -0.5534  0.0188
 1480TIP3   OH225930   4.738   6.319  14.629  0.1722  0.1892  0.3326
 1480TIP3    H125931   4.734   6.277  14.543  0.4537 -0.2618  0.5394
 1480TIP3    H225932   4.782   6.402  14.613  3.1396 -1.2437  0.5538
 1481TIP3   OH225933   2.939   1.699   0.215  0.1602 -0.1007  0.0104
 1481TIP3    H125934   2.959   1.617   0.169  0.7865  1.4506 -2.6287
 1481TIP3    H225935   2.844   1.699   0.223 -0.0726 -0.0323 -2.1848
 1482TIP3   OH225936   3.243   0.528   0.427 -0.6690 -0.5893  0.4374
 1482TIP3    H125937   3.296   0.449   0.438 -0.1503 -0.3347 -0.2042
 1482TIP3    H225938   3.298   0.599   0.461 -0.3749 -0.2531 -0.7194
 1483TIP3   OH225939   4.123   4.869   2.742  0.0902 -0.6610 -0.3618
 1483TIP3    H125940   4.205   4.908   2.773 -0.9727  0.9626  0.5619
 1483TIP3    H225941   4.115   4.899   2.651  0.0528 -0.0229 -0.1512
 1484TIP3   OH225942   0.094   6.054   0.480 -0.2989  0.6710  0.5843
 1484TIP3    H125943   0.137   5.969   0.479 -1.3305  0.1386  0.0623
 1484TIP3    H225944   0.028   6.048   0.411 -1.6456  1.2301  1.7817
 1485TIP3   OH225945   0.692   1.837  14.105  0.1074 -0.2691  0.3358
 1485TIP3    H125946   0.715   1.806  14.018 -1.2332 -1.0905  0.2418
 1485TIP3    H225947   0.771   1.879  14.138  0.3113  1.0608 -1.7090
 1486TIP3   OH225948   5.922   0.918   4.491 -0.0368  0.0025 -0.1808
 1486TIP3    H125949   5.884   0.952   4.572  1.0660 -1.5844  1.0761
 1486TIP3    H225950   5.846   0.885   4.442 -0.6165 -0.1042  0.7538
 1487TIP3   OH225951   6.152   2.899   2.420  0.1481 -0.0991  0.3074
 1487TIP3    H125952   6.214   2.905   2.493  1.5243 -1.2030 -0.7372
 1487TIP3    H225953   6.196   2.846   2.354 -1.2657  0.4514 -1.1548
 1488TIP3   OH225954   1.924   1.799   2.926  0.0555 -0.2083  0.1572
 1488TIP3    H125955   1.872   1.733   2.972  0.7718 -0.1491  1.0776
 1488TIP3    H225956   1.936   1.762   2.838 -3.1453  0.6432 -0.7763
 1489TIP3   OH225957   6.513   5.400   3.985 -0.5082  0.3989 -0.1214
 1489TIP3    H125958   6.542   5.343   4.057  3.2899  0.5333 -1.3314
 1489TIP3    H225959   6.452   5.346   3.935  0.5173 -1.4809  0.5608
 1490TIP3   OH225960   1.195   0.665  13.246  0.2235 -0.2888  0.5055
 1490TIP3    H125961   1.118   0.717  13.224  0.1976 -0.0277  1.2139
 1490TIP3    H225962   1.251   0.673  13.168  0.3732  1.0864  0.7191
 1491TIP3   OH225963   1.139   4.692  15.778 -0.3637  0.4025  0.3042
 1491TIP3    H125964   1.189   4.647  15.711 -1.6375 -0.4987 -0.0956
 1491TIP3    H225965   1.196   4.693  15.855 -0.3631 -2.2907  0.4470
 1492TIP3   OH225966   1.285   0.211   3.981 -0.0652 -0.5162  0.3625
 1492TIP3    H125967   1.317   0.174   3.899  0.8051 -1.3436  1.0547
 1492TIP3    H225968   1.365   0.231   4.031 -0.4983  1.8842  0.2226
 1493TIP3   OH225969   3.762   6.355  11.494  0.3899 -0.1810  0.4940
 1493TIP3    H125970   3.791   6.388  11.409  2.5737 -1.2285  0.7478
 1493TIP3    H225971   3.751   6.434  11.547  2.7967  0.3790  0.3048
 1494TIP3   OH225972   5.294   5.029  16.957 -0.0040  0.0403 -0.1820
 1494TIP3    H125973   5.203   5.058  16.962  0.0069  0.1510 -0.5736
 1494TIP3    H225974   5.327   5.069  16.877  0.8140  1.1678  0.6876
 1495TIP3   OH225975   0.437   3.458  11.769 -0.1139 -0.7008 -0.4919
 1495TIP3    H125976   0.471   3.376  11.804 -0.5121  0.4561  3.0409
 1495TIP3    H225977   0.473   3.526  11.827 -3.0993  1.1947 -0.6316
 1496TIP3   OH225978   3.983   0.424  13.768  0.1785  0.3144  0.2668
 1496TIP3    H125979   4.076   0.401  13.769 -0.1483 -1.1336  0.5047
 1496TIP3    H225980   3.967   0.455  13.679  0.5539 -1.0432 -0.3005
 1497TIP3   OH225981   0.712   2.989  14.975 -0.4145  0.4815 -0.4147
 1497TIP3    H125982   0.708   2.981  15.070  1.2676  0.3442 -0.3162
 1497TIP3    H225983   0.624   2.966  14.945 -1.4731  2.1720  1.1810
 1498TIP3   OH225984   1.641   4.232   1.554  0.2081  0.1342  0.0181
 1498TIP3    H125985   1.615   4.165   1.490  1.2205 -0.6389  0.3995
 1498TIP3    H225986   1.644   4.186   1.637  1.4866  0.4939  0.1965
 1499TIP3   OH225987   1.329   2.566  14.310  0.0028 -0.0291  0.0580
 1499TIP3    H125988   1.420   2.551  14.337  0.3615  0.2591 -0.9224
 1499TIP3    H225989   1.305   2.649  14.352 -0.3921 -0.9287  1.6768
 1500TIP3   OH225990   2.180   3.507   5.098  0.4694 -0.0649  0.6209
 1500TIP3    H125991   2.217   3.455   5.169  1.4838 -0.1357  0.0603
 1500TIP3    H225992   2.127   3.445   5.048  1.8765 -0.6416 -0.1889
 1501TIP3   OH225993   1.072   2.024  13.066 -0.6812 -0.3585  0.2695
 1501TIP3    H125994   1.085   1.930  13.054  2.2093 -0.0259  0.1017
 1501TIP3    H225995   1.081   2.037  13.161 -0.4884 -0.1977  0.2295
 1502TIP3   OH225996   6.084   0.459  11.808  0.3738  0.0920 -0.2643
 1502TIP3    H125997   6.084   0.439  11.902  2.3645 -1.1796 -0.4651
 1502TIP3    H225998   5.995   0.438  11.779  0.2747 -1.4878  0.9817
 1503TIP3   OH225999   4.489   6.120  10.516 -0.5509 -0.1304  0.1467
 1503TIP3    H126000   4.543   6.149  10.442 -1.1649 -0.0177 -0.2645
 1503TIP3    H226001   4.400   6.144  10.491 -0.7447  0.0624  1.0032
 1504TIP3   OH226002   2.634   5.286  15.065 -0.2549 -0.2156  1.2206
 1504TIP3    H126003   2.688   5.320  15.137 -1.1871  1.7943  1.0311
 1504TIP3    H226004   2.558   5.247  15.108 -0.7947  0.9532  1.3669
 1505TIP3   OH226005   3.274   6.782   5.204 -0.4229  0.6147 -0.9357
 1505TIP3    H126006   3.258   6.765   5.296  2.4564  0.0238 -0.4301
 1505TIP3    H226007   3.329   6.708   5.176  1.1107  2.1868 -2.3324
 1506TIP3   OH226008   4.253   0.102   6.249  0.4636 -0.2019 -0.0781
 1506TIP3    H126009   4.177   0.077   6.197  0.4371 -0.3610  0.0374
 1506TIP3    H226010   4.314   0.028   6.240  0.6322 -0.0485 -0.2229
 1507TIP3   OH226011   6.024   1.257   2.799 -0.1328  0.0992  0.3584
 1507TIP3    H126012   5.951   1.249   2.737 -1.1290  0.9638  1.3712
 1507TIP3    H226013   6.047   1.349   2.798 -1.0280  0.3810  2.1820
 1508TIP3   OH226014   6.105   5.465   0.334 -0.7047  0.1334 -0.0429
 1508TIP3    H126015   6.061   5.509   0.262 -1.8366 -2.2130 -0.8629
 1508TIP3    H226016   6.096   5.526   0.408  1.2642  3.0098 -1.9469
 1509TIP3   OH226017   4.640   0.475   1.019  0.2543  0.5420  0.1027
 1509TIP3    H126018   4.725   0.509   0.993 -0.1410  1.3808 -0.1045
 1509TIP3    H226019   4.591   0.468   0.938  0.1211  0.0586  0.2209
 1510TIP3   OH226020   6.644   6.090  14.311 -1.0084  0.0748  0.2988
 1510TIP3    H126021   6.562   6.082  14.358 -1.7232  2.0026 -0.5321
 1510TIP3    H226022   6.628   6.156  14.244  0.8602 -0.3925 -0.7016
 1511TIP3   OH226023   0.975   4.892   2.605  0.5216 -0.6169  0.5473
 1511TIP3    H126024   0.942   4.970   2.559  1.0421 -0.8941 -0.3152
 1511TIP3    H226025   0.989   4.828   2.536 -0.9633 -1.8943  1.3643
 1512TIP3   OH226026   5.334   6.498  14.277  0.6663  0.2389  0.4946
 1512TIP3    H126027   5.287   6.523  14.357  1.6706  1.1461  0.8464
 1512TIP3    H226028   5.354   6.582  14.235 -1.2268 -0.2825 -1.5692
 1513TIP3   OH226029   5.479   0.874   0.050 -0.7768  0.0290  0.1202
 1513TIP3    H126030   5.384   0.876   0.045 -0.8932 -0.4595  1.6360
 1513TIP3    H226031   5.499   0.906   0.138  0.2381 -3.4229  1.2867
 1514TIP3   OH226032   2.618   4.127  14.466  0.0105 -0.3657  0.2607
 1514TIP3    H126033   2.581   4.138  14.553  0.1729 -0.1385  0.3002
 1514TIP3    H226034   2.542   4.133  14.407 -0.0960 -0.4955  0.3822
 1515TIP3   OH226035   2.350   0.338  13.223  0.4517 -0.1014  1.1001
 1515TIP3    H126036   2.351   0.434  13.213 -0.2871 -0.2086 -0.2169
 1515TIP3    H226037   2.267   0.319  13.266 -0.1612 -0.2350 -0.0771
 1516TIP3   OH226038   6.433   4.898   1.851  0.0500  0.6212  0.2511
 1516TIP3    H126039   6.370   4.970   1.852  0.3540  0.9036  1.4023
 1516TIP3    H226040   6.380   4.819   1.860 -0.1609  0.8567  1.1867
 1517TIP3   OH226041   3.503   1.767   1.012  0.5175  0.0223  0.3054
 1517TIP3    H126042   3.419   1.770   0.966 -0.3043 -3.2332  1.3034
 1517TIP3    H226043   3.486   1.812   1.095  0.3496  0.9677 -0.2246
 1518TIP3   OH226044   6.608   4.431   5.239 -0.5410  0.0585  0.0798
 1518TIP3    H126045   6.613   4.525   5.217 -1.5624 -0.0116 -0.5342
 1518TIP3    H226046   6.552   4.428   5.316 -0.9395 -0.0705 -0.2063
 1519TIP3   OH226047   2.374   2.734  14.399  0.1540 -0.4179 -0.2939
 1519TIP3    H126048   2.337   2.792  14.466  0.1760 -1.5903  0.7831
 1519TIP3    H226049   2.466   2.761  14.392  0.1752 -0.3344  0.2306
 1520TIP3   OH226050   6.525   5.536  15.166  0.1772  0.5185  0.0704
 1520TIP3    H126051   6.596   5.546  15.103 -0.7342  1.1507 -0.8851
 1520TIP3    H226052   6.451   5.583  15.127 -1.7599 -2.7086 -0.4712
 1521TIP3   OH226053   4.261   2.385   2.373  0.0844  0.4826  0.2829
 1521TIP3    H126054   4.346   2.429   2.370 -0.0955  0.7950 -0.5993
 1521TIP3    H226055   4.224   2.397   2.286 -0.6787 -0.0335  0.5161
 1522TIP3   OH226056   3.666   2.376   3.815  0.3306  0.1712  0.7478
 1522TIP3    H126057   3.725   2.440   3.855 -0.5125 -0.6602  3.5651
 1522TIP3    H226058   3.588   2.378   3.872 -2.2452  0.8849 -2.4912
 1523TIP3   OH226059   6.131   6.735   2.682 -0.0989 -0.3203  0.0948
 1523TIP3    H126060   6.181   6.657   2.703 -1.1217 -1.4816 -1.5424
 1523TIP3    H226061   6.129   6.785   2.763  1.6182 -1.3793  0.8548
 1524TIP3   OH226062   0.355   4.645  14.190 -0.3506  0.4611  0.4818
 1524TIP3    H126063   0.384   4.581  14.255 -1.7471 -0.7393 -0.0364
 1524TIP3    H226064   0.297   4.704  14.238 -1.1367 -0.2399  0.4111
 1525TIP3   OH226065   1.316   3.658   4.062  0.2144 -1.1984  0.4545
 1525TIP3    H126066   1.248   3.614   4.011 -1.5950  1.5754  0.2543
 1525TIP3    H226067   1.367   3.707   3.997  1.3914 -1.9243  0.7969
 1526TIP3   OH226068   6.516   2.409   2.449  0.4246  0.4840 -0.2501
 1526TIP3    H126069   6.520   2.335   2.389 -0.4671  1.5946 -1.7808
 1526TIP3    H226070   6.565   2.478   2.405 -0.0568  1.2703  0.4089
 1527TIP3   OH226071   6.304   3.610  11.632 -0.0246 -0.4814  0.1122
 1527TIP3    H126072   6.286   3.701  11.656  1.8281 -0.0752  0.1122
 1527TIP3    H226073   6.319   3.612  11.538  0.2448 -0.7355  0.1471
 1528TIP3   OH226074   3.131   4.951   2.696  0.3258  0.3383  0.4776
 1528TIP3    H126075   3.104   4.859   2.688  1.7260  0.0667 -2.0278
 1528TIP3    H226076   3.115   4.972   2.788 -1.7029 -1.8537  0.7167
 1529TIP3   OH226077   2.820   3.411  11.050 -0.4893 -0.4013  0.1662
 1529TIP3    H126078   2.754   3.405  10.981 -1.4481 -1.8371  1.1515
 1529TIP3    H226079   2.859   3.498  11.039  1.1668 -1.4162 -3.7103
 1530TIP3   OH226080   5.437   2.772  15.719 -0.2692  0.4201 -0.5935
 1530TIP3    H126081   5.352   2.801  15.687 -0.0816  2.0854  0.2965
 1530TIP3    H226082   5.488   2.754  15.640 -1.1594  0.2937 -1.1441
 1531TIP3   OH226083   2.476   2.802   3.939 -0.3032 -0.4466 -0.0641
 1531TIP3    H126084   2.544   2.826   4.002  0.3750 -0.7503 -0.6645
 1531TIP3    H226085   2.470   2.877   3.880  1.1570 -1.3122 -1.3822
 1532TIP3   OH226086   0.167   1.454  13.891 -0.1503  0.5757 -0.1482
 1532TIP3    H126087   0.127   1.412  13.968 -1.4207  1.1267 -0.4870
 1532TIP3    H226088   0.246   1.403  13.875 -1.1662 -1.1130  0.0113
 1533TIP3   OH226089   1.044   5.990   0.424  0.1445  0.1792 -0.0067
 1533TIP3    H126090   0.983   6.057   0.453  1.0903  1.1016 -0.0926
 1533TIP3    H226091   1.083   5.955   0.504  0.1638  0.2352  0.0085
 1534TIP3   OH226092   5.060   4.965   4.697  0.1519  0.1583  0.0051
 1534TIP3    H126093   5.052   4.890   4.756 -0.7179  0.9659  0.9634
 1534TIP3    H226094   5.057   5.041   4.755 -1.7160  1.0265 -1.1509
 1535TIP3   OH226095   4.819   5.112   5.409 -0.7429 -0.3200 -0.1028
 1535TIP3    H126096   4.781   5.025   5.413 -1.7293  0.1431  2.0671
 1535TIP3    H226097   4.744   5.171   5.398 -0.2324  0.3502 -0.0923
 1536TIP3   OH226098   2.683   2.113   1.579 -0.4112 -0.2282  0.1811
 1536TIP3    H126099   2.769   2.130   1.616  0.2676  1.7734 -2.0841
 1536TIP3    H226100   2.629   2.088   1.654  1.9850 -1.1084  1.7235
 1537TIP3   OH226101   5.099   4.207  16.656  0.1538 -0.2690  1.1806
 1537TIP3    H126102   5.129   4.279  16.600 -0.0764 -0.9654  0.1087
 1537TIP3    H226103   5.177   4.152  16.667 -0.5273 -1.9912 -1.4686
 1538TIP3   OH226104   4.562   5.596   5.953 -0.5530 -0.1214 -0.0678
 1538TIP3    H126105   4.590   5.573   6.042 -0.3278  0.1997 -0.0530
 1538TIP3    H226106   4.533   5.687   5.960 -1.6381 -0.4577 -0.0776
 1539TIP3   OH226107   6.712   2.458   0.307  0.0475 -0.4268  0.0092
 1539TIP3    H126108   6.781   2.524   0.313  0.2472 -0.7491  3.1929
 1539TIP3    H226109   6.757   2.379   0.276  0.2509  0.3138 -1.6885
 1540TIP3   OH226110   2.489   5.064  15.168 -0.7235  0.2119  0.5783
 1540TIP3    H126111   2.468   4.975  15.140 -2.5162  0.8872 -0.3972
 1540TIP3    H226112   2.508   5.056  15.261  0.5426 -1.3807  0.2327
 1541TIP3   OH226113   0.581   0.902  12.040 -0.1965  0.5413  0.6045
 1541TIP3    H126114   0.613   0.982  11.998  1.2512 -0.4108 -0.1977
 1541TIP3    H226115   0.539   0.852  11.970  0.7103 -0.2928  0.6348
 1542TIP3   OH226116   5.182   1.023  11.719 -0.0142  0.6941 -0.0016
 1542TIP3    H126117   5.194   1.094  11.782 -1.0008 -0.8637  2.0818
 1542TIP3    H226118   5.090   0.998  11.728  0.3950 -1.1085 -0.3340
 1543TIP3   OH226119   6.332   3.147  16.449  0.2664  0.6559  0.6420
 1543TIP3    H126120   6.280   3.122  16.525  0.9956  0.4227  1.0771
 1543TIP3    H226121   6.308   3.083  16.381  0.8072 -0.1558  1.1958
 1544TIP3   OH226122   0.676   1.421  11.248  0.5452 -0.5277 -0.3109
 1544TIP3    H126123   0.726   1.346  11.217 -0.6722 -0.3500 -2.9625
 1544TIP3    H226124   0.673   1.481  11.173 -0.7277  0.9914  0.8774
 1545TIP3   OH226125   1.561   1.906  11.197 -0.0781  0.1916 -0.0636
 1545TIP3    H126126   1.566   1.862  11.282  0.5709 -0.7491 -0.5684
 1545TIP3    H226127   1.591   1.841  11.134  3.2803  2.0410 -0.6128
 1546TIP3   OH226128   2.872   5.858   5.884  0.2008  0.4597 -0.0543
 1546TIP3    H126129   2.882   5.945   5.845 -1.4491  1.0476  0.7221
 1546TIP3    H226130   2.881   5.797   5.810  0.6506  1.3287 -0.7310
 1547TIP3   OH226131   6.591   4.515   1.176 -0.2201 -0.0168  0.6164
 1547TIP3    H126132   6.575   4.421   1.184  2.2300 -0.4837  0.6826
 1547TIP3    H226133   6.528   4.554   1.238 -1.5445 -1.5375  0.3170
 1548TIP3   OH226134   5.480   0.416  13.628 -0.5796 -0.0495  0.3248
 1548TIP3    H126135   5.516   0.372  13.550 -0.3498  0.0806  0.3569
 1548TIP3    H226136   5.428   0.348  13.672 -1.6552  0.1786 -0.5442
 1549TIP3   OH226137   0.383   2.383   0.275 -0.1355 -0.2419  0.1843
 1549TIP3    H126138   0.392   2.314   0.209 -1.2367 -0.1889 -0.0416
 1549TIP3    H226139   0.305   2.431   0.249  0.4727  0.9571  0.4758
 1550TIP3   OH226140   3.769   0.870   1.530 -0.4224 -0.2528 -0.0615
 1550TIP3    H126141   3.833   0.800   1.546 -1.7404 -0.8511  3.2438
 1550TIP3    H226142   3.730   0.848   1.446  1.5555 -1.5440 -0.7164
 1551TIP3   OH226143   2.806   5.644   4.565 -0.1068 -0.8374 -0.2694
 1551TIP3    H126144   2.825   5.611   4.477 -0.5397  0.1476 -0.7552
 1551TIP3    H226145   2.775   5.568   4.614  1.0644 -1.6016 -0.6736
 1552TIP3   OH226146   1.818   3.975   6.439 -0.1576  0.3747  0.3391
 1552TIP3    H126147   1.823   3.919   6.516  0.3474 -0.1217 -0.0515
 1552TIP3    H226148   1.886   4.041   6.452 -0.4706  0.6573  0.5939
 1553TIP3   OH226149   5.717   2.203  16.082 -0.3624 -0.0213  0.3310
 1553TIP3    H126150   5.644   2.254  16.118 -0.3211  0.8820 -0.7931
 1553TIP3    H226151   5.794   2.233  16.130 -0.2654  1.3548 -0.6147
 1554TIP3   OH226152   4.659   5.919  14.426  0.3606 -0.3937 -0.0700
 1554TIP3    H126153   4.596   5.924  14.354 -0.7417 -3.0920  0.5784
 1554TIP3    H226154   4.606   5.932  14.504  0.9767 -0.6965  0.4013
 1555TIP3   OH226155   6.746   0.621   2.557  0.0170 -0.4804  0.1404
 1555TIP3    H126156   6.787   0.557   2.499 -0.0398 -0.8339  0.4894
 1555TIP3    H226157   6.697   0.678   2.498 -0.3480 -1.0646 -0.1278
 1556TIP3   OH226158   3.267   3.829   2.946 -0.1455 -0.3486 -0.0365
 1556TIP3    H126159   3.185   3.816   2.994  0.4630 -1.8164  0.6853
 1556TIP3    H226160   3.326   3.866   3.011 -0.3422  1.1560 -0.6812
 1557TIP3   OH226161   0.562   4.337   5.498 -0.4322 -0.6219 -0.0215
 1557TIP3    H126162   0.622   4.264   5.482  2.8120  1.4428  1.6066
 1557TIP3    H226163   0.542   4.332   5.591 -0.9328  0.0600 -0.0874
 1558TIP3   OH226164   2.548   2.193  15.994  0.4642 -0.6028  0.1708
 1558TIP3    H126165   2.469   2.203  16.046 -1.1012  2.1016 -2.4590
 1558TIP3    H226166   2.619   2.224  16.051 -1.1757  2.4575  0.7188
 1559TIP3   OH226167   4.217   0.180  11.038  0.3316 -0.0241  0.2558
 1559TIP3    H126168   4.287   0.152  10.978  0.5659 -0.0146  0.5251
 1559TIP3    H226169   4.145   0.204  10.980  0.7871  0.6137 -0.0598
 1560TIP3   OH226170   0.999   0.198  16.799 -0.3759 -0.0272  0.5357
 1560TIP3    H126171   1.046   0.277  16.826  0.2010 -0.1795 -0.0112
 1560TIP3    H226172   1.055   0.158  16.732 -0.6395 -0.9341  0.8454
 1561TIP3   OH226173   2.607   5.259  17.121  0.4394 -0.1428  0.1749
 1561TIP3    H126174   2.617   5.223  17.209  1.6275  1.0080  0.5363
 1561TIP3    H226175   2.676   5.217  17.070 -0.8134 -1.4929 -0.4692
 1562TIP3   OH226176   6.596   6.505  13.987  0.3790 -0.0083 -0.0911
 1562TIP3    H126177   6.574   6.594  14.014  0.4182 -0.1101  0.2779
 1562TIP3    H226178   6.535   6.485  13.916  1.4999  0.9491 -1.3779
 1563TIP3   OH226179   3.096   0.752  14.105 -0.0663 -0.3539 -0.3123
 1563TIP3    H126180   3.127   0.681  14.049  0.1532  0.8067 -1.7395
 1563TIP3    H226181   3.173   0.776  14.157 -0.4939 -1.9991  1.1934
 1564TIP3   OH226182   5.969   6.442   1.123 -0.3284  0.0074  0.1664
 1564TIP3    H126183   6.000   6.447   1.213  0.9941  2.0527 -0.3411
 1564TIP3    H226184   6.029   6.382   1.079  1.6811  2.2058 -0.2712
 1565TIP3   OH226185   1.903   2.712   2.013  0.7689 -0.1046 -0.0489
 1565TIP3    H126186   1.942   2.653   1.948 -0.8617  0.2382 -1.4094
 1565TIP3    H226187   1.912   2.799   1.975 -1.0211  0.0112 -0.2867
 1566TIP3   OH226188   3.342   5.242  16.213  0.0486 -0.2821  0.5490
 1566TIP3    H126189   3.413   5.190  16.251  0.9709  0.5856  0.0743
 1566TIP3    H226190   3.312   5.298  16.285  1.5841  1.1417  0.1560
 1567TIP3   OH226191   2.407   0.793   5.096 -0.1332 -0.0753  0.0089
 1567TIP3    H126192   2.439   0.770   5.183 -0.8132  1.5900  0.7388
 1567TIP3    H226193   2.325   0.744   5.087 -0.0263 -0.3047  0.2909
 1568TIP3   OH226194   1.590   1.926  14.773  0.5701 -0.5286 -0.5516
 1568TIP3    H126195   1.530   1.855  14.797 -1.1812  0.6899 -1.0534
 1568TIP3    H226196   1.624   1.957  14.857  2.3532 -2.6957 -0.3919
 1569TIP3   OH226197   2.351   1.608  15.437  0.8215 -0.5469 -0.2557
 1569TIP3    H126198   2.291   1.650  15.375  1.6790 -1.4432 -1.7606
 1569TIP3    H226199   2.347   1.663  15.515 -2.4238 -0.9225 -0.0195
 1570TIP3   OH226200   5.505   1.116  12.115  0.1362 -0.0955 -0.0853
 1570TIP3    H126201   5.537   1.177  12.181 -1.3932  0.7238 -0.0626
 1570TIP3    H226202   5.558   1.135  12.037  0.5186  0.3928  0.2883
 1571TIP3   OH226203   3.185   3.254   2.200  0.4191 -0.3155 -0.6053
 1571TIP3    H126204   3.220   3.318   2.138  1.1159 -0.4145 -0.3254
 1571TIP3    H226205   3.169   3.304   2.280 -1.9564  0.1545 -1.2865
 1572TIP3   OH226206   5.359   4.841   3.453 -0.6329 -0.0891 -0.7714
 1572TIP3    H126207   5.301   4.905   3.494  1.3234  0.0813  2.0391
 1572TIP3    H226208   5.342   4.759   3.499  0.1690 -0.4141 -1.0319
 1573TIP3   OH226209   5.518   3.244  16.616 -0.5717 -0.3278 -0.4622
 1573TIP3    H126210   5.427   3.274  16.605 -0.9312 -1.8938 -2.4297
 1573TIP3    H226211   5.518   3.157  16.578  1.4088 -1.0772  1.0966
 1574TIP3   OH226212   1.812   4.162   0.949  0.3066  0.4022  0.3558
 1574TIP3    H126213   1.758   4.084   0.940 -0.2431  0.7572  0.4997
 1574TIP3    H226214   1.794   4.214   0.871 -0.3792  1.0085  0.9025
 1575TIP3   OH226215   3.718   5.256   2.832  0.4319  0.4868  0.0986
 1575TIP3    H126216   3.670   5.291   2.908  0.0124  0.8106 -0.3066
 1575TIP3    H226217   3.801   5.226   2.868  0.4951  1.2181  0.5885
 1576TIP3   OH226218   5.648   6.803   3.428  0.0072  0.1601  0.6456
 1576TIP3    H126219   5.718   6.737   3.428 -0.0433  0.1040  0.9899
 1576TIP3    H226220   5.596   6.782   3.506 -1.0350 -0.4652 -0.2006
 1577TIP3   OH226221   2.088   0.188  16.987  0.8536 -0.2458 -0.1263
 1577TIP3    H126222   2.080   0.097  16.961  1.3588 -0.6720  1.1256
 1577TIP3    H226223   2.046   0.193  17.072  3.1757  0.0419  1.0910
 1578TIP3   OH226224   6.539   0.075   1.876  0.6842 -0.1838 -0.0232
 1578TIP3    H126225   6.609   0.097   1.938  2.9987 -0.5256 -2.3550
 1578TIP3    H226226   6.527  -0.020   1.887  0.1414 -0.0351  0.7724
 1579TIP3   OH226227   3.697   5.675  15.331  0.5990 -0.4029  0.3776
 1579TIP3    H126228   3.770   5.736  15.340  0.4287 -0.3784  1.9887
 1579TIP3    H226229   3.624   5.729  15.299  0.5735  0.1826  1.3566
 1580TIP3   OH226230   3.877   4.691   5.024  0.4890 -0.0413 -0.2975
 1580TIP3    H126231   3.835   4.759   4.972  0.1611 -0.1436 -0.1744
 1580TIP3    H226232   3.818   4.616   5.017  0.4391 -0.0562  0.2158
 1581TIP3   OH226233   5.332   1.431  12.970 -0.1797  0.6703 -0.1189
 1581TIP3    H126234   5.257   1.411  13.026  0.6315  0.3269  0.8852
 1581TIP3    H226235   5.294   1.469  12.891 -1.3382  1.6781  0.8859
 1582TIP3   OH226236   3.883   1.158   4.491  0.0183 -0.4022  0.2480
 1582TIP3    H126237   3.958   1.216   4.494 -0.1481 -0.2200  1.3061
 1582TIP3    H226238   3.828   1.194   4.421  0.5518 -0.0963 -0.0231
 1583TIP3   OH226239   3.603   0.095   5.470  0.3385  0.5082 -0.1383
 1583TIP3    H126240   3.542   0.155   5.428 -1.4479  1.2632  3.2143
 1583TIP3    H226241   3.682   0.146   5.484  0.6914  0.4626 -1.7537
 1584TIP3   OH226242   4.899   4.457   0.935  0.0715  0.1935 -0.7505
 1584TIP3    H126243   4.960   4.435   0.865  2.3728 -0.8183  1.3878
 1584TIP3    H226244   4.821   4.404   0.918  0.2108  0.6072 -2.9247
 1585TIP3   OH226245   1.926   4.748  14.092 -0.1130 -0.2441 -0.0729
 1585TIP3    H126246   1.865   4.678  14.113  0.5502 -1.0041 -0.5931
 1585TIP3    H226247   1.884   4.828  14.124 -0.6536 -0.9378  0.9965
 1586TIP3   OH226248   6.132   4.279   2.254 -0.2673  0.0774 -0.1771
 1586TIP3    H126249   6.218   4.305   2.221 -0.3254 -0.6546 -0.9401
 1586TIP3    H226250   6.098   4.217   2.189 -1.1512 -0.0460  0.3715
 1587TIP3   OH226251   6.360   2.160   6.632  0.0521 -0.3230 -0.7398
 1587TIP3    H126252   6.370   2.144   6.726  1.5846 -1.2779 -1.0302
 1587TIP3    H226253   6.406   2.243   6.617 -1.1857  0.4362 -0.4911
 1588TIP3   OH226254   6.529   1.687   3.159 -0.5358 -0.1065 -0.2973
 1588TIP3    H126255   6.526   1.606   3.209  2.8280 -0.3234 -0.1849
 1588TIP3    H226256   6.456   1.739   3.192 -0.0229 -1.2638  3.0118
 1589TIP3   OH226257   4.320   1.361  11.746 -0.8554  0.1908 -0.3022
 1589TIP3    H126258   4.390   1.303  11.714  0.1345  0.8113  0.6403
 1589TIP3    H226259   4.361   1.447  11.752 -0.9865  0.1556  2.4008
 1590TIP3   OH226260   3.570   5.898   4.753 -0.6031 -0.1096 -0.2381
 1590TIP3    H126261   3.507   5.851   4.698 -0.7689 -0.3897  0.1791
 1590TIP3    H226262   3.528   5.901   4.839 -0.4479  0.5226 -0.1823
 1591TIP3   OH226263   4.390   3.706   4.483  0.9188 -0.6519 -0.4808
 1591TIP3    H126264   4.460   3.747   4.535  1.3870 -2.8583  0.7249
 1591TIP3    H226265   4.361   3.632   4.535 -1.9706 -0.1680 -1.2273
 1592TIP3   OH226266   5.261   5.332   2.586  0.6911  0.0854 -0.2441
 1592TIP3    H126267   5.326   5.305   2.521  1.0604  1.8377 -0.6541
 1592TIP3    H226268   5.304   5.317   2.670  1.0384 -0.1563 -0.4621
 1593TIP3   OH226269   4.174   0.993   2.369 -0.0600 -0.2898  0.4498
 1593TIP3    H126270   4.250   0.944   2.337 -0.3235 -0.0558 -0.5733
 1593TIP3    H226271   4.107   0.926   2.385 -0.0347 -0.3788  0.1834
 1594TIP3   OH226272   3.889   5.913  12.637 -0.3875  0.0647 -1.3275
 1594TIP3    H126273   3.851   5.856  12.571 -2.2933  1.4991 -1.5362
 1594TIP3    H226274   3.814   5.954  12.681  0.8695  1.8905 -0.7278
 1595TIP3   OH226275   5.192   1.847  13.808 -0.0083  0.1147  0.2288
 1595TIP3    H126276   5.236   1.812  13.731  0.3812 -0.6144  0.7759
 1595TIP3    H226277   5.151   1.928  13.778  0.6100  0.1223 -0.6024
 1596TIP3   OH226278   3.417   2.740   3.900 -0.4450 -0.1125 -0.1082
 1596TIP3    H126279   3.336   2.719   3.947  0.7615  0.4307  2.3859
 1596TIP3    H226280   3.387   2.778   3.817 -2.6907 -1.7540 -0.1403
 1597TIP3   OH226281   1.403   6.112   3.224  0.1242  0.4290  0.0811
 1597TIP3    H126282   1.413   6.114   3.319 -2.4865  0.2682  0.4281
 1597TIP3    H226283   1.439   6.195   3.194 -0.6660  1.2864  1.4238
 1598TIP3   OH226284   0.949   4.763  11.360  1.1097 -0.0021  0.1151
 1598TIP3    H126285   0.992   4.727  11.283  0.8444  1.3956 -0.7181
 1598TIP3    H226286   1.013   4.753  11.430  1.2180 -1.6153 -0.1906
 1599TIP3   OH226287   1.551   4.096   5.587 -0.3498 -0.2221 -0.1659
 1599TIP3    H126288   1.489   4.117   5.657 -2.1727 -0.5197 -1.6187
 1599TIP3    H226289   1.571   4.180   5.546  1.4133  0.0762  1.1990
 1600TIP3   OH226290   6.411   5.046   4.476 -0.0121  0.2921 -0.5081
 1600TIP3    H126291   6.453   4.972   4.519  1.2129  0.2300 -1.7226
 1600TIP3    H226292   6.371   5.096   4.547  0.9166 -0.4275  0.5557
 1601TIP3   OH226293   6.596   4.737   2.427 -0.0530 -0.4410 -0.6644
 1601TIP3    H126294   6.542   4.691   2.491  0.5772  1.9872  1.8007
 1601TIP3    H226295   6.686   4.716   2.451  0.2450 -2.4046 -3.1414
 1602TIP3   OH226296   2.209   3.052  13.742 -0.5225  0.2582 -0.2909
 1602TIP3    H126297   2.172   3.052  13.653 -2.2679  0.7694  0.3969
 1602TIP3    H226298   2.141   3.012  13.796 -0.0980  1.2898  1.0614
 1603TIP3   OH226299   2.324   0.335   0.157  0.0925  0.1585 -0.5127
 1603TIP3    H126300   2.328   0.284   0.238 -0.2149  0.4396 -0.3156
 1603TIP3    H226301   2.415   0.358   0.138  0.1032  0.6100  0.0843
 1604TIP3   OH226302   2.761   2.745   3.625  0.1067 -0.4461 -0.5136
 1604TIP3    H126303   2.794   2.826   3.587 -1.8058  1.4689  1.6235
 1604TIP3    H226304   2.791   2.677   3.565  0.4562  1.9420 -3.2708
 1605TIP3   OH226305   4.118   5.318  12.801 -0.4074 -0.1006  0.0498
 1605TIP3    H126306   4.051   5.385  12.783 -0.3439  0.2140  0.9279
 1605TIP3    H226307   4.170   5.314  12.721 -0.7499  0.5142 -0.2130
 1606TIP3   OH226308   2.602   5.474  11.514  0.2274 -0.1781  0.1265
 1606TIP3    H126309   2.696   5.468  11.497  0.2722 -3.8835  0.8677
 1606TIP3    H226310   2.564   5.506  11.432  2.1354  2.8112  0.2631
 1607TIP3   OH226311   1.568   6.098   4.243  0.1198  0.1659 -0.2736
 1607TIP3    H126312   1.573   6.008   4.211 -1.1299 -0.1347  0.3321
 1607TIP3    H226313   1.511   6.143   4.180  2.1829  1.0684 -1.6455
 1608TIP3   OH226314   4.163   6.194  17.046  0.3019  0.2569  0.3623
 1608TIP3    H126315   4.244   6.148  17.028  1.4899  3.1769 -3.0472
 1608TIP3    H226316   4.190   6.273  17.093 -0.5907  0.9816 -0.2947
 1609TIP3   OH226317   1.841   0.805   2.187  0.3638  0.0254  0.1195
 1609TIP3    H126318   1.803   0.794   2.100  1.0716  0.0233 -0.1937
 1609TIP3    H226319   1.930   0.771   2.179  0.5556  0.3695  0.7416
 1610TIP3   OH226320   4.073   0.484  12.096  0.3168 -0.0657  0.0073
 1610TIP3    H126321   4.061   0.423  12.169  1.6971  0.9787  1.1714
 1610TIP3    H226322   4.133   0.439  12.037 -0.7979 -0.9131 -0.5259
 1611TIP3   OH226323   5.441   2.439   2.089 -0.2253 -0.3942  0.2505
 1611TIP3    H126324   5.483   2.398   2.165  0.8192  0.1342 -0.0373
 1611TIP3    H226325   5.473   2.389   2.014 -0.9492 -0.6640  0.1102
 1612TIP3   OH226326   0.612   4.790   2.473 -0.2058  0.2003  0.0125
 1612TIP3    H126327   0.533   4.835   2.503 -0.9957 -0.7986 -0.5102
 1612TIP3    H226328   0.600   4.778   2.379  1.4470  1.7110 -0.4425
 1613TIP3   OH226329   2.042   5.852   4.623 -0.4043 -0.1950 -0.3061
 1613TIP3    H126330   2.080   5.772   4.586  1.4376  0.1276  0.7338
 1613TIP3    H226331   2.008   5.900   4.548 -0.2478 -1.2961 -1.1052
 1614TIP3   OH226332   0.726   6.075   2.047  0.1184 -0.1223 -0.0492
 1614TIP3    H126333   0.748   6.165   2.072 -0.0960 -0.8918  3.5223
 1614TIP3    H226334   0.810   6.034   2.027  0.2677  0.6819 -1.1778
 1615TIP3   OH226335   0.186   3.109   0.120 -0.2112  0.3664 -0.7010
 1615TIP3    H126336   0.210   3.105   0.212 -2.0199  0.0058 -0.2073
 1615TIP3    H226337   0.195   3.202   0.097 -1.2195  0.7288  0.2876
 1616TIP3   OH226338   5.095   4.152   3.716 -0.4833  0.0174 -0.0023
 1616TIP3    H126339   5.056   4.067   3.691 -1.0010  0.3338 -0.2862
 1616TIP3    H226340   5.046   4.179   3.793  1.8668 -1.5086  2.2174
 1617TIP3   OH226341   1.307   5.691  13.207 -0.6618 -0.0830  0.2012
 1617TIP3    H126342   1.326   5.780  13.176 -1.1022 -0.4618 -1.2125
 1617TIP3    H226343   1.321   5.695  13.301  0.6190  1.1590 -0.0095
 1618TIP3   OH226344   2.653   5.313  11.728 -0.3387  0.3140 -0.1917
 1618TIP3    H126345   2.592   5.326  11.801 -0.8744 -1.5429 -0.2370
 1618TIP3    H226346   2.620   5.369  11.658 -1.1001  0.4853  0.2994
 1619TIP3   OH226347   2.445   6.365   5.043  0.1379 -0.0344  0.3842
 1619TIP3    H126348   2.427   6.338   4.953 -0.0880  2.3919 -0.3664
 1619TIP3    H226349   2.412   6.455   5.049 -0.0148 -0.1664  2.9588
 1620TIP3   OH226350   1.381   4.186  14.172 -0.2709  0.5188 -0.2742
 1620TIP3    H126351   1.442   4.219  14.238  0.1304  0.9327 -0.8436
 1620TIP3    H226352   1.339   4.264  14.136  0.3336  0.3930 -1.2936
 1621TIP3   OH226353   1.744   3.730   4.455  0.6099  0.2766 -0.2430
 1621TIP3    H126354   1.832   3.691   4.447  0.3561 -0.5691  0.8029
 1621TIP3    H226355   1.756   3.804   4.514  0.2740 -1.2325  1.8545
 1622TIP3   OH226356   0.686   6.223  14.931  0.4007 -0.1698 -0.2882
 1622TIP3    H126357   0.673   6.129  14.923 -1.1603 -0.1374  1.2617
 1622TIP3    H226358   0.606   6.262  14.896  0.9680  0.6054 -0.7834
 1623TIP3   OH226359   2.218   2.849  16.912 -0.0283  0.2015  0.5488
 1623TIP3    H126360   2.251   2.865  16.824 -2.3221  0.6782 -0.2913
 1623TIP3    H226361   2.149   2.915  16.924 -0.7664 -0.8041  2.1248
 1624TIP3   OH226362   6.238   0.197   4.668 -0.5714 -0.2718 -0.2953
 1624TIP3    H126363   6.227   0.207   4.574 -2.3310 -0.9688 -0.2005
 1624TIP3    H226364   6.325   0.235   4.686  1.4122 -3.1798 -2.6677
 1625TIP3   OH226365   0.588   1.860   5.554 -0.0489  0.3248 -0.2904
 1625TIP3    H126366   0.642   1.816   5.489 -0.3115 -0.6728  0.1501
 1625TIP3    H226367   0.498   1.838   5.531 -0.1336 -0.3484  0.6055
 1626TIP3   OH226368   4.086   1.827   5.662  0.2484 -0.4484 -0.2006
 1626TIP3    H126369   4.060   1.913   5.694  0.1536 -0.3824 -0.4501
 1626TIP3    H226370   4.130   1.785   5.736 -0.6338 -0.5903  0.2569
 1627TIP3   OH226371   0.421   5.541   5.503  0.3297 -0.0108  0.6800
 1627TIP3    H126372   0.437   5.450   5.528 -0.7542 -0.2557  0.5422
 1627TIP3    H226373   0.494   5.590   5.541  1.1056 -0.9818  0.4661
 1628TIP3   OH226374   1.574   4.141   2.157  0.3505 -0.5195 -0.1724
 1628TIP3    H126375   1.649   4.199   2.147 -1.1088  1.1938 -2.0029
 1628TIP3    H226376   1.510   4.191   2.208 -0.3829 -1.0855 -0.5030
 1629TIP3   OH226377   2.037   3.593   3.130 -0.0242  0.5849 -0.0838
 1629TIP3    H126378   2.092   3.593   3.051  0.7038  1.8760  0.3939
 1629TIP3    H226379   2.078   3.528   3.187 -0.4700 -0.2533 -0.7006
 1630TIP3   OH226380   5.224   6.820  12.177  0.2760  0.1099 -0.5328
 1630TIP3    H126381   5.198   6.834  12.086  0.0766  0.6271 -0.4005
 1630TIP3    H226382   5.175   6.742  12.204  0.0235  0.1926 -0.7456
 1631TIP3   OH226383   3.569   1.711  14.929  0.1146  0.3995  0.0414
 1631TIP3    H126384   3.579   1.617  14.915 -1.9064  0.0934  0.3937
 1631TIP3    H226385   3.475   1.723  14.946  0.4552  2.3787  0.7629
 1632TIP3   OH226386   0.514   0.359  13.790  0.5951 -0.0927 -0.0225
 1632TIP3    H126387   0.427   0.325  13.811  0.2850  0.9956  0.5437
 1632TIP3    H226388   0.540   0.313  13.710 -0.1952 -0.9416  0.1958
 1633TIP3   OH226389   0.530   0.722   0.149  0.0928  0.2168  0.6659
 1633TIP3    H126390   0.490   0.677   0.223  0.6909  1.0128  1.4878
 1633TIP3    H226391   0.540   0.812   0.178  0.1680  0.5885 -0.4591
 1634TIP3   OH226392   6.618   5.848  15.386 -0.1721 -0.7989 -0.5240
 1634TIP3    H126393   6.699   5.857  15.336 -0.2895  1.6760 -0.3962
 1634TIP3    H226394   6.647   5.826  15.475  1.0163  4.9952  0.9370
 1635TIP3   OH226395   0.966   3.588  13.304  0.2758 -0.1516  0.3249
 1635TIP3    H126396   1.030   3.560  13.239  0.4835  3.1407 -1.1121
 1635TIP3    H226397   0.887   3.606  13.253  0.4157  2.4468  0.8823
 1636TIP3   OH226398   1.823   3.167  16.512  0.1369 -0.2876  0.8341
 1636TIP3    H126399   1.783   3.115  16.581 -0.1904 -1.0304  0.0953
 1636TIP3    H226400   1.750   3.214  16.471  0.3538  0.3041  1.1135
 1637TIP3   OH226401   1.053   1.665   6.448 -0.0657  0.5930  0.2316
 1637TIP3    H126402   1.019   1.597   6.507 -0.4747 -1.4541 -2.1715
 1637TIP3    H226403   1.147   1.664   6.461 -0.1360  0.0708  0.7310
 1638TIP3   OH226404   4.152   4.323  13.424 -0.7145 -0.3307 -0.6157
 1638TIP3    H126405   4.075   4.282  13.385 -2.9229  1.2117  1.8027
 1638TIP3    H226406   4.117   4.383  13.490  2.5812 -0.0239  1.0888
 1639TIP3   OH226407   0.515   6.685   2.176  0.3465 -0.4895  0.4206
 1639TIP3    H126408   0.499   6.616   2.111  0.3442 -1.8785  1.8257
 1639TIP3    H226409   0.600   6.722   2.152 -0.8669  0.9674 -1.9765
 1640TIP3   OH226410   5.037   2.841   5.216  0.0174  0.3535 -0.1449
 1640TIP3    H126411   5.009   2.920   5.261 -0.6523  0.0361  0.0151
 1640TIP3    H226412   5.014   2.770   5.277  3.3664  0.1788  1.1098
 1641TIP3   OH226413   2.501   6.440  12.325 -0.0093  0.5196 -0.0973
 1641TIP3    H126414   2.455   6.503  12.381  0.2876 -0.7297  1.6486
 1641TIP3    H226415   2.432   6.383  12.291  0.1049 -2.5861  4.0783
 1642TIP3   OH226416   1.293   3.458  16.943  0.0524  0.1599 -0.1122
 1642TIP3    H126417   1.335   3.373  16.951 -1.1208 -0.4463 -0.1705
 1642TIP3    H226418   1.275   3.485  17.032 -0.8388 -0.3236 -0.1306
 1643TIP3   OH226419   0.176   4.280  17.075  0.2011 -0.0816 -0.2689
 1643TIP3    H126420   0.107   4.216  17.096 -0.2616  0.3483 -0.4585
 1643TIP3    H226421   0.132   4.345  17.020  0.4153  0.9569  0.7622
 1644TIP3   OH226422   4.798   4.295  13.160 -0.0615  0.8051  0.2494
 1644TIP3    H126423   4.804   4.213  13.210 -1.4905  1.5087  1.6854
 1644TIP3    H226424   4.706   4.298  13.132 -0.0619  1.9972  0.3555
 1645TIP3   OH226425   6.125   5.346  10.796  1.0138  0.0875  0.1252
 1645TIP3    H126426   6.038   5.374  10.768 -0.7340 -0.9676  3.8166
 1645TIP3    H226427   6.158   5.418  10.849  0.6053 -0.9662  1.9021
 1646TIP3   OH226428   4.338   1.370  10.999  0.2366  0.0768  0.0370
 1646TIP3    H126429   4.267   1.415  11.045 -0.3394  0.4582 -1.1932
 1646TIP3    H226430   4.371   1.435  10.938  1.0258 -0.4112 -0.0549
 1647TIP3   OH226431   2.723   5.753   2.531 -0.0156  0.1965  0.5834
 1647TIP3    H126432   2.753   5.792   2.613  1.0394 -0.2191  0.4073
 1647TIP3    H226433   2.803   5.739   2.480 -0.6667  0.6057 -0.5950
 1648TIP3   OH226434   5.036   0.263   5.661  0.2724 -0.5325 -0.1892
 1648TIP3    H126435   5.023   0.292   5.751 -1.4056 -0.2073 -0.5142
 1648TIP3    H226436   4.959   0.294   5.613  1.9495  0.8590 -2.1595
 1649TIP3   OH226437   4.894   3.413  11.689 -0.8413 -0.1795 -0.9000
 1649TIP3    H126438   4.946   3.434  11.767 -1.3488 -2.0302 -0.0012
 1649TIP3    H226439   4.919   3.479  11.625 -0.7393  1.6824  0.9688
 1650TIP3   OH226440   5.866   5.964   1.560 -0.2740  0.4841 -0.2144
 1650TIP3    H126441   5.949   5.941   1.519 -0.0369  0.4579  0.2760
 1650TIP3    H226442   5.866   6.060   1.561 -0.2218  0.4834 -0.1591
 1651TIP3   OH226443   6.410   0.349  12.754  0.0181 -0.3518  0.1957
 1651TIP3    H126444   6.453   0.427  12.787  0.8157  0.2887 -2.1352
 1651TIP3    H226445   6.365   0.312  12.830  1.1775  1.3025  1.7789
 1652TIP3   OH226446   1.465   6.110  15.479  0.1297 -0.3582  0.1418
 1652TIP3    H126447   1.404   6.159  15.424  2.3251  1.1909 -1.0743
 1652TIP3    H226448   1.418   6.099  15.562 -0.8732  3.0772  0.1889
 1653TIP3   OH226449   5.024   4.212  11.997 -0.4565  0.2326  0.0325
 1653TIP3    H126450   5.021   4.127  12.039  3.7253 -0.4762 -0.7350
 1653TIP3    H226451   4.955   4.208  11.930  0.5012 -3.1132 -0.9078
 1654TIP3   OH226452   3.010   4.714   1.315 -0.8119  0.1502 -0.2362
 1654TIP3    H126453   3.010   4.788   1.376  3.3668  0.3460 -0.1955
 1654TIP3    H226454   3.056   4.747   1.237 -2.0137 -1.4388 -1.7067
 1655TIP3   OH226455   0.705   2.705   1.844  0.0754  0.3147  0.5836
 1655TIP3    H126456   0.720   2.737   1.933  0.0229 -0.0796  0.7363
 1655TIP3    H226457   0.672   2.616   1.855 -2.2147  1.0515  0.2646
 1656TIP3   OH226458   4.777   2.760   3.813  0.2054 -0.4152  0.5251
 1656TIP3    H126459   4.828   2.733   3.889 -1.0898 -2.3113  0.8044
 1656TIP3    H226460   4.686   2.756   3.842 -0.3008 -0.6782 -0.9723
 1657TIP3   OH226461   5.585   3.043  11.876  0.0363  0.4778 -0.1650
 1657TIP3    H126462   5.670   3.077  11.851 -0.7972  1.4989 -1.7876
 1657TIP3    H226463   5.534   3.042  11.795 -1.8273  0.9146  0.9269
 1658TIP3   OH226464   4.577   6.173   1.736 -0.2523 -0.0358 -0.2423
 1658TIP3    H126465   4.607   6.096   1.688  1.8209 -0.8276  2.0979
 1658TIP3    H226466   4.653   6.231   1.739 -0.6440  0.4424  1.1505
 1659TIP3   OH226467   0.376   2.859  11.509 -0.3456  0.4876  0.0774
 1659TIP3    H126468   0.467   2.861  11.539  0.0250  0.2893 -0.9885
 1659TIP3    H226469   0.330   2.917  11.570  0.6387  1.2062  0.1736
 1660TIP3   OH226470   3.938   3.087   5.795 -0.8635  0.2805 -0.2484
 1660TIP3    H126471   3.877   3.090   5.722 -2.0917 -1.0500  0.6701
 1660TIP3    H226472   3.990   3.008   5.781 -0.1220  0.7874 -0.4177
 1661TIP3   OH226473   2.440   0.461  14.222  0.3203 -0.5621 -0.6829
 1661TIP3    H126474   2.453   0.517  14.146  0.3148 -0.4316 -0.5887
 1661TIP3    H226475   2.490   0.382  14.203 -0.2475 -0.8221 -1.1338
 1662TIP3   OH226476   1.478   5.670   5.920 -0.2197  0.4196 -0.6184
 1662TIP3    H126477   1.512   5.749   5.962  1.9974  0.5837 -2.5127
 1662TIP3    H226478   1.516   5.598   5.971 -1.6480  0.4997  0.6530
 1663TIP3   OH226479   1.687   1.762   5.737 -0.2175  0.2488 -0.1130
 1663TIP3    H126480   1.746   1.763   5.813  0.2329  1.7408 -0.4365
 1663TIP3    H226481   1.607   1.805   5.769 -0.9676 -1.2940  0.1742
 1664TIP3   OH226482   3.052   0.028  16.314 -0.5953  0.0903 -0.0232
 1664TIP3    H126483   3.042   0.052  16.406  1.6798 -1.0433  0.5886
 1664TIP3    H226484   3.061   0.111  16.269  0.6704  0.6261  1.1401
 1665TIP3   OH226485   5.050   4.252  13.732  0.0709 -0.6291  0.1871
 1665TIP3    H126486   5.096   4.189  13.788 -1.0506 -2.3334 -0.7357
 1665TIP3    H226487   5.012   4.315  13.793 -1.2085 -2.4915  1.3905
 1666TIP3   OH226488   1.776   5.062  12.292  0.3491 -0.1469 -0.0585
 1666TIP3    H126489   1.744   4.980  12.254  0.7036  0.3497 -1.4885
 1666TIP3    H226490   1.790   5.120  12.216  1.1498  0.8624  0.8269
 1667TIP3   OH226491   4.856   2.083  10.637  0.1754  0.5565 -0.5675
 1667TIP3    H126492   4.831   2.019  10.571 -0.7718 -2.6348  2.5513
 1667TIP3    H226493   4.946   2.060  10.661 -0.3089  0.0154  0.8627
 1668TIP3   OH226494   1.735   5.147   1.591 -0.0751 -0.0809 -0.0814
 1668TIP3    H126495   1.671   5.218   1.580  1.0390  1.0048  0.3487
 1668TIP3    H226496   1.681   5.069   1.602 -1.3454  0.4084 -2.1823
 1669TIP3   OH226497   3.507   0.260   1.045  0.2892 -0.3012  0.2513
 1669TIP3    H126498   3.534   0.308   0.967 -0.3875  0.0206  0.2097
 1669TIP3    H226499   3.580   0.270   1.106  0.4197  0.2452  0.0061
 1670TIP3   OH226500   1.356   1.325  15.742 -0.2564 -0.1883  0.5592
 1670TIP3    H126501   1.389   1.401  15.790 -1.1002 -0.4275  1.5626
 1670TIP3    H226502   1.344   1.356  15.652  3.2583 -0.2659 -0.0768
 1671TIP3   OH226503   5.025   5.578   2.824  0.6065 -0.3306 -0.2870
 1671TIP3    H126504   5.024   5.624   2.740  0.7923 -2.0208 -1.2653
 1671TIP3    H226505   5.043   5.487   2.801  2.1421 -0.5944  1.7279
 1672TIP3   OH226506   3.640   2.512   3.063 -0.0799  0.3636 -0.0212
 1672TIP3    H126507   3.700   2.463   3.006 -0.6433 -2.3032  1.5007
 1672TIP3    H226508   3.696   2.576   3.107  1.2687 -0.7108 -0.1084
 1673TIP3   OH226509   3.801   5.976  17.186  0.9696  1.3475 -0.9399
 1673TIP3    H126510   3.705   5.975  17.191  1.0191 -0.6300  1.0234
 1673TIP3    H226511   3.821   5.922  17.109  0.5055  0.8176 -0.6966
 1674TIP3   OH226512   6.684   3.503   0.256 -0.2203  0.1816  0.3874
 1674TIP3    H126513   6.597   3.545   0.252 -1.5530 -2.2567  1.4857
 1674TIP3    H226514   6.710   3.494   0.164 -2.3365 -1.2916 -0.1361
 1675TIP3   OH226515   2.929   2.245  12.798  0.1285  0.1894 -0.1889
 1675TIP3    H126516   2.859   2.308  12.813  0.5038  1.1069 -2.1290
 1675TIP3    H226517   2.909   2.205  12.713  2.1408  0.7574 -0.9789
 1676TIP3   OH226518   5.454   1.006  13.147 -0.4327  0.7153  0.2345
 1676TIP3    H126519   5.411   0.933  13.101 -0.6580 -0.7799  2.6350
 1676TIP3    H226520   5.544   0.975  13.161  0.0325  1.7427 -0.4192
 1677TIP3   OH226521   2.009   3.781   3.942  0.4678 -0.2907 -0.3285
 1677TIP3    H126522   2.046   3.770   3.854  1.4430 -0.5291  0.0970
 1677TIP3    H226523   2.038   3.703   3.990 -1.0659 -0.7590 -0.1227
 1678TIP3   OH226524   5.596   4.520  16.584  0.2991  0.0480 -0.2883
 1678TIP3    H126525   5.549   4.494  16.504  0.9886 -0.0980 -0.6547
 1678TIP3    H226526   5.684   4.540  16.554 -0.1895  3.0110 -0.0490
 1679TIP3   OH226527   6.177   4.719   3.320 -1.2368 -0.6872 -0.0567
 1679TIP3    H126528   6.273   4.726   3.321 -1.1539 -0.3343  3.4966
 1679TIP3    H226529   6.157   4.649   3.383 -3.3192 -0.4342 -0.3610
 1680TIP3   OH226530   0.382   3.727  11.171 -0.2515 -0.3171 -0.0289
 1680TIP3    H126531   0.332   3.662  11.222 -1.8654  0.2421 -0.8301
 1680TIP3    H226532   0.344   3.722  11.083  2.6399 -1.4491 -1.3330
 1681TIP3   OH226533   2.965   4.802   6.469 -0.1710  0.3396 -0.5576
 1681TIP3    H126534   2.906   4.811   6.394  1.8842 -1.2894 -2.5011
 1681TIP3    H226535   2.953   4.711   6.498 -0.6576  0.8397  0.8975
 1682TIP3   OH226536   5.795   5.075   5.442  0.4289 -0.0478 -0.0608
 1682TIP3    H126537   5.711   5.113   5.415  1.0210 -0.4928 -2.8747
 1682TIP3    H226538   5.845   5.149   5.476 -0.3163  0.6495 -0.4443
 1683TIP3   OH226539   1.176   1.413   1.416  1.0062  0.0974  0.0730
 1683TIP3    H126540   1.133   1.480   1.469 -0.9857 -1.3813  0.4475
 1683TIP3    H226541   1.139   1.424   1.329 -1.2589 -1.9641  0.6648
 1684TIP3   OH226542   4.982   5.991   3.938 -0.3640 -0.2471  0.3615
 1684TIP3    H126543   5.006   6.070   3.987  1.3970 -0.5412  0.0352
 1684TIP3    H226544   5.063   5.940   3.933 -1.2486 -1.6627 -0.2150
 1685TIP3   OH226545   1.665   1.659   2.251 -0.5226 -0.0956  0.1998
 1685TIP3    H126546   1.596   1.668   2.316 -0.5446  0.7929  0.0655
 1685TIP3    H226547   1.623   1.682   2.168  0.0905  1.1407  0.2111
 1686TIP3   OH226548   6.490   5.429  14.670 -0.7734 -0.2747  0.1157
 1686TIP3    H126549   6.584   5.414  14.661 -0.6005  0.7038  0.2021
 1686TIP3    H226550   6.456   5.347  14.705  0.1356 -0.4625  0.5938
 1687TIP3   OH226551   5.852   6.057  12.901  0.0422 -0.4754  0.3547
 1687TIP3    H126552   5.934   6.011  12.885  0.4089  0.6609 -1.1817
 1687TIP3    H226553   5.803   5.999  12.960  2.2404 -0.8219  1.9721
 1688TIP3   OH226554   2.846   1.093  14.536  0.4099 -0.6584  0.0047
 1688TIP3    H126555   2.878   1.133  14.455 -0.7414  0.2689 -0.0250
 1688TIP3    H226556   2.900   1.015  14.547 -0.6711 -1.9189 -2.7291
 1689TIP3   OH226557   0.802   0.025   5.996  0.2463 -0.5526 -0.0070
 1689TIP3    H126558   0.887   0.044   5.956  0.3155  0.1578  0.4723
 1689TIP3    H226559   0.823  -0.038   6.065 -0.0452 -2.8575 -1.8910
 1690TIP3   OH226560   5.644   3.219   3.883 -0.4762 -0.3669 -0.0898
 1690TIP3    H126561   5.676   3.186   3.799  0.1840 -1.1025  0.4420
 1690TIP3    H226562   5.587   3.149   3.916 -1.2148  0.1741 -0.1913
 1691TIP3   OH226563   1.302   1.705  11.129  1.0738 -0.1203 -0.0781
 1691TIP3    H126564   1.354   1.692  11.208  0.3819 -1.8768  0.1279
 1691TIP3    H226565   1.220   1.657  11.145  0.7942 -0.2645 -1.7167
 1692TIP3   OH226566   2.656   1.247   4.029  0.1712 -0.1418  0.5051
 1692TIP3    H126567   2.647   1.190   4.106  0.6267 -0.9811 -0.0525
 1692TIP3    H226568   2.749   1.270   4.026  0.0988  0.1405  0.3733
 1693TIP3   OH226569   6.691   3.301  13.932  0.0650 -0.4637  0.8829
 1693TIP3    H126570   6.759   3.281  13.997  0.4450  1.2109  1.0331
 1693TIP3    H226571   6.700   3.394  13.915 -0.4208 -0.7299 -1.1594
 1694TIP3   OH226572   6.029   2.027   5.883 -0.2574  0.5722  0.2303
 1694TIP3    H126573   6.086   2.068   5.818  0.0817  0.6262  0.5575
 1694TIP3    H226574   5.946   2.075   5.876  0.6109  2.4797  1.7249
 1695TIP3   OH226575   0.927   4.111  15.273  0.3394  0.0119  0.5111
 1695TIP3    H126576   0.919   4.200  15.305 -0.4718  0.7119 -1.4775
 1695TIP3    H226577   0.975   4.119  15.190 -1.8323 -1.0482 -0.9376
 1696TIP3   OH226578   4.117   2.746   0.183 -0.2970 -0.8639  0.2155
 1696TIP3    H126579   4.061   2.817   0.151 -1.0933 -0.5877  2.0594
 1696TIP3    H226580   4.205   2.769   0.154 -1.0606 -1.3249 -2.7973
 1697TIP3   OH226581   3.097   3.174  12.281  0.5492  0.2360  0.4021
 1697TIP3    H126582   3.088   3.153  12.374 -1.3309  0.4212  0.3080
 1697TIP3    H226583   3.017   3.139  12.241  1.7022 -0.5711 -1.3010
 1698TIP3   OH226584   5.777   1.063  14.340 -0.7769 -0.3917 -0.1792
 1698TIP3    H126585   5.729   1.083  14.260  0.4033  0.4150 -0.7221
 1698TIP3    H226586   5.731   0.988  14.378 -1.7150 -0.4052 -1.2947
 1699TIP3   OH226587   6.673   3.748  15.952  0.0880 -0.0761 -0.6461
 1699TIP3    H126588   6.582   3.749  15.983 -0.3126  0.2000 -1.7919
 1699TIP3    H226589   6.707   3.664  15.982 -0.9429 -0.7354 -1.2627
 1700TIP3   OH226590   2.824   0.760   4.839  0.3996 -0.0323  0.0331
 1700TIP3    H126591   2.917   0.764   4.819  2.0326  2.1900  5.7754
 1700TIP3    H226592   2.789   0.844   4.808  0.6780 -0.2171 -0.7830
 1701TIP3   OH226593   2.018   5.009   3.635  0.0375 -0.3279  0.3144
 1701TIP3    H126594   1.951   4.944   3.614  0.3632 -0.9506  1.1441
 1701TIP3    H226595   2.050   5.039   3.550 -1.0001 -0.3139 -0.0882
 1702TIP3   OH226596   1.465   0.954   4.575 -0.1784 -0.2572 -0.4117
 1702TIP3    H126597   1.442   0.922   4.488 -0.5685 -0.7927 -0.1161
 1702TIP3    H226598   1.504   0.879   4.619 -0.3832 -0.1146  0.0234
 1703TIP3   OH226599   0.843   1.702  15.479  0.1851  0.5681  0.0103
 1703TIP3    H126600   0.913   1.734  15.536 -0.4219  1.6783  0.1503
 1703TIP3    H226601   0.771   1.682  15.539  0.3207 -0.4690 -0.1473
 1704TIP3   OH226602   2.240   4.931   2.725 -0.3920  0.2695  0.0200
 1704TIP3    H126603   2.332   4.923   2.748 -0.0092  0.9149 -1.2167
 1704TIP3    H226604   2.238   4.929   2.629 -1.5443  1.2972 -0.0114
 1705TIP3   OH226605   5.643   5.338   4.088 -0.0429  0.2547  0.1450
 1705TIP3    H126606   5.674   5.304   4.173 -0.4919 -1.7100 -0.4258
 1705TIP3    H226607   5.676   5.428   4.085  0.7105  0.0937  2.0296
 1706TIP3   OH226608   2.538   4.003   2.549  0.3423 -0.0871  0.4812
 1706TIP3    H126609   2.610   3.979   2.607  1.1598  0.8399 -0.1309
 1706TIP3    H226610   2.580   4.023   2.465 -0.7766 -0.9544 -0.3173
 1707TIP3   OH226611   2.029   6.754  16.951 -0.1628 -0.5016 -0.3677
 1707TIP3    H126612   2.067   6.675  16.914  0.1268 -0.7359  0.3949
 1707TIP3    H226613   2.007   6.730  17.041 -1.9408 -0.2980 -0.7122
 1708TIP3   OH226614   1.254   2.446   1.014 -0.3406  0.1041  0.9094
 1708TIP3    H126615   1.208   2.370   0.978  2.6905 -1.1671 -0.6452
 1708TIP3    H226616   1.250   2.512   0.945  1.1373 -0.4595  0.2621
 1709TIP3   OH226617   2.849   6.211  13.422 -0.1795  0.7444 -0.3541
 1709TIP3    H126618   2.803   6.127  13.422  2.2914 -0.7305  0.7648
 1709TIP3    H226619   2.859   6.233  13.514  1.4130  0.9157 -0.5336
 1710TIP3   OH226620   3.045   2.447   1.185 -0.3095 -0.0379 -0.2656
 1710TIP3    H126621   3.115   2.491   1.136 -2.1367  2.3818 -0.8690
 1710TIP3    H226622   2.992   2.404   1.118  0.1763 -1.3115  0.1342
 1711TIP3   OH226623   3.815   1.616   2.974  0.2416  0.1239 -0.1349
 1711TIP3    H126624   3.756   1.673   2.925 -0.1524  0.1894  0.3967
 1711TIP3    H226625   3.766   1.593   3.053  1.2995  1.0224  0.8268
 1712TIP3   OH226626   5.237   0.018  12.459  0.5049  0.2100  0.6495
 1712TIP3    H126627   5.157   0.051  12.418 -0.0373 -0.3428  1.2525
 1712TIP3    H226628   5.295   0.000  12.385 -0.8952 -1.9331 -0.0502
 1713TIP3   OH226629   4.377   2.158  14.784 -0.1529 -0.5518 -0.4736
 1713TIP3    H126630   4.471   2.140  14.777 -0.0170 -0.0461 -0.0871
 1713TIP3    H226631   4.359   2.150  14.878 -0.3307  0.0866 -0.4468
 1714TIP3   OH226632   3.023   4.286  12.866 -0.3302 -0.1652 -0.5396
 1714TIP3    H126633   3.020   4.232  12.787  1.3075 -1.0700 -0.0174
 1714TIP3    H226634   3.116   4.297  12.885 -0.6793 -0.2140  1.4279
 1715TIP3   OH226635   4.332   2.564   5.091 -0.2221 -0.4381  0.0796
 1715TIP3    H126636   4.376   2.555   5.175  0.1884  0.3676 -0.0415
 1715TIP3    H226637   4.392   2.525   5.027  0.2233  0.4424 -0.0528
 1716TIP3   OH226638   0.878   3.858  16.138 -1.0797 -0.8314 -0.0787
 1716TIP3    H126639   0.860   3.771  16.104  0.1454 -1.5987  1.1207
 1716TIP3    H226640   0.922   3.842  16.222  1.8258  0.8666 -1.1237
 1717TIP3   OH226641   3.414   0.021   1.229 -0.3184 -0.0205 -0.4002
 1717TIP3    H126642   3.433  -0.073   1.222  0.8343  0.2867 -1.9845
 1717TIP3    H226643   3.483   0.055   1.287 -1.9620 -0.4289  1.9204
 1718TIP3   OH226644   4.549   2.496   5.553 -0.4393 -0.0864 -0.1059
 1718TIP3    H126645   4.613   2.465   5.617 -1.4762 -1.4713  0.3120
 1718TIP3    H226646   4.577   2.457   5.470 -1.7992 -2.4082  0.4355
 1719TIP3   OH226647   1.748   4.188  11.279  0.4210 -0.4001  0.1006
 1719TIP3    H126648   1.655   4.171  11.264  0.5497 -1.6236  0.5537
 1719TIP3    H226649   1.769   4.138  11.358  1.1836  0.8637  0.7394
 1720TIP3   OH226650   6.226   1.404   0.924  0.4606 -0.1782 -0.3545
 1720TIP3    H126651   6.284   1.467   0.967 -0.4513  0.9738 -0.7795
 1720TIP3    H226652   6.285   1.353   0.868  1.2679  0.0266  0.2898
 1721TIP3   OH226653   0.913   2.777  16.925 -0.2296  0.1613 -0.0268
 1721TIP3    H126654   0.892   2.802  16.835 -0.9671  0.2259  0.1569
 1721TIP3    H226655   0.985   2.714  16.916  0.5801  1.1295 -0.5805
 1722TIP3   OH226656   4.815   2.249   1.780  0.5940 -0.0076  0.1977
 1722TIP3    H126657   4.862   2.167   1.800 -0.6417 -0.2222  2.4789
 1722TIP3    H226658   4.884   2.315   1.775  1.6996 -1.1897 -2.3325
 1723TIP3   OH226659   4.286   3.971  11.826 -0.1992  0.1450 -0.3276
 1723TIP3    H126660   4.358   4.022  11.789  0.1240  0.3638  0.5967
 1723TIP3    H226661   4.328   3.902  11.877 -0.6240  0.7858  0.9300
 1724TIP3   OH226662   4.143   5.808  10.730  0.4541 -0.1789 -0.2370
 1724TIP3    H126663   4.089   5.877  10.692 -0.3240 -0.8244 -0.3271
 1724TIP3    H226664   4.190   5.770  10.656 -0.4539 -0.9058 -0.4487
 1725TIP3   OH226665   1.452   6.100  14.027 -0.3316  0.0626  0.4209
 1725TIP3    H126666   1.538   6.129  14.054  0.2899 -1.1037 -0.2221
 1725TIP3    H226667   1.445   6.010  14.058 -1.5606  0.3262  0.9797
 1726TIP3   OH226668   0.836   2.050  15.544  0.1486 -0.2449 -0.0249
 1726TIP3    H126669   0.873   1.985  15.604  0.5566  0.3138  0.3355
 1726TIP3    H226670   0.769   2.095  15.595  1.1475  0.8760  0.3317
 1727TIP3   OH226671   0.678   5.873  11.810  0.8125 -0.0104 -0.1922
 1727TIP3    H126672   0.664   5.784  11.779  1.6295  0.1113 -0.9610
 1727TIP3    H226673   0.752   5.866  11.870 -1.4753 -0.4422  2.8179
 1728TIP3   OH226674   3.480   6.643   3.226 -0.0090 -0.4004 -0.7889
 1728TIP3    H126675   3.478   6.548   3.240 -0.0719 -0.3248 -0.2397
 1728TIP3    H226676   3.388   6.669   3.223 -0.0105 -0.1560  0.6074
 1729TIP3   OH226677   3.094   6.691   1.937  0.1191  0.0144 -0.0415
 1729TIP3    H126678   3.067   6.615   1.886 -1.1280 -0.4139  1.1726
 1729TIP3    H226679   3.180   6.716   1.902  0.1598 -1.4277 -1.0174
 1730TIP3   OH226680   3.247   2.226  15.557 -0.0453 -0.6175  0.1572
 1730TIP3    H126681   3.239   2.309  15.510  1.7602 -0.2844  0.3688
 1730TIP3    H226682   3.201   2.240  15.640 -0.0008  0.0630  0.0657
 1731TIP3   OH226683   4.709   0.180  10.608  0.0288  0.0787 -0.2854
 1731TIP3    H126684   4.653   0.163  10.533 -0.4636 -0.5564  0.2187
 1731TIP3    H226685   4.796   0.149  10.580 -0.1217 -0.0317 -0.6366
 1732TIP3   OH226686   6.102   3.927  14.582  0.3067  0.6510 -0.5074
 1732TIP3    H126687   6.168   3.922  14.652  0.9685 -1.8851 -1.1898
 1732TIP3    H226688   6.154   3.936  14.502 -0.3171  0.9889 -0.8789
 1733TIP3   OH226689   3.151   5.312  11.242  0.1364  0.1223  0.9270
 1733TIP3    H126690   3.071   5.355  11.210  0.6007  0.1431 -0.2477
 1733TIP3    H226691   3.217   5.381  11.241  0.0085  0.3161  2.6898
 1734TIP3   OH226692   3.186   3.403   5.080 -0.4327 -0.1124  0.4815
 1734TIP3    H126693   3.238   3.334   5.039 -2.6041 -1.6459  0.1381
 1734TIP3    H226694   3.137   3.442   5.008 -0.7373  0.3949  0.9616
 1735TIP3   OH226695   4.446   1.819   0.102 -0.3282  0.3017  0.2099
 1735TIP3    H126696   4.418   1.910   0.103 -1.2469  0.0359  1.4813
 1735TIP3    H226697   4.385   1.775   0.161  0.6154 -0.9781  0.2653
 1736TIP3   OH226698   6.797   5.418  15.677 -0.3358 -0.0382 -0.0872
 1736TIP3    H126699   6.775   5.327  15.658  0.3249 -0.0228 -1.0075
 1736TIP3    H226700   6.715   5.466  15.667 -0.1868 -0.1427 -2.2993
 1737TIP3   OH226701   5.624   0.721  16.177 -0.7876  0.3410  0.2088
 1737TIP3    H126702   5.535   0.743  16.150 -0.8718  0.2051  0.3745
 1737TIP3    H226703   5.617   0.633  16.214 -0.7263  0.6190  0.9026
 1738TIP3   OH226704   5.392   1.239   2.125  0.8170  0.9519 -1.0465
 1738TIP3    H126705   5.446   1.163   2.104 -0.0469 -0.0878  0.2937
 1738TIP3    H226706   5.362   1.270   2.040 -1.5978 -2.3594 -1.6394
 1739TIP3   OH226707   2.486   4.782   1.472 -0.0103 -0.7665  0.0665
 1739TIP3    H126708   2.485   4.705   1.528  0.7052 -0.4619  0.5286
 1739TIP3    H226709   2.561   4.769   1.414 -0.6420 -0.9975 -0.7162
 1740TIP3   OH226710   1.229   2.220  14.224 -0.1197  0.5154  0.4598
 1740TIP3    H126711   1.199   2.297  14.271  0.0784 -0.0052  1.4579
 1740TIP3    H226712   1.149   2.172  14.203 -0.2857  1.2214 -0.6109
 1741TIP3   OH226713   4.652   5.025  14.871 -0.8445 -0.0912  0.0998
 1741TIP3    H126714   4.558   5.026  14.856 -0.5093 -0.5785 -2.4489
 1741TIP3    H226715   4.689   4.984  14.792  1.5438  0.7270  0.7024
 1742TIP3   OH226716   1.369   3.083   0.029  0.0293 -0.1876 -0.2855
 1742TIP3    H126717   1.394   3.092   0.121 -1.0561  0.7596 -0.0666
 1742TIP3    H226718   1.368   2.989   0.013  0.8112 -0.3403  0.4954
 1743TIP3   OH226719   3.028   1.565   2.452  0.5052 -0.2525 -0.0663
 1743TIP3    H126720   3.114   1.553   2.413  1.4291 -0.7869  2.0044
 1743TIP3    H226721   2.973   1.498   2.410  1.4721 -0.8718 -0.3848
 1744TIP3   OH226722   0.355   6.792  13.710 -0.9914 -0.6464  0.3936
 1744TIP3    H126723   0.312   6.833  13.634  0.3164 -1.1557 -0.6629
 1744TIP3    H226724   0.448   6.793  13.688 -0.4651  0.0931  2.4540
 1745TIP3   OH226725   5.062   6.013   1.676  0.1404  0.1803 -0.0221
 1745TIP3    H126726   4.996   6.024   1.608  0.0864 -1.4386 -0.2850
 1745TIP3    H226727   5.027   6.058   1.753 -1.9963 -1.8054  0.2753
 1746TIP3   OH226728   4.901   0.223  11.997 -0.2272  0.7752  0.4048
 1746TIP3    H126729   4.861   0.259  12.076  0.3739 -1.2187  1.6755
 1746TIP3    H226730   4.995   0.232  12.011 -0.1126  0.3732 -0.0722
 1747TIP3   OH226731   1.965   5.273   6.253 -0.0060 -0.1808  0.4082
 1747TIP3    H126732   1.903   5.345   6.267 -0.3521 -0.4905  0.4784
 1747TIP3    H226733   1.911   5.195   6.250  0.1898 -0.2882 -1.2931
 1748TIP3   OH226734   2.298   2.646  16.246  0.3912 -0.1780  0.2547
 1748TIP3    H126735   2.341   2.728  16.224 -3.3292  1.8110 -0.5712
 1748TIP3    H226736   2.304   2.641  16.341  1.6004  0.4592  0.2354
 1749TIP3   OH226737   1.532   6.592  11.878  0.1468 -0.2622  0.3043
 1749TIP3    H126738   1.571   6.529  11.817  0.8215 -0.0640  0.5210
 1749TIP3    H226739   1.523   6.544  11.960  0.9942  0.0114  0.5718
 1750TIP3   OH226740   6.184   0.470  15.867 -0.0453 -0.8948 -0.1033
 1750TIP3    H126741   6.172   0.550  15.816  2.2161 -0.4686 -0.0528
 1750TIP3    H226742   6.198   0.500  15.957  0.1420 -1.3795  0.0340
 1751TIP3   OH226743   3.136   4.679   3.406  0.5231 -0.3489 -0.2398
 1751TIP3    H126744   3.146   4.696   3.499  0.5317 -0.7052 -0.1716
 1751TIP3    H226745   3.189   4.746   3.363  0.7857 -0.3872  0.0235
 1752TIP3   OH226746   6.133   1.159  16.866  0.1793  0.3281 -0.0095
 1752TIP3    H126747   6.144   1.182  16.774 -0.9057 -1.9783 -0.7798
 1752TIP3    H226748   6.198   1.091  16.882  0.5987  0.9486  1.0623
 1753TIP3   OH226749   2.038   2.336   1.302 -0.1194 -0.1203  0.0901
 1753TIP3    H126750   2.122   2.368   1.269  0.2711  0.4235  1.5261
 1753TIP3    H226751   2.061   2.257   1.352 -0.7171 -1.0356 -1.0350
 1754TIP3   OH226752   6.349   4.938   2.256  0.2212  0.5171 -0.7888
 1754TIP3    H126753   6.384   4.923   2.168  1.4761  0.4145 -0.2951
 1754TIP3    H226754   6.383   5.024   2.281  0.2543  0.3479 -0.2293
 1755TIP3   OH226755   0.213   1.164   5.789  0.1853 -0.0121 -0.1628
 1755TIP3    H126756   0.229   1.118   5.706 -0.1946  0.4090 -0.4712
 1755TIP3    H226757   0.230   1.097   5.856 -0.5214 -0.6593 -0.6068
 1756TIP3   OH226758   6.542   4.222   1.183 -0.6205  0.3856 -0.3230
 1756TIP3    H126759   6.565   4.140   1.140 -0.8521 -0.7150  1.5659
 1756TIP3    H226760   6.470   4.199   1.241  0.1883  1.6232  1.2391
 1757TIP3   OH226761   1.892   0.213  15.682 -0.1482 -0.9195 -0.9257
 1757TIP3    H126762   1.977   0.256  15.678 -0.5083 -0.2040 -0.9233
 1757TIP3    H226763   1.909   0.131  15.730  0.2331 -0.0086  0.5561
 1758TIP3   OH226764   4.811   5.202  16.578  1.0319  0.6799  0.9263
 1758TIP3    H126765   4.876   5.177  16.643  0.9880  0.3073  0.8274
 1758TIP3    H226766   4.786   5.292  16.602  0.2218  0.1758  2.0789
 1759TIP3   OH226767   2.816   1.913  16.861 -0.4156  0.6866  0.0181
 1759TIP3    H126768   2.788   1.823  16.848  0.5704  0.1024  1.7730
 1759TIP3    H226769   2.742   1.955  16.905 -0.2678  0.3256  0.6094
 1760TIP3   OH226770   5.325   5.781  12.094  0.1240 -0.3915 -0.6616
 1760TIP3    H126771   5.285   5.817  12.173 -1.3304 -0.6049 -1.2778
 1760TIP3    H226772   5.296   5.840  12.024 -2.7444 -2.8794 -1.7947
 1761TIP3   OH226773   3.931   4.171  14.935  0.6347  0.0626  0.1701
 1761TIP3    H126774   4.025   4.185  14.933  0.5857  0.3813  0.0671
 1761TIP3    H226775   3.908   4.144  14.846  0.1343  3.2792 -0.7954
 1762TIP3   OH226776   3.179   2.457   5.077  0.0998 -0.4398 -0.0441
 1762TIP3    H126777   3.150   2.397   5.009 -2.9842 -0.3433  1.0137
 1762TIP3    H226778   3.198   2.401   5.152 -1.5573 -0.2754  0.5483
 1763TIP3   OH226779   1.184   2.059  12.721 -0.2566 -0.3518 -0.4350
 1763TIP3    H126780   1.243   2.063  12.646  0.4862 -0.2017  0.1387
 1763TIP3    H226781   1.096   2.059  12.683  0.1126 -1.0381 -1.3304
 1764TIP3   OH226782   1.407   1.660   4.555  0.6404  0.4775  0.2402
 1764TIP3    H126783   1.438   1.726   4.493 -0.0268  0.6547  0.0882
 1764TIP3    H226784   1.317   1.643   4.529  0.5549  0.0892  0.7769
 1765TIP3   OH226785   2.548   6.586   6.095  0.1915 -0.2688 -0.2972
 1765TIP3    H126786   2.572   6.574   6.187 -1.2966 -0.9893  0.0162
 1765TIP3    H226787   2.453   6.591   6.095  0.2174  0.9265 -1.6794
 1766TIP3   OH226788   5.439   2.460  13.247  0.5330 -0.1267  0.5392
 1766TIP3    H126789   5.505   2.425  13.306  2.2353 -0.5953 -1.5085
 1766TIP3    H226790   5.488   2.514  13.185 -0.7532 -1.6459 -1.9647
 1767TIP3   OH226791   0.808   1.094   5.469  0.5137  0.0763 -0.0914
 1767TIP3    H126792   0.723   1.057   5.444  0.2261  1.4623 -1.3394
 1767TIP3    H226793   0.795   1.127   5.558 -0.6435  1.2610 -0.6550
 1768TIP3   OH226794   1.446   2.531  15.908  0.4571 -0.6557  0.0200
 1768TIP3    H126795   1.421   2.582  15.831 -1.4233 -1.1693  0.2476
 1768TIP3    H226796   1.515   2.583  15.949  2.0758 -0.7616 -2.3971
 1769TIP3   OH226797   1.545   0.224  11.126 -0.4294 -0.0775  0.2680
 1769TIP3    H126798   1.595   0.237  11.207 -0.4609 -1.0640  0.4571
 1769TIP3    H226799   1.454   0.220  11.155 -0.5285  0.5441  0.0590
 1770TIP3   OH226800   5.592   6.800  12.419  0.2782  0.1445  0.3089
 1770TIP3    H126801   5.579   6.813  12.325 -0.6864 -0.8538  0.2881
 1770TIP3    H226802   5.594   6.889  12.455  2.8670  0.6695 -0.8793
 1771TIP3   OH226803   4.399   0.486   6.216 -0.2280 -0.3354  0.1389
 1771TIP3    H126804   4.354   0.503   6.299 -1.0557 -0.8765 -0.1905
 1771TIP3    H226805   4.458   0.413   6.236  1.4269  1.1256  0.8798
 1772TIP3   OH226806   3.482   6.717  15.904  0.4016 -0.1939  0.1365
 1772TIP3    H126807   3.467   6.776  15.977  2.3818  0.5728 -0.0041
 1772TIP3    H226808   3.484   6.630  15.944 -1.2699 -0.0883  0.5339
 1773TIP3   OH226809   0.230   5.751   0.983  0.3718 -0.4023  0.4199
 1773TIP3    H126810   0.273   5.750   1.068  1.1826  0.7956  0.0380
 1773TIP3    H226811   0.297   5.780   0.921 -0.3369 -0.7788 -0.5622
 1774TIP3   OH226812   4.919   6.656   4.898 -0.3555  0.2388  0.6262
 1774TIP3    H126813   4.893   6.592   4.964  1.6619 -1.2342  0.0750
 1774TIP3    H226814   4.905   6.611   4.814 -3.8135  2.3983 -0.1953
 1775TIP3   OH226815   0.622   3.955  10.700  0.3658  0.6232  0.0653
 1775TIP3    H126816   0.683   4.001  10.757  2.1126 -0.0033 -1.1820
 1775TIP3    H226817   0.605   3.872  10.745  1.9442  0.0137 -0.3831
 1776TIP3   OH226818   6.007   2.553   4.685 -0.0434 -0.3846 -0.4066
 1776TIP3    H126819   6.064   2.630   4.681 -0.2411 -0.2467 -0.5932
 1776TIP3    H226820   5.925   2.586   4.721 -0.0105 -0.5789 -0.1547
 1777TIP3   OH226821   1.192   0.112   5.591  0.4492 -0.0654  0.0575
 1777TIP3    H126822   1.240   0.042   5.634  1.3592  0.7164  0.3543
 1777TIP3    H226823   1.259   0.160   5.542 -0.1382  0.6347 -0.0708
 1778TIP3   OH226824   6.607   3.465  14.455  0.2758 -0.2676  0.2993
 1778TIP3    H126825   6.574   3.482  14.367  2.3897 -0.2145 -0.5616
 1778TIP3    H226826   6.541   3.502  14.514  0.0540  2.1207 -1.3035
 1779TIP3   OH226827   4.570   2.769   0.221 -0.0438 -0.1661  0.2507
 1779TIP3    H126828   4.663   2.747   0.230 -0.2147 -0.8952  0.2931
 1779TIP3    H226829   4.555   2.837   0.286  0.6587  0.5814 -0.3428
 1780TIP3   OH226830   5.340   5.435  14.545  0.9855 -0.4282 -0.4297
 1780TIP3    H126831   5.359   5.524  14.516 -0.3304  0.0816  0.2071
 1780TIP3    H226832   5.383   5.427  14.630 -1.9625  0.9707  1.3561
 1781TIP3   OH226833   0.856   6.538   4.987 -0.1212  0.2757 -0.0452
 1781TIP3    H126834   0.887   6.568   5.072 -2.2079 -0.7267  1.1499
 1781TIP3    H226835   0.923   6.477   4.957 -0.5023 -1.2991  2.0969
 1782TIP3   OH226836   3.309   5.828   0.910  0.2581 -0.1445 -0.0871
 1782TIP3    H126837   3.398   5.861   0.922  0.0054  0.4572  0.2024
 1782TIP3    H226838   3.297   5.826   0.815 -0.6119  3.2092 -0.1782
 1783TIP3   OH226839   6.057   1.511  16.609 -0.3195 -0.8509  0.2009
 1783TIP3    H126840   6.013   1.589  16.576 -0.5544 -1.4479 -0.9379
 1783TIP3    H226841   6.000   1.438  16.583  1.1683 -1.6227 -1.0645
 1784TIP3   OH226842   2.178   6.771  14.686  0.1536 -0.1943 -0.7139
 1784TIP3    H126843   2.128   6.821  14.621 -0.0768 -1.4339 -1.5316
 1784TIP3    H226844   2.186   6.683  14.647  1.8175 -0.3942  0.0013
 1785TIP3   OH226845   4.163   3.180  17.192  0.1555 -0.0953 -0.0806
 1785TIP3    H126846   4.106   3.117  17.148  0.4416 -0.3853 -0.0355
 1785TIP3    H226847   4.199   3.233  17.122 -1.5545  1.2679  0.0105
 1786TIP3   OH226848   4.244   3.543   3.261 -0.4522 -0.0089 -0.1923
 1786TIP3    H126849   4.213   3.570   3.174  1.3550  2.3316 -0.2003
 1786TIP3    H226850   4.287   3.621   3.296 -0.2238 -1.2182  2.4087
 1787TIP3   OH226851   6.285   1.699   1.326  0.4047  0.0121 -0.0943
 1787TIP3    H126852   6.317   1.659   1.246 -1.0028  1.4508 -1.4408
 1787TIP3    H226853   6.195   1.724   1.306 -0.5898 -1.1249  2.5093
 1788TIP3   OH226854   5.679   0.976  14.805  0.3548  0.4000  0.3185
 1788TIP3    H126855   5.670   1.051  14.747  0.0973  0.4683  0.4439
 1788TIP3    H226856   5.733   0.914  14.756  0.2437  0.5086  0.0572
 1789TIP3   OH226857   0.920   1.833   5.032  0.3250  0.0072 -0.6249
 1789TIP3    H126858   0.889   1.743   5.020  0.9075 -0.1198 -1.2227
 1789TIP3    H226859   0.999   1.839   4.978  1.4441  0.2842  0.9656
 1790TIP3   OH226860   6.098   3.641   4.136 -0.1437 -0.0063 -0.6225
 1790TIP3    H126861   6.011   3.628   4.174 -0.3516  0.4793 -0.9214
 1790TIP3    H226862   6.106   3.736   4.125  1.3885  0.1946  1.6531
 1791TIP3   OH226863   2.454   1.410   0.817 -0.7089 -0.5982  0.1290
 1791TIP3    H126864   2.442   1.382   0.727 -0.2948 -2.0487  0.4964
 1791TIP3    H226865   2.402   1.349   0.869 -0.0150 -0.5140  0.9546
 1792TIP3   OH226866   1.725   6.593  15.283 -0.0802 -0.2444  0.6770
 1792TIP3    H126867   1.753   6.653  15.214 -0.0971  0.9622  1.6747
 1792TIP3    H226868   1.780   6.616  15.358 -1.8521  0.3312  1.8656
 1793TIP3   OH226869   0.005   1.074  11.589 -0.7329 -0.2934 -0.2334
 1793TIP3    H126870  -0.077   1.090  11.541 -1.5562 -1.7620  0.5886
 1793TIP3    H226871  -0.017   1.002  11.648  0.8452  0.0859  0.8532
 1794TIP3   OH226872   4.310   0.080   1.102  0.1608 -0.0131  0.0583
 1794TIP3    H126873   4.375   0.140   1.065 -0.0460 -0.1524 -0.5502
 1794TIP3    H226874   4.230   0.132   1.110 -0.1679 -0.3365 -0.9758
 1795TIP3   OH226875   0.740   0.010  12.486 -0.8612  0.3532  0.3040
 1795TIP3    H126876   0.733   0.101  12.516 -1.2454 -0.1236  1.7263
 1795TIP3    H226877   0.649  -0.020  12.479 -0.7201 -0.2258  0.8547
 1796TIP3   OH226878   3.075   2.453  11.264 -0.1279 -0.3799 -0.2233
 1796TIP3    H126879   3.140   2.394  11.304  0.3016 -0.0703 -0.4603
 1796TIP3    H226880   3.083   2.436  11.170 -1.1883 -1.1590 -0.1850
 1797TIP3   OH226881   1.907   1.652  12.669  0.8180  0.1188 -0.4436
 1797TIP3    H126882   1.901   1.632  12.575  0.5849  0.1067 -0.4257
 1797TIP3    H226883   1.837   1.601  12.709  0.8466  0.2119 -0.2756
 1798TIP3   OH226884   0.182   3.590   1.544 -0.2704 -0.2317  0.4838
 1798TIP3    H126885   0.137   3.655   1.598 -0.9410 -0.0821 -0.2321
 1798TIP3    H226886   0.194   3.515   1.602 -0.6731  0.0534  0.9424
 1799TIP3   OH226887   3.480   3.221  12.481 -0.2023 -0.4010 -0.3735
 1799TIP3    H126888   3.394   3.263  12.480 -0.6428 -1.2866 -0.4407
 1799TIP3    H226889   3.463   3.129  12.461  0.9699 -0.2404 -2.2959
 1800TIP3   OH226890   5.791   0.951  15.101 -0.4078  0.6411 -0.2699
 1800TIP3    H126891   5.747   0.977  15.020  0.0806  1.2288 -0.3527
 1800TIP3    H226892   5.781   1.026  15.159 -0.7091  0.2411  0.1996
 1801TIP3   OH226893   4.085   3.297   1.308 -0.0896 -0.3426 -0.1625
 1801TIP3    H126894   4.165   3.338   1.276 -0.2287 -0.3596 -0.5411
 1801TIP3    H226895   4.112   3.211   1.339  0.3517  0.3329  1.4202
 1802TIP3   OH226896   2.562   0.789   3.850  0.2250  0.4100  0.2948
 1802TIP3    H126897   2.535   0.879   3.868  1.9353  1.2995 -1.2929
 1802TIP3    H226898   2.604   0.793   3.764  2.1718 -1.5175  1.0697
 1803TIP3   OH226899   5.726   1.313   2.901 -0.3104 -0.2092  0.5614
 1803TIP3    H126900   5.756   1.296   2.812  1.3471 -1.5800  1.3498
 1803TIP3    H226901   5.696   1.404   2.899 -0.0982 -0.1525 -1.3333
 1804TIP3   OH226902   1.352   6.666   2.457  0.6809 -0.7909  0.0039
 1804TIP3    H126903   1.366   6.700   2.545 -1.5808 -0.1473  0.1742
 1804TIP3    H226904   1.277   6.608   2.465 -0.3876  0.2781 -1.7043
 1805TIP3   OH226905   3.970   0.656   1.732 -0.0172  0.9495 -0.6001
 1805TIP3    H126906   4.034   0.720   1.701 -0.8564  2.4993  0.6795
 1805TIP3    H226907   3.943   0.608   1.654  3.5581 -0.6609 -1.0355
 1806TIP3   OH226908   1.983   2.596   5.304 -0.0709 -0.1642  0.4419
 1806TIP3    H126909   1.899   2.592   5.351 -0.2085 -2.1815  0.1021
 1806TIP3    H226910   2.048   2.573   5.370  0.1366  0.4165  0.4534
 1807TIP3   OH226911   4.312   3.367  14.835 -0.3004 -0.3359  0.1505
 1807TIP3    H126912   4.393   3.358  14.887 -1.1551  3.3387  2.5044
 1807TIP3    H226913   4.247   3.317  14.884 -0.0683 -1.0333 -0.2359
 1808TIP3   OH226914   2.833   4.022   5.088 -0.0460  0.2142  0.1091
 1808TIP3    H126915   2.921   3.986   5.075  1.2440  2.0885  2.7712
 1808TIP3    H226916   2.806   3.988   5.173 -1.8860 -0.1959 -0.5939
 1809TIP3   OH226917   4.769   5.459  16.374 -0.1918 -0.2808  0.1788
 1809TIP3    H126918   4.856   5.446  16.335 -0.3773  1.6673 -1.0238
 1809TIP3    H226919   4.785   5.462  16.468  1.1120  0.3259 -0.0388
 1810TIP3   OH226920   1.702   4.552  17.087 -0.5888  0.2438 -0.2666
 1810TIP3    H126921   1.621   4.507  17.109  0.1681 -1.3500 -0.6272
 1810TIP3    H226922   1.764   4.482  17.066  1.1114  1.3738  0.7214
 1811TIP3   OH226923   4.487   6.800   1.718 -0.2781 -0.0542 -0.2913
 1811TIP3    H126924   4.507   6.892   1.740  0.7021 -0.1179 -0.8565
 1811TIP3    H226925   4.396   6.801   1.691  0.1568  1.0661 -1.8675
 1812TIP3   OH226926   0.243   2.031   2.334 -0.0468  0.6885  0.0449
 1812TIP3    H126927   0.236   1.965   2.402 -1.7319 -0.3677 -1.0681
 1812TIP3    H226928   0.170   2.091   2.352 -0.2867  0.5999 -0.6114
 1813TIP3   OH226929   1.335   5.672  16.311  0.1218 -0.0177  0.4115
 1813TIP3    H126930   1.368   5.762  16.316 -0.6950  0.2221  1.9890
 1813TIP3    H226931   1.400   5.619  16.356  0.3826 -0.1694 -0.1306
 1814TIP3   OH226932   4.088   6.321  11.962 -0.0374  0.3374  0.6972
 1814TIP3    H126933   4.098   6.287  12.051 -1.5623 -1.8063  0.1451
 1814TIP3    H226934   4.005   6.369  11.965 -0.1237  0.2066  0.4421
 1815TIP3   OH226935   6.692   3.202   4.050 -0.8699  0.2682 -0.0578
 1815TIP3    H126936   6.615   3.258   4.056 -0.9673  0.2446 -0.8964
 1815TIP3    H226937   6.756   3.255   4.002 -2.0043 -1.3281 -3.6973
 1816TIP3   OH226938   3.424   0.718  13.681  0.0129  0.4597 -0.2272
 1816TIP3    H126939   3.378   0.651  13.732 -1.8566  1.8846  0.0438
 1816TIP3    H226940   3.421   0.686  13.591 -0.2220 -0.1418 -0.0100
 1817TIP3   OH226941   2.702   1.698   1.627 -0.1967  0.4239 -0.5330
 1817TIP3    H126942   2.760   1.722   1.555  0.5183  1.2435  0.3096
 1817TIP3    H226943   2.745   1.623   1.669  1.0060  1.8999  0.9538
 1818TIP3   OH226944   0.826   5.910  13.748 -0.0857  0.2450  0.1365
 1818TIP3    H126945   0.744   5.958  13.757  1.4980  3.3365 -0.7638
 1818TIP3    H226946   0.879   5.940  13.821  0.5457 -1.1514  0.2780
 1819TIP3   OH226947   1.959   6.425  16.314 -0.1099 -0.5170 -0.3431
 1819TIP3    H126948   1.962   6.505  16.366 -0.5892  0.6258 -1.9863
 1819TIP3    H226949   2.025   6.438  16.246 -0.5735 -1.2726 -0.9553
 1820TIP3   OH226950   3.183   3.970   2.223  0.5179  0.0375 -0.1981
 1820TIP3    H126951   3.166   4.064   2.228 -1.0670 -0.2200 -0.1357
 1820TIP3    H226952   3.187   3.942   2.315  1.0198  0.0421 -0.2163
 1821TIP3   OH226953   0.741   2.238  12.043  0.0447 -0.4927 -0.1534
 1821TIP3    H126954   0.736   2.299  11.969 -0.2891  2.2889  2.0013
 1821TIP3    H226955   0.651   2.233  12.076  0.0930 -2.1183 -0.1928
 1822TIP3   OH226956   6.175   0.873   3.051 -0.1317  0.2703  0.0065
 1822TIP3    H126957   6.227   0.940   3.096  0.4968 -0.0221 -0.2711
 1822TIP3    H226958   6.141   0.917   2.973  1.2118 -0.0184 -0.7791
 1823TIP3   OH226959   2.326   2.449  12.552  0.0599 -0.1235  0.0308
 1823TIP3    H126960   2.233   2.427  12.543 -0.0858 -0.0382  1.1694
 1823TIP3    H226961   2.367   2.409  12.476 -0.8077 -0.7647 -0.1250
 1824TIP3   OH226962   0.450   0.045   2.902  0.7248  0.9205  0.2783
 1824TIP3    H126963   0.409  -0.014   2.839  1.4587  0.1098  0.5444
 1824TIP3    H226964   0.377   0.085   2.948  0.2069  0.5913 -0.2369
 1825TIP3   OH226965   5.759   2.842   1.462  0.1555 -0.2263 -0.1857
 1825TIP3    H126966   5.819   2.908   1.429  2.4993 -1.3064  1.6071
 1825TIP3    H226967   5.788   2.760   1.422 -2.0059 -0.4106 -1.5218
 1826TIP3   OH226968   4.333   2.043  17.152  0.0139  0.0780 -0.3312
 1826TIP3    H126969   4.359   1.994  17.074 -0.3295 -0.1216 -0.3201
 1826TIP3    H226970   4.393   2.118  17.153  0.3747 -0.2039 -0.4873
 1827TIP3   OH226971   0.765   6.712   1.490  0.0702 -0.0193 -0.1617
 1827TIP3    H126972   0.792   6.631   1.533  2.3095  0.7545 -0.0045
 1827TIP3    H226973   0.687   6.687   1.439 -0.7201 -1.6896  1.7322
 1828TIP3   OH226974   4.008   1.822   3.838  0.3032 -0.4389  0.0685
 1828TIP3    H126975   4.092   1.818   3.884 -0.1586 -0.7674  0.9079
 1828TIP3    H226976   4.023   1.882   3.765  1.3041 -0.5978  0.1283
 1829TIP3   OH226977   3.615   2.147  14.309  0.3714  0.3232 -0.4288
 1829TIP3    H126978   3.539   2.119  14.360  0.9651  0.9764  0.8536
 1829TIP3    H226979   3.600   2.240  14.292 -0.1209 -0.0126 -2.0355
 1830TIP3   OH226980   0.237   5.306   3.259  0.1260 -0.2431  0.2505
 1830TIP3    H126981   0.308   5.356   3.217  0.7334 -1.5370 -0.3121
 1830TIP3    H226982   0.282   5.248   3.320 -0.5914  0.0330  1.0588
 1831TIP3   OH226983   3.851   4.525   5.300  0.0603 -0.7076  0.4151
 1831TIP3    H126984   3.846   4.586   5.227  4.3551  0.3793  0.7967
 1831TIP3    H226985   3.759   4.510   5.324 -1.3512  3.2662 -1.5661
 1832TIP3   OH226986   6.284   2.760  14.790  1.0829  0.0151  0.0972
 1832TIP3    H126987   6.376   2.736  14.790  1.1817  0.3656 -0.3541
 1832TIP3    H226988   6.269   2.802  14.874  0.6234 -2.6023  1.4222
 1833TIP3   OH226989   6.765   5.355   3.836  0.1652 -0.6091  0.3466
 1833TIP3    H126990   6.770   5.259   3.835  2.0358 -0.5785  1.6851
 1833TIP3    H226991   6.675   5.374   3.864 -0.0914 -1.9719  0.5066
 1834TIP3   OH226992   1.485   2.594   1.131  0.2647  0.2984 -0.3055
 1834TIP3    H126993   1.410   2.536   1.114 -1.6207  1.6214  2.6702
 1834TIP3    H226994   1.445   2.675   1.162  2.9417  0.9532  1.7210
 1835TIP3   OH226995   1.576   1.296  14.814  0.1751  0.4415 -0.2999
 1835TIP3    H126996   1.495   1.266  14.855  0.9119 -0.4898  0.5350
 1835TIP3    H226997   1.590   1.384  14.850  0.4789 -0.1135  1.0186
 1836TIP3   OH226998   2.829   0.690   5.094  0.4579  0.4067  0.0393
 1836TIP3    H126999   2.819   0.694   4.999  1.1944  1.5337 -0.0047
 1836TIP3    H227000   2.761   0.749   5.127  1.3096  1.3751  0.1153
 1837TIP3   OH227001   0.357   3.294   1.920  0.4316  0.0314  0.3538
 1837TIP3    H127002   0.266   3.317   1.937  0.4672 -0.4003  1.1506
 1837TIP3    H227003   0.406   3.373   1.945  0.3445 -0.0209  0.6933
 1838TIP3   OH227004   4.297   1.475   4.467 -0.1282 -0.5246 -0.0540
 1838TIP3    H127005   4.338   1.419   4.401 -0.7309  0.3843 -1.2342
 1838TIP3    H227006   4.358   1.547   4.479 -0.3839 -0.2779 -0.2190
 1839TIP3   OH227007   2.820   3.273   1.569  0.3688  0.6788  0.6690
 1839TIP3    H127008   2.825   3.354   1.516  0.6568  0.4976  0.4152
 1839TIP3    H227009   2.875   3.291   1.645  0.0773  0.8837  0.8349
 1840TIP3   OH227010   3.021   6.388  11.120 -0.3115  0.2056  0.6509
 1840TIP3    H127011   3.059   6.425  11.041 -1.3359  0.8800  0.4562
 1840TIP3    H227012   3.096   6.349  11.166  0.1958 -0.8346 -0.9667
 1841TIP3   OH227013   2.224   6.428   3.416 -0.3698  0.4180 -0.1712
 1841TIP3    H127014   2.251   6.428   3.508  2.3476 -0.1924 -0.8820
 1841TIP3    H227015   2.296   6.472   3.370 -0.6462 -1.1634 -2.2463
 1842TIP3   OH227016   5.760   3.347   3.623 -0.4846 -0.2160 -0.2790
 1842TIP3    H127017   5.811   3.268   3.604 -0.8725 -0.5284 -0.0168
 1842TIP3    H227018   5.826   3.413   3.645 -0.1675 -0.5003 -0.3713
 1843TIP3   OH227019   1.522   5.429  17.012 -0.9187  0.4157 -0.3152
 1843TIP3    H127020   1.546   5.349  17.058 -0.4369  0.7508  0.0308
 1843TIP3    H227021   1.428   5.438  17.027 -1.1097 -0.4659 -0.9743
 1844TIP3   OH227022   1.625   3.357  16.425  0.3719  1.0006  0.0969
 1844TIP3    H127023   1.609   3.378  16.517  0.7129  1.7179 -0.0048
 1844TIP3    H227024   1.539   3.335  16.390  0.2265  0.8092  0.5631
 1845TIP3   OH227025   0.466   1.775   1.503 -0.1950 -0.1344 -0.2189
 1845TIP3    H127026   0.417   1.718   1.444 -1.8724  0.4663  0.5494
 1845TIP3    H227027   0.470   1.726   1.585  0.2616 -0.0541 -0.1898
 1846TIP3   OH227028   1.774   5.967   1.341 -0.6503 -0.0809 -0.4816
 1846TIP3    H127029   1.765   5.872   1.331  1.4308 -0.2235 -1.6070
 1846TIP3    H227030   1.828   5.977   1.420 -1.5189  0.2218  0.0844
 1847TIP3   OH227031   0.928   5.227   4.457  0.4746  0.2614 -0.5436
 1847TIP3    H127032   0.953   5.201   4.546 -2.3031  0.0606  0.3023
 1847TIP3    H227033   0.852   5.172   4.437 -1.2604  2.8041 -1.5310
 1848TIP3   OH227034   2.729   1.660   0.737  0.1481 -0.4783 -0.3765
 1848TIP3    H127035   2.662   1.723   0.765  0.4424 -1.0109  1.7513
 1848TIP3    H227036   2.722   1.657   0.642 -1.7244  0.7087 -0.3215
 1849TIP3   OH227037   4.640   5.773  17.214 -0.0598 -0.3137  0.1434
 1849TIP3    H127038   4.615   5.748  17.125 -1.5330  1.3594  0.0318
 1849TIP3    H227039   4.705   5.707  17.240  0.8936 -0.5000 -2.3814
 1850TIP3   OH227040   1.847   2.170   1.626 -0.2955 -0.0690  0.3365
 1850TIP3    H127041   1.845   2.081   1.659 -2.5352  0.4610  1.8932
 1850TIP3    H227042   1.844   2.225   1.705 -4.3735  1.2765 -0.4669
 1851TIP3   OH227043   5.821   2.275  14.156  0.1321 -0.2443  0.4891
 1851TIP3    H127044   5.815   2.357  14.206  1.2029 -0.4308  0.9377
 1851TIP3    H227045   5.842   2.208  14.221  0.0507 -0.7450  0.0066
 1852TIP3   OH227046   4.466   0.844   1.652  0.1227 -0.2950  0.4558
 1852TIP3    H127047   4.444   0.760   1.693 -1.0011 -1.0446 -1.5180
 1852TIP3    H227048   4.538   0.823   1.592  1.0648  0.5636  1.2422
 1853TIP3   OH227049   3.849   5.238  10.741  0.5033 -0.3738 -0.1208
 1853TIP3    H127050   3.938   5.234  10.704  0.1749 -1.6097 -0.8726
 1853TIP3    H227051   3.863   5.246  10.835  1.3988  0.2913 -0.2904
 1854TIP3   OH227052   0.997   2.510  14.685  0.2661 -0.0606  0.1098
 1854TIP3    H127053   0.991   2.469  14.771  0.0553 -0.2613  0.0007
 1854TIP3    H227054   0.908   2.540  14.666  0.2922 -0.1022 -0.0802
 1855TIP3   OH227055   1.080   3.732   2.378 -0.0519  0.0078  0.5233
 1855TIP3    H127056   1.033   3.767   2.302  0.2839 -0.0586  0.2806
 1855TIP3    H227057   1.149   3.678   2.340  1.2490  1.3907  0.8215
 1856TIP3   OH227058   1.146   2.733  17.157 -0.2482 -0.3092 -0.1857
 1856TIP3    H127059   1.160   2.827  17.165 -1.4608  0.0263 -1.5585
 1856TIP3    H227060   1.159   2.699  17.245  4.9489  0.3932 -0.4221
 1857TIP3   OH227061   0.411   5.857   3.865  0.0729  0.5142  0.3103
 1857TIP3    H127062   0.403   5.767   3.896 -0.1262  0.6988  0.8158
 1857TIP3    H227063   0.362   5.859   3.783 -1.5531  0.6046  1.2448
 1858TIP3   OH227064   1.159   2.480  16.449 -0.2232  0.0661  0.2606
 1858TIP3    H127065   1.147   2.567  16.411  0.1699  0.3256  0.7257
 1858TIP3    H227066   1.116   2.484  16.534  0.0658 -0.0984  0.4173
 1859TIP3   OH227067   3.647   2.614   2.483  0.4023  0.6910  0.1460
 1859TIP3    H127068   3.552   2.629   2.489  0.1405 -0.3684 -1.0198
 1859TIP3    H227069   3.666   2.623   2.390  1.4020  0.5724  0.3347
 1860TIP3   OH227070   5.269   1.462  13.462  0.5216 -0.6577 -0.2869
 1860TIP3    H127071   5.330   1.493  13.395  0.9909  2.6388  1.4438
 1860TIP3    H227072   5.320   1.464  13.543 -1.9754  3.7430  1.5239
 1861TIP3   OH227073   1.755   0.615   0.589 -0.0352  0.1375  0.2432
 1861TIP3    H127074   1.792   0.553   0.527 -0.1758  1.0878 -0.8285
 1861TIP3    H227075   1.669   0.636   0.552 -0.4827  0.0658  1.2265
 1862TIP3   OH227076   5.405   5.325   3.956 -0.5991  0.7866 -0.3114
 1862TIP3    H127077   5.377   5.259   4.020 -2.0197  0.3796 -1.3078
 1862TIP3    H227078   5.494   5.348   3.984 -0.9032  0.1060  1.3792
 1863TIP3   OH227079   0.320   5.028  13.994  0.5995 -0.1457  0.0465
 1863TIP3    H127080   0.409   5.060  14.008  0.3791  0.1387  0.8397
 1863TIP3    H227081   0.266   5.078  14.056 -0.0764 -0.4691 -0.2720
 1864TIP3   OH227082   6.526   2.954  14.510  0.5340  0.3441  0.6368
 1864TIP3    H127083   6.439   2.929  14.539  0.8263 -0.9000  0.4866
 1864TIP3    H227084   6.512   3.032  14.456 -0.5914 -0.4205 -0.2004
 1865TIP3   OH227085   5.482   0.581  11.604  0.7060  0.0924 -0.0635
 1865TIP3    H127086   5.512   0.557  11.692  0.5521  1.9108  0.5196
 1865TIP3    H227087   5.533   0.659  11.581 -0.3360  0.5403 -0.9402
 1866TIP3   OH227088   0.319   2.302  11.554 -0.4148 -0.0339  0.3014
 1866TIP3    H127089   0.265   2.233  11.515  0.2294 -0.1139 -0.4574
 1866TIP3    H227090   0.293   2.382  11.507 -0.4761  0.0806  0.5267
 1867TIP3   OH227091   4.375   0.699  12.364  0.0272 -0.1178 -0.7359
 1867TIP3    H127092   4.435   0.694  12.290  0.7241  1.8152 -0.3797
 1867TIP3    H227093   4.288   0.703  12.325  0.3092 -0.2799 -1.3877
 1868TIP3   OH227094   1.979   4.564   0.711 -0.1545  0.6924 -0.3954
 1868TIP3    H127095   1.908   4.501   0.721 -0.1292  0.6068 -0.7370
 1868TIP3    H227096   1.995   4.596   0.800  1.1440 -1.2188  0.1309
 1869TIP3   OH227097   1.687   1.975  14.134 -0.0438  0.1313  0.3330
 1869TIP3    H127098   1.638   1.915  14.078  0.5915  1.5092 -1.8327
 1869TIP3    H227099   1.641   2.059  14.126  0.9551  0.7257  0.5967
 1870TIP3   OH227100   2.385   0.809   0.373 -0.4807 -0.2513  0.7625
 1870TIP3    H127101   2.437   0.768   0.303 -0.9694 -0.2091  0.3654
 1870TIP3    H227102   2.309   0.752   0.381 -0.1707 -0.5537  1.6421
 1871TIP3   OH227103   4.624   2.424   4.037 -0.2393 -0.1542 -0.6854
 1871TIP3    H127104   4.656   2.341   4.074 -1.5334  0.3919  1.9281
 1871TIP3    H227105   4.529   2.420   4.049 -0.3687  1.4988 -0.9571
 1872TIP3   OH227106   2.613   6.784   4.320 -0.2554 -0.2189 -0.2807
 1872TIP3    H127107   2.573   6.847   4.379 -2.1557 -0.1407 -1.5686
 1872TIP3    H227108   2.540   6.730   4.289  1.0656 -1.9324 -0.5553
 1873TIP3   OH227109   5.479   2.798   4.797 -1.0245  0.4231 -0.5556
 1873TIP3    H127110   5.507   2.774   4.886  1.4218  0.7562 -1.1642
 1873TIP3    H227111   5.388   2.768   4.792 -0.6655 -1.2544  1.4411
 1874TIP3   OH227112   5.997   6.222  16.218  0.1296 -0.4149 -0.1129
 1874TIP3    H127113   6.017   6.130  16.200 -1.7946 -0.5906 -1.6473
 1874TIP3    H227114   5.991   6.262  16.131 -0.1308  0.9288  0.5086
 1875TIP3   OH227115   0.745   0.840   0.432 -0.5377  0.0624 -0.0929
 1875TIP3    H127116   0.798   0.916   0.457 -0.1783 -0.2264  0.0286
 1875TIP3    H227117   0.658   0.859   0.467 -0.4577  0.4352 -0.0918
 1876TIP3   OH227118   4.681   2.189   2.004  0.2036 -0.1208  0.3373
 1876TIP3    H127119   4.701   2.189   1.910  0.1428 -0.9425  0.3125
 1876TIP3    H227120   4.766   2.202   2.046  0.7267 -2.5344  0.2061
 1877TIP3   OH227121   1.234   3.002   5.255  0.0900 -0.4943  0.1934
 1877TIP3    H127122   1.252   2.938   5.187 -1.1991 -0.9314  0.2430
 1877TIP3    H227123   1.189   3.073   5.210  2.0637  0.7242  0.0141
 1878TIP3   OH227124   0.546   6.671   5.549  0.2735 -0.9973  0.0305
 1878TIP3    H127125   0.637   6.686   5.527 -0.2889 -0.0785 -1.8938
 1878TIP3    H227126   0.503   6.651   5.466 -1.5109 -0.1063  0.6669
 1879TIP3   OH227127   5.968   4.660   4.605 -0.5369  0.1858 -0.2037
 1879TIP3    H127128   5.934   4.740   4.645  0.0304  0.5634 -0.4547
 1879TIP3    H227129   5.981   4.683   4.513  2.3412  0.7704  0.2368
 1880TIP3   OH227130   3.655   3.696   2.857  0.2873 -0.0812  0.3383
 1880TIP3    H127131   3.588   3.658   2.914 -0.8569 -0.0816 -0.9416
 1880TIP3    H227132   3.620   3.684   2.768  0.2643  3.1569 -0.1959
 1881TIP3   OH227133   4.837   6.436  13.272  0.3692  0.4974  0.3399
 1881TIP3    H127134   4.767   6.465  13.212  0.6031 -0.9005 -0.6603
 1881TIP3    H227135   4.901   6.394  13.215  1.6808  1.0633  1.3439
 1882TIP3   OH227136   0.884   3.447  11.533 -0.2859 -0.3657  0.5994
 1882TIP3    H127137   0.938   3.382  11.487 -0.8660 -0.4569  0.0214
 1882TIP3    H227138   0.831   3.486  11.463  0.5996  1.2834  0.8132
 1883TIP3   OH227139   0.783   4.141   4.081  0.3659  0.3683 -0.0557
 1883TIP3    H127140   0.805   4.211   4.142 -1.6016  0.2243  0.9233
 1883TIP3    H227141   0.791   4.061   4.133 -1.2108  0.2327  0.0341
 1884TIP3   OH227142   5.163   3.311   3.081  0.2288  0.1230  0.1590
 1884TIP3    H127143   5.121   3.397   3.079  0.0861  0.1071 -3.1437
 1884TIP3    H227144   5.091   3.249   3.091 -0.1170  0.2840 -1.1302
 1885TIP3   OH227145   6.629   0.619   3.987 -0.4408 -0.0631 -0.5649
 1885TIP3    H127146   6.536   0.634   4.000 -0.0244  1.3126  1.0510
 1885TIP3    H227147   6.646   0.652   3.898 -1.1974  1.1167 -0.2872
 1886TIP3   OH227148   2.645   5.127   0.094 -0.1948 -0.4578 -0.1017
 1886TIP3    H127149   2.658   5.094   0.183 -1.8486 -0.3654  0.2137
 1886TIP3    H227150   2.629   5.048   0.042  1.1790 -0.5493 -0.4333
 1887TIP3   OH227151   4.515   3.621   1.503  0.2771  0.6172  0.3123
 1887TIP3    H127152   4.521   3.526   1.515 -2.7157  0.2095 -0.5958
 1887TIP3    H227153   4.553   3.636   1.416  4.1276  0.9041  1.8377
 1888TIP3   OH227154   3.564   4.101  15.861  0.6646  0.2393 -0.0459
 1888TIP3    H127155   3.544   4.184  15.818  0.1490 -0.1191 -0.5162
 1888TIP3    H227156   3.485   4.048  15.848  0.6830 -0.0499  0.9273
 1889TIP3   OH227157   2.403   4.587   0.873  0.7847 -0.0043 -0.1499
 1889TIP3    H127158   2.381   4.680   0.865 -0.9440 -0.1819  1.7013
 1889TIP3    H227159   2.423   4.559   0.784 -0.4092  1.7476 -1.0230
 1890TIP3   OH227160   3.278   2.892  16.988 -0.3313  0.0305 -0.0973
 1890TIP3    H127161   3.331   2.854  17.058 -0.4149 -0.5347 -0.3385
 1890TIP3    H227162   3.287   2.987  17.000  0.9433 -0.0458 -0.2857
 1891TIP3   OH227163   3.064   5.415  12.606  0.3459 -0.3573  0.0387
 1891TIP3    H127164   3.010   5.365  12.668  0.0095 -1.3247 -1.0165
 1891TIP3    H227165   3.044   5.378  12.520  1.4246  0.4096 -0.5738
 1892TIP3   OH227166   4.923   0.026   0.706  0.1745  0.0159  0.7589
 1892TIP3    H127167   4.864   0.040   0.631 -0.0909  1.0798  1.1566
 1892TIP3    H227168   4.866  -0.006   0.776 -0.2121  2.3198  1.5630
 1893TIP3   OH227169   0.929   3.846   3.406 -0.5454  0.8479 -0.0079
 1893TIP3    H127170   1.020   3.819   3.422 -0.6884 -0.9676 -1.9269
 1893TIP3    H227171   0.936   3.941   3.390  0.9037  0.8698  0.5554
 1894TIP3   OH227172   0.567   2.847  17.191  0.0754 -0.5078 -0.0837
 1894TIP3    H127173   0.493   2.860  17.251 -0.0854 -0.8614 -0.2051
 1894TIP3    H227174   0.587   2.935  17.159 -2.9210 -0.7785 -3.2001
 1895TIP3   OH227175   3.920   4.404  12.190 -0.3522 -0.0595  0.4468
 1895TIP3    H127176   3.985   4.377  12.125 -0.6777  0.7470 -0.2307
 1895TIP3    H227177   3.899   4.324  12.237  2.0576 -0.1376  1.5524
 1896TIP3   OH227178   5.978   4.142  10.961 -0.5020  0.0182 -0.4704
 1896TIP3    H127179   5.934   4.057  10.957 -1.9688  0.7410 -0.0687
 1896TIP3    H227180   5.959   4.183  10.876  1.3206 -0.5507 -1.2096
 1897TIP3   OH227181   4.688   3.873  13.249  0.2016 -0.2323 -0.1520
 1897TIP3    H127182   4.723   3.945  13.301 -1.5294  0.5852 -0.0328
 1897TIP3    H227183   4.608   3.909  13.209 -0.4407 -1.9353 -0.4989
 1898TIP3   OH227184   4.980   1.732   2.546  0.5383 -0.2476 -0.4074
 1898TIP3    H127185   5.020   1.646   2.541 -0.0649 -0.7645  2.3182
 1898TIP3    H227186   4.900   1.719   2.597  0.4657  1.9317  0.1402
 1899TIP3   OH227187   0.659   2.626  14.147 -0.2265 -0.5343  0.3922
 1899TIP3    H127188   0.693   2.698  14.200 -1.3780 -0.6989  1.3746
 1899TIP3    H227189   0.697   2.547  14.186 -0.4793 -0.6031  0.4951
 1900TIP3   OH227190   4.955   4.926   3.325  0.2153 -0.2376  0.0038
 1900TIP3    H127191   4.869   4.949   3.360 -0.1890 -1.2928 -0.2619
 1900TIP3    H227192   5.003   5.010   3.321 -1.2834  0.6073 -1.2044
 1901TIP3   OH227193   6.574   5.628   3.016  0.2932  0.0849 -0.5745
 1901TIP3    H127194   6.627   5.677   2.953  0.9126 -0.8743 -0.8229
 1901TIP3    H227195   6.484   5.638   2.984  0.5489  0.0226 -1.3393
 1902TIP3   OH227196   1.653   6.504  12.906 -0.2079  0.2869  0.0484
 1902TIP3    H127197   1.698   6.424  12.933  0.0251  0.4047  0.0114
 1902TIP3    H227198   1.719   6.573  12.915 -0.0684  0.2991 -1.0004
 1903TIP3   OH227199   3.969   1.986  16.944 -0.2138  0.4487  0.2874
 1903TIP3    H127200   4.059   1.954  16.930 -1.9815 -4.2276 -2.7201
 1903TIP3    H227201   3.943   1.946  17.027 -0.0086  0.4320  0.3465
 1904TIP3   OH227202   4.126   2.103  11.235  0.0303 -0.3412  0.5026
 1904TIP3    H127203   4.143   2.158  11.159  0.9446 -0.6453  0.4773
 1904TIP3    H227204   4.058   2.150  11.284 -1.1620 -0.5287 -0.8873
 1905TIP3   OH227205   3.167   4.573   0.681  0.0079 -0.3765  0.2522
 1905TIP3    H127206   3.126   4.551   0.597  0.1747 -0.7081  0.2520
 1905TIP3    H227207   3.124   4.515   0.744 -1.7696  1.4767  0.8262
 1906TIP3   OH227208   2.390   4.168  14.316  0.0015  0.2558 -0.5484
 1906TIP3    H127209   2.433   4.184  14.232  0.8110  2.7313  0.2607
 1906TIP3    H227210   2.300   4.198  14.303  0.3401  1.4016 -0.3264
 1907TIP3   OH227211   5.248   6.582   5.741 -0.0669 -0.0739  0.1224
 1907TIP3    H127212   5.341   6.566   5.756 -0.0276  1.2372  1.5599
 1907TIP3    H227213   5.215   6.501   5.704  1.5331 -0.7604  0.1216
 1908TIP3   OH227214   4.611   6.716  12.934 -0.3935  0.0109  0.0456
 1908TIP3    H127215   4.667   6.769  12.877 -0.5127  0.2624  0.1614
 1908TIP3    H227216   4.623   6.754  13.021 -0.8991  0.1948  0.0393
 1909TIP3   OH227217   2.103   5.480   1.981 -1.1123  0.0530  0.8911
 1909TIP3    H127218   2.079   5.572   1.981  0.2420  0.4732 -1.2242
 1909TIP3    H227219   2.020   5.433   1.987 -2.0012  1.4182 -0.3471
 1910TIP3   OH227220   3.766   1.551  16.624 -0.5683 -0.1224  0.2696
 1910TIP3    H127221   3.710   1.599  16.563 -2.3776  0.8671  2.5819
 1910TIP3    H227222   3.810   1.619  16.675  0.1218 -0.9288  0.7813
 1911TIP3   OH227223   3.524   2.812  11.729 -0.3333  0.2670 -0.9821
 1911TIP3    H127224   3.602   2.832  11.678 -1.6277  0.9403 -2.8082
 1911TIP3    H227225   3.460   2.878  11.703 -1.9867 -1.1362 -0.7057
 1912TIP3   OH227226   0.293   2.182  16.902 -0.1775 -0.0912  0.3380
 1912TIP3    H127227   0.369   2.218  16.948  0.3037 -1.0130  0.2897
 1912TIP3    H227228   0.239   2.258  16.881  0.9239  0.6242  0.0267
 1913TIP3   OH227229   0.101   3.948  14.615 -0.9569 -0.0904 -0.2292
 1913TIP3    H127230   0.043   3.875  14.591 -1.6777  0.7818 -1.2622
 1913TIP3    H227231   0.068   3.978  14.699 -0.6036 -0.9972  0.2424
 1914TIP3   OH227232   4.826   0.829   3.984 -0.1093 -0.5179 -0.3897
 1914TIP3    H127233   4.864   0.774   4.053  0.1721  0.4405  0.2446
 1914TIP3    H227234   4.767   0.888   4.031 -0.9775 -0.7721 -1.1527
 1915TIP3   OH227235   3.514   4.693   1.176 -0.1140 -0.0036 -0.4376
 1915TIP3    H127236   3.548   4.606   1.201  2.3535  0.8066 -0.6953
 1915TIP3    H227237   3.587   4.735   1.130 -0.9271  2.5536  0.4463
 1916TIP3   OH227238   6.147   2.515  17.114  0.0365 -0.3421 -0.2576
 1916TIP3    H127239   6.161   2.436  17.061  1.0872 -0.2624 -0.1148
 1916TIP3    H227240   6.148   2.483  17.204 -0.7085 -0.3267 -0.2369
 1917TIP3   OH227241   0.494   6.054  11.916 -0.0610 -0.6024  0.5450
 1917TIP3    H127242   0.564   5.996  11.888  0.0954 -0.3302  0.3636
 1917TIP3    H227243   0.526   6.142  11.897  0.1605 -0.3799  1.8180
 1918TIP3   OH227244   3.699   4.455  15.916 -0.1060  0.0912  0.1954
 1918TIP3    H127245   3.780   4.492  15.951 -0.6333  0.2422  1.3159
 1918TIP3    H227246   3.629   4.505  15.959 -0.8013  0.4250 -1.2679
 1919TIP3   OH227247   4.784   4.169   0.476 -0.3456 -0.0728  0.3007
 1919TIP3    H127248   4.836   4.160   0.555  0.4302  0.2778 -0.1640
 1919TIP3    H227249   4.705   4.216   0.504  0.2876  0.7615  0.7048
 1920TIP3   OH227250   4.840   2.427  16.903 -0.2286  0.3179 -0.3071
 1920TIP3    H127251   4.745   2.435  16.910 -0.1806 -0.2809  2.2205
 1920TIP3    H227252   4.854   2.335  16.879 -0.2690  0.6006 -1.4741
 1921TIP3   OH227253   2.479   2.884   1.761  0.5290 -0.1443 -0.6311
 1921TIP3    H127254   2.393   2.918   1.737  0.1365 -1.2725 -0.8764
 1921TIP3    H227255   2.509   2.942   1.831  0.1443  1.0433 -1.4073
 1922TIP3   OH227256   4.293   6.134  16.549 -0.4288 -0.1295  0.0738
 1922TIP3    H127257   4.340   6.123  16.467 -0.2380  1.8442 -0.1394
 1922TIP3    H227258   4.203   6.107  16.529 -0.7360  1.7073 -1.2557
 1923TIP3   OH227259   6.777   6.593   3.028 -0.0204  0.3305  0.1293
 1923TIP3    H127260   6.735   6.507   3.036 -1.5394  1.0742  0.5940
 1923TIP3    H227261   6.866   6.579   3.061 -0.7240 -0.7238  1.7648
 1924TIP3   OH227262   4.611   1.371   1.320 -0.0927  0.0148 -0.0610
 1924TIP3    H127263   4.606   1.446   1.379  1.8341  0.5317 -0.4865
 1924TIP3    H227264   4.605   1.294   1.377 -0.8176  0.4922  0.5163
 1925TIP3   OH227265   4.221   3.215   0.188  0.9194  0.2923 -0.0961
 1925TIP3    H127266   4.196   3.183   0.102 -0.6408  1.5250 -0.1666
 1925TIP3    H227267   4.264   3.141   0.231 -2.6116 -2.0221 -0.1530
 1926TIP3   OH227268   3.164   2.738   4.026 -0.2318  0.5112  0.0973
 1926TIP3    H127269   3.113   2.735   3.945  1.1735 -0.2601 -0.8074
 1926TIP3    H227270   3.182   2.646   4.046  1.7291  0.7720 -0.2598
 1927TIP3   OH227271   3.716   3.182  13.811 -0.4335 -0.1440 -0.0113
 1927TIP3    H127272   3.630   3.166  13.850  0.0940 -1.7240  0.5907
 1927TIP3    H227273   3.697   3.194  13.718 -1.2896 -0.9191  0.0365
 1928TIP3   OH227274   0.425   6.195  15.436 -0.2041 -0.1873 -0.0177
 1928TIP3    H127275   0.344   6.147  15.449 -1.6155  2.1186  0.1802
 1928TIP3    H227276   0.413   6.277  15.483  1.2621  1.2312 -1.9213
 1929TIP3   OH227277   6.399   1.157  14.841  0.0080  0.2770 -0.4184
 1929TIP3    H127278   6.331   1.114  14.790 -0.6175 -0.2708  0.8299
 1929TIP3    H227279   6.481   1.118  14.811 -0.2875  0.3276 -1.3272
 1930TIP3   OH227280   2.697   0.149  13.293  0.2963 -0.1470 -0.0305
 1930TIP3    H127281   2.758   0.094  13.343 -0.0178 -0.4950 -0.0318
 1930TIP3    H227282   2.753   0.191  13.227  0.2197 -2.0715 -1.3998
 1931TIP3   OH227283   5.215   3.993   2.088  0.5584 -0.7535  0.0362
 1931TIP3    H127284   5.213   3.915   2.143  0.4153 -1.2907 -0.7073
 1931TIP3    H227285   5.236   3.959   2.000  1.0222  0.1067 -0.1937
 1932TIP3   OH227286   5.572   3.129  12.257  0.7577  0.8670  0.3259
 1932TIP3    H127287   5.542   3.057  12.201  2.0404 -0.4179  1.2438
 1932TIP3    H227288   5.492   3.173  12.284 -0.1300 -0.8564  0.5958
 1933TIP3   OH227289   5.629   2.103   1.607 -0.2157 -0.0751 -0.3381
 1933TIP3    H127290   5.534   2.110   1.592 -0.3462  3.3649  1.1654
 1933TIP3    H227291   5.641   2.136   1.696  2.4326 -0.4603 -0.4870
 1934TIP3   OH227292   6.256   3.719   5.560  0.0893  0.9088  0.1771
 1934TIP3    H127293   6.164   3.740   5.549 -0.4952 -0.4977  1.9966
 1934TIP3    H227294   6.286   3.695   5.473 -1.5630  0.2803 -0.2477
 1935TIP3   OH227295   0.962   5.399  12.249 -0.1478 -0.6264 -0.1082
 1935TIP3    H127296   0.950   5.408  12.343 -0.5607 -1.6663 -0.0435
 1935TIP3    H227297   0.883   5.438  12.211  0.9550  1.6984 -0.1432
 1936TIP3   OH227298   3.034   1.626   1.315  0.2533  0.2632  0.3928
 1936TIP3    H127299   2.950   1.622   1.360  0.5411 -3.5895  0.9705
 1936TIP3    H227300   3.013   1.621   1.222 -0.1483  1.4158  0.4021
 1937TIP3   OH227301   1.003   6.015   5.025 -0.0955 -0.5290  0.1286
 1937TIP3    H127302   1.067   6.056   4.968  0.8614 -0.9426  0.8687
 1937TIP3    H227303   0.928   5.996   4.968  0.0286  0.8559 -0.5368
 1938TIP3   OH227304   5.830   4.542  12.961 -0.3472  0.0857  0.5438
 1938TIP3    H127305   5.734   4.543  12.959 -0.3885  0.7039  1.8825
 1938TIP3    H227306   5.853   4.455  12.928 -1.3015  0.4060 -1.1014
 1939TIP3   OH227307   0.631   1.879   0.535 -0.2194  0.2549  0.0045
 1939TIP3    H127308   0.586   1.849   0.614 -0.1068  1.3503  0.5093
 1939TIP3    H227309   0.561   1.909   0.477 -0.2549  0.2183  0.0288
 1940TIP3   OH227310   2.284   0.752  13.627 -0.5396 -0.2102 -0.3747
 1940TIP3    H127311   2.329   0.699  13.561  0.0818 -1.4406  0.9690
 1940TIP3    H227312   2.192   0.727  13.620 -0.7497  0.8024 -1.7581
 1941TIP3   OH227313   4.069   4.628  13.488 -0.1656  0.4073  0.3427
 1941TIP3    H127314   4.049   4.624  13.582 -1.5438 -0.5167  0.0438
 1941TIP3    H227315   4.000   4.574  13.447  0.1009  1.2290 -1.2444
 1942TIP3   OH227316   4.449   0.569  15.477  0.1919 -0.1809 -0.1885
 1942TIP3    H127317   4.509   0.513  15.429  0.7729  1.8330 -1.9568
 1942TIP3    H227318   4.364   0.555  15.435  0.1725 -0.3144 -0.1056
 1943TIP3   OH227319   5.381   6.723   1.659 -0.4722  0.0872  0.1575
 1943TIP3    H127320   5.455   6.744   1.601  2.3832 -3.5332  2.0013
 1943TIP3    H227321   5.334   6.653   1.613 -0.7322  0.1140  0.3820
 1944TIP3   OH227322   2.746   4.609   1.330  0.1760  0.3980 -0.0841
 1944TIP3    H127323   2.722   4.674   1.265 -0.4437  0.8078  0.5438
 1944TIP3    H227324   2.842   4.607   1.328  0.1598  0.1345 -1.2556
 1945TIP3   OH227325   6.492   5.646   0.932  0.6105  0.5535 -0.1573
 1945TIP3    H127326   6.465   5.566   0.978  1.7269 -0.2742 -0.8780
 1945TIP3    H227327   6.585   5.632   0.914  1.2030  2.6727  0.9831
 1946TIP3   OH227328   4.857   1.641  12.883  0.0563  0.0401  0.1492
 1946TIP3    H127329   4.894   1.718  12.841  0.0675 -0.1469 -0.1905
 1946TIP3    H227330   4.814   1.674  12.961 -1.3336  0.6115 -0.8185
 1947TIP3   OH227331   5.377   4.633  11.867 -0.0604  0.0414 -0.3105
 1947TIP3    H127332   5.459   4.594  11.899 -0.8329 -1.1751  0.2568
 1947TIP3    H227333   5.403   4.681  11.788  0.9596 -1.6417 -1.0693
 1948TIP3   OH227334   1.497   0.635   0.015  0.3803  0.2830  0.5170
 1948TIP3    H127335   1.523   0.684  -0.062 -0.7802  0.2423  0.0867
 1948TIP3    H227336   1.422   0.683   0.051 -0.0119 -0.4925  0.7754
 1949TIP3   OH227337   6.191   0.275   1.308  0.3223  0.5154 -0.1701
 1949TIP3    H127338   6.220   0.184   1.301  0.2434  0.4563  0.2400
 1949TIP3    H227339   6.223   0.317   1.228 -0.3556 -0.0591 -0.7460
 1950TIP3   OH227340   4.635   2.117  16.356 -0.1292 -0.5607  0.1446
 1950TIP3    H127341   4.630   2.190  16.294  0.2046 -1.3571 -0.8472
 1950TIP3    H227342   4.544   2.098  16.378 -0.2658 -0.5022 -0.3707
 1951TIP3   OH227343   0.140   5.643   4.051  0.4308 -0.0381  0.2708
 1951TIP3    H127344   0.101   5.726   4.024  1.9278  0.8244  0.6548
 1951TIP3    H227345   0.090   5.617   4.129  0.6914  1.1179  0.8444
 1952TIP3   OH227346   1.322   0.920   0.759  0.2573  0.2222  0.5179
 1952TIP3    H127347   1.414   0.894   0.758  0.5364  1.0577  1.9093
 1952TIP3    H227348   1.278   0.856   0.702  1.9336  0.8048 -1.5726
 1953TIP3   OH227349   2.624   2.045   5.151 -0.3797 -0.1762  0.5790
 1953TIP3    H127350   2.698   2.104   5.140 -0.9787  0.3900 -0.5124
 1953TIP3    H227351   2.553   2.085   5.101 -0.6010 -2.1780 -0.8163
 1954TIP3   OH227352   3.722   3.349  11.528 -0.3060 -0.2215 -0.1916
 1954TIP3    H127353   3.637   3.386  11.502  0.4519  0.0130 -2.4870
 1954TIP3    H227354   3.748   3.401  11.604 -1.1191  1.3040 -0.9173
 1955TIP3   OH227355   3.547   5.927  11.238  0.5188  0.6035 -0.7850
 1955TIP3    H127356   3.471   5.958  11.188  0.9192  1.5118 -0.8428
 1955TIP3    H227357   3.604   6.003  11.245  1.0641  0.1381 -0.0491
 1956TIP3   OH227358   1.762   6.128  12.202  0.4823  0.3814 -0.4256
 1956TIP3    H127359   1.797   6.214  12.227  0.2894  0.3077  0.1073
 1956TIP3    H227360   1.675   6.146  12.167  0.4481  0.4035 -0.3289
 1957TIP3   OH227361   1.060   6.071   6.089 -0.3063 -0.1786  0.3594
 1957TIP3    H127362   1.067   6.038   6.179 -1.8831  0.3394  0.7054
 1957TIP3    H227363   1.125   6.022   6.040 -0.1993 -1.2887  1.5673
 1958TIP3   OH227364   1.995   4.821  15.338 -0.2535 -0.3487  0.2377
 1958TIP3    H127365   2.057   4.803  15.410  1.8065  0.4794 -1.2207
 1958TIP3    H227366   2.048   4.865  15.272 -2.3411 -0.0855 -1.3504
 1959TIP3   OH227367   2.816   5.830   4.064  0.4145 -0.8099  0.1938
 1959TIP3    H127368   2.797   5.852   4.155 -0.9226 -0.3744 -0.1637
 1959TIP3    H227369   2.875   5.900   4.035 -1.5520  0.8412 -0.1052
 1960TIP3   OH227370   6.588   3.433  13.024  0.3912 -0.2323  0.3782
 1960TIP3    H127371   6.684   3.441  13.027  0.4703 -0.8673 -0.3856
 1960TIP3    H227372   6.572   3.342  13.001 -0.3837  0.1053 -0.4747
 1961TIP3   OH227373   3.665   2.203   2.383  0.1719  0.2946 -0.0571
 1961TIP3    H127374   3.692   2.160   2.302 -2.3016 -0.7685 -0.3919
 1961TIP3    H227375   3.584   2.248   2.360 -2.3559 -2.5711  2.4269
 1962TIP3   OH227376   1.750   0.331   5.120 -0.1366  0.0403 -0.1835
 1962TIP3    H127377   1.741   0.251   5.068 -1.6011 -0.1395  0.2813
 1962TIP3    H227378   1.669   0.334   5.171  0.6373  0.9586  1.0246
 1963TIP3   OH227379   1.076   2.415   0.490 -0.0502  0.2354 -0.2148
 1963TIP3    H127380   1.063   2.473   0.415 -0.9416  1.8633  1.1165
 1963TIP3    H227381   1.155   2.448   0.533 -0.2544  0.1355  0.2494
 1964TIP3   OH227382   3.465   6.558   2.918  0.8587  0.0651 -0.2171
 1964TIP3    H127383   3.539   6.602   2.961  1.2739  1.2341 -2.0126
 1964TIP3    H227384   3.389   6.588   2.966  1.4510 -0.4351  1.0892
 1965TIP3   OH227385   6.467   1.906  14.583 -0.0724 -0.6426  0.3264
 1965TIP3    H127386   6.512   1.987  14.558  0.6498 -0.6792  1.4370
 1965TIP3    H227387   6.445   1.864  14.500 -0.4476  0.6744 -0.2756
 1966TIP3   OH227388   3.789   3.384  17.205  0.6421 -0.0122 -0.3850
 1966TIP3    H127389   3.871   3.348  17.239  0.4786  1.4584  1.7928
 1966TIP3    H227390   3.777   3.466  17.254 -1.7412  0.2004 -1.1852
 1967TIP3   OH227391   0.837   2.538  16.424 -0.4159 -0.6473  0.3758
 1967TIP3    H127392   0.809   2.448  16.403 -1.0923 -0.9647  2.4072
 1967TIP3    H227393   0.905   2.527  16.490  0.2632  0.3306 -0.1385
 1968TIP3   OH227394   4.112   1.970  14.990  0.0547 -0.0336  0.3282
 1968TIP3    H127395   4.098   2.059  15.024  0.7466 -0.0120  0.5788
 1968TIP3    H227396   4.161   1.982  14.909 -2.3578 -0.0350 -1.2245
 1969TIP3   OH227397   3.054   0.267  16.151 -0.6449  0.0266 -0.1089
 1969TIP3    H127398   3.058   0.281  16.056  1.2407 -3.8927 -0.8041
 1969TIP3    H227399   3.104   0.339  16.188  0.4203  0.5094 -2.3151
 1970TIP3   OH227400   4.236   0.530  10.880  0.5497 -0.2745  0.5388
 1970TIP3    H127401   4.142   0.515  10.878  0.8303 -2.1145  0.0300
 1970TIP3    H227402   4.248   0.613  10.833 -0.7318 -0.4900 -0.2123
 1971TIP3   OH227403   5.386   1.826  17.136  0.0966 -0.1607  0.0421
 1971TIP3    H127404   5.461   1.836  17.195 -0.9002 -0.4573  1.4068
 1971TIP3    H227405   5.315   1.873  17.180 -0.7633 -0.7161 -0.7376
 1972TIP3   OH227406   0.545   2.423   0.506 -0.3172  0.4095  0.7879
 1972TIP3    H127407   0.494   2.399   0.428 -0.0239  1.4908  0.2467
 1972TIP3    H227408   0.601   2.347   0.523 -0.8859 -0.1074  0.3643
 1973TIP3   OH227409   0.477   5.285   5.640  0.1356  0.4260  0.2170
 1973TIP3    H127410   0.432   5.208   5.604  0.0350  0.4346  0.3246
 1973TIP3    H227411   0.570   5.265   5.628  0.1050  0.4012  0.0090
 1974TIP3   OH227412   0.909   1.302   3.511 -0.2795  0.2788  0.1643
 1974TIP3    H127413   0.897   1.209   3.489  1.8205  0.0721 -0.3203
 1974TIP3    H227414   0.878   1.310   3.601 -1.2708 -0.6912 -0.0684
 1975TIP3   OH227415   1.523   3.699   4.589  0.3270  0.8675 -0.3011
 1975TIP3    H127416   1.470   3.777   4.578  1.9726  2.0586 -0.0741
 1975TIP3    H227417   1.591   3.705   4.522  0.7605 -0.1199  0.0135
 1976TIP3   OH227418   5.045   2.681  13.198  0.8897 -0.0471 -0.6509
 1976TIP3    H127419   4.984   2.752  13.181  1.9632  0.8043 -1.0605
 1976TIP3    H227420   5.027   2.655  13.289  0.2906  0.5497 -0.5933
 1977TIP3   OH227421   2.751   2.548   4.636  0.1595  0.1908 -0.1826
 1977TIP3    H127422   2.822   2.601   4.601  0.4284 -0.3008 -0.3870
 1977TIP3    H227423   2.718   2.598   4.711  2.8447 -1.0481  2.0145
 1978TIP3   OH227424   5.317   3.543  12.154 -0.1899 -0.6485  0.1854
 1978TIP3    H127425   5.230   3.578  12.139 -0.0000  1.1540  2.6492
 1978TIP3    H227426   5.375   3.600  12.104 -0.2200  0.1292  1.0030
 1979TIP3   OH227427   2.563   3.582   2.677  0.1712  0.2463 -0.1389
 1979TIP3    H127428   2.614   3.517   2.630 -0.7165 -0.3244 -0.3422
 1979TIP3    H227429   2.615   3.662   2.672  1.4470 -0.5234  0.4307
 1980TIP3   OH227430   4.446   1.000  12.324  0.3284 -0.0123  0.1595
 1980TIP3    H127431   4.428   0.916  12.365 -0.0187  0.7689  1.6829
 1980TIP3    H227432   4.414   0.990  12.234  1.9134 -2.0546 -0.2387
 1981TIP3   OH227433   6.063   5.935  16.892 -0.0833 -0.5793  0.2618
 1981TIP3    H127434   6.135   5.873  16.888 -0.3216 -0.9162  0.8823
 1981TIP3    H227435   5.993   5.887  16.938 -0.7555 -0.3168 -0.4691
 1982TIP3   OH227436   1.586   5.014   2.640 -0.1527  0.1473  0.6036
 1982TIP3    H127437   1.515   5.078   2.644 -0.5840 -0.3367  0.7952
 1982TIP3    H227438   1.582   4.969   2.724  0.3622  0.0909  0.6021
 1983TIP3   OH227439   3.754   2.560   5.529 -0.4477 -0.6429 -0.0850
 1983TIP3    H127440   3.712   2.618   5.591  0.7188  2.4160 -1.9534
 1983TIP3    H227441   3.847   2.582   5.534 -0.3320 -0.0799 -2.9777
 1984TIP3   OH227442   2.829   1.156   5.790 -0.6861 -0.8693 -0.3412
 1984TIP3    H127443   2.833   1.207   5.709 -1.7250 -0.3073 -0.0659
 1984TIP3    H227444   2.920   1.133   5.809 -0.1351  1.0759 -0.3734
 1985TIP3   OH227445   4.682   6.311  11.716 -0.0730  0.7061  0.5394
 1985TIP3    H127446   4.680   6.225  11.758  0.8139  0.4549  0.0994
 1985TIP3    H227447   4.614   6.306  11.648 -1.4086  1.0637  1.8138
 1986TIP3   OH227448   5.001   3.336  15.198  0.2084  0.3075 -0.2590
 1986TIP3    H127449   5.067   3.267  15.195 -0.3147 -0.2419  0.4695
 1986TIP3    H227450   4.931   3.300  15.252 -0.0300  1.4508  0.2265
 1987TIP3   OH227451   2.479   5.250  10.968  0.1046  0.5337 -0.1670
 1987TIP3    H127452   2.457   5.157  10.969 -1.0429  0.7894  0.9071
 1987TIP3    H227453   2.432   5.285  10.892 -0.9545  0.5386  0.4626
 1988TIP3   OH227454   2.195   3.933  10.664  0.0817 -0.1446 -0.0203
 1988TIP3    H127455   2.175   3.878  10.740  1.4325 -0.7272 -0.0443
 1988TIP3    H227456   2.174   3.878  10.589  1.2751 -0.5971 -0.0451
 1989TIP3   OH227457   2.411   0.492   0.646 -0.0776  0.4909  0.0938
 1989TIP3    H127458   2.350   0.458   0.711  0.8078 -4.2464 -1.1812
 1989TIP3    H227459   2.364   0.564   0.605 -2.2872  0.9874  3.0980
 1990TIP3   OH227460   0.155   5.342  15.075  0.2083  0.4897 -0.4755
 1990TIP3    H127461   0.203   5.365  15.155 -0.9018 -1.1249  0.7400
 1990TIP3    H227462   0.222   5.337  15.007  1.1634  2.0761  0.2982
 1991TIP3   OH227463   6.461   3.800   6.161 -0.3096  0.2756  0.0967
 1991TIP3    H127464   6.508   3.826   6.240 -0.3954  0.6127  0.0376
 1991TIP3    H227465   6.437   3.708   6.177  0.9394 -0.1125 -0.1526
 1992TIP3   OH227466   3.399   6.430  15.645  0.2889  0.2181  0.1880
 1992TIP3    H127467   3.468   6.458  15.585  0.3431  2.5444  1.2131
 1992TIP3    H227468   3.431   6.453  15.732 -1.1781  0.0920  0.8002
 1993TIP3   OH227469   6.618   5.715  12.522  0.3184 -0.1591 -0.1485
 1993TIP3    H127470   6.535   5.679  12.490  0.1819  1.3101 -1.5443
 1993TIP3    H227471   6.610   5.712  12.618 -0.3516 -2.2137 -0.2347
 1994TIP3   OH227472   1.617   6.282   5.620  0.6703  0.5959 -0.3872
 1994TIP3    H127473   1.599   6.227   5.544  1.3267 -0.0833 -0.0752
 1994TIP3    H227474   1.590   6.228   5.695  1.4190  0.6369 -0.0721
 1995TIP3   OH227475   4.191   0.858  12.703  0.0153 -0.0654  0.0646
 1995TIP3    H127476   4.189   0.925  12.635 -0.7385 -0.6652 -0.5135
 1995TIP3    H227477   4.282   0.831  12.708  0.2398  0.6476 -0.0409
 1996TIP3   OH227478   2.449   2.576  12.097  0.1837  0.2531 -0.0818
 1996TIP3    H127479   2.480   2.596  12.009 -0.6865  0.4407 -0.3476
 1996TIP3    H227480   2.366   2.622  12.105 -0.6705 -1.2548  0.1624
 1997TIP3   OH227481   1.151   4.680   1.758  0.0143  0.0783  0.1307
 1997TIP3    H127482   1.116   4.676   1.669 -0.6896 -0.0728  0.4076
 1997TIP3    H227483   1.186   4.769   1.765  0.2880  0.0175 -0.3696
 1998TIP3   OH227484   3.365   4.729  11.474  0.1456  0.2453  0.6386
 1998TIP3    H127485   3.303   4.764  11.410  1.2532  0.1907 -0.4891
 1998TIP3    H227486   3.379   4.638  11.448 -0.1784 -0.0926  1.5887
 1999TIP3   OH227487   6.250   2.093   2.411 -0.4448 -0.0428 -0.2914
 1999TIP3    H127488   6.189   2.023   2.386  0.3445 -0.2958 -1.6107
 1999TIP3    H227489   6.328   2.047   2.440 -0.2768  0.2865 -0.2197
 2000TIP3   OH227490   2.965   3.285   3.694  0.9847  0.1778 -0.4492
 2000TIP3    H127491   2.982   3.329   3.611 -0.8666  0.4726 -0.7230
 2000TIP3    H227492   3.050   3.254   3.723  2.1381  2.5782 -1.0380
 2001TIP3   OH227493   6.685   1.288   4.235  0.2199 -0.2956  0.5098
 2001TIP3    H127494   6.644   1.203   4.216 -0.1866  0.1400 -0.6253
 2001TIP3    H227495   6.615   1.352   4.223  0.8157  0.3112  0.2025
 2002TIP3   OH227496   5.172   0.256  12.030  0.0597  0.1715  0.1711
 2002TIP3    H127497   5.252   0.207  12.009 -0.9303 -1.1585 -0.6792
 2002TIP3    H227498   5.192   0.346  12.007  0.8131 -0.3794 -1.5368
 2003TIP3   OH227499   0.834   4.455  12.621 -0.1295  0.0118  0.3501
 2003TIP3    H127500   0.877   4.459  12.706 -2.4549  1.2770  1.5750
 2003TIP3    H227501   0.851   4.540  12.581  0.5572 -0.4051 -0.2710
 2004TIP3   OH227502   3.444   0.657  10.370 -0.5596 -0.1732  0.0212
 2004TIP3    H127503   3.451   0.563  10.352 -0.2496 -0.8344  3.1106
 2004TIP3    H227504   3.534   0.685  10.384 -0.7125  0.4754 -0.2701
 2005TIP3   OH227505   4.685   2.182   0.328 -0.7142  0.1733  0.4083
 2005TIP3    H127506   4.704   2.089   0.320  1.1805  0.5131  0.6813
 2005TIP3    H227507   4.600   2.185   0.373 -0.4791 -1.3998  1.0178
 2006TIP3   OH227508   3.405   3.035  13.265 -0.1885 -0.2358 -0.6047
 2006TIP3    H127509   3.403   3.131  13.272 -0.6333 -0.2900  0.1481
 2006TIP3    H227510   3.323   3.013  13.221 -1.1235 -0.3901  1.1305
 2007TIP3   OH227511   4.671   1.520  15.753  0.3580 -0.0419 -0.8811
 2007TIP3    H127512   4.760   1.540  15.723  0.9873 -1.5556 -0.1527
 2007TIP3    H227513   4.645   1.443  15.703  0.6007 -1.3165  0.8440
 2008TIP3   OH227514   0.076   1.114  15.560 -0.3776  0.6714  0.1543
 2008TIP3    H127515   0.016   1.183  15.531  0.3058  0.6039 -1.5238
 2008TIP3    H227516   0.057   1.039  15.504  0.8669  0.4544 -0.0166
 2009TIP3   OH227517   6.060   5.005   2.243  0.4710 -0.3521  0.1414
 2009TIP3    H127518   6.092   4.918   2.220  0.4612 -0.0309 -1.2089
 2009TIP3    H227519   6.103   5.026   2.326  2.2460 -0.7387 -0.6349
 2010TIP3   OH227520   1.122   2.471  11.783  0.4048  0.4872  0.0750
 2010TIP3    H127521   1.184   2.453  11.854 -0.6820 -1.9263  0.5009
 2010TIP3    H227522   1.175   2.510  11.714  2.4433 -1.5419  0.3927
 2011TIP3   OH227523   1.439   4.087  15.505  0.0206 -0.3356 -0.6114
 2011TIP3    H127524   1.375   4.158  15.509 -0.5920 -0.8032 -1.7598
 2011TIP3    H227525   1.524   4.131  15.501 -0.3147  0.3148 -0.6888
 2012TIP3   OH227526   2.023   1.364  14.497  0.2281 -0.2353  0.1039
 2012TIP3    H127527   2.111   1.340  14.468  0.3301 -0.4157  0.5552
 2012TIP3    H227528   1.987   1.415  14.424  0.4808 -0.6763 -0.3371
 2013TIP3   OH227529   2.169   0.530   0.799  0.1816 -0.0065  0.5031
 2013TIP3    H127530   2.197   0.616   0.766  0.7178 -0.5845 -0.5962
 2013TIP3    H227531   2.086   0.548   0.845 -1.1401  0.7519 -1.9895
 2014TIP3   OH227532   3.963   5.215  12.509 -0.0256 -0.4492  0.4731
 2014TIP3    H127533   3.988   5.307  12.503  3.1864 -1.1847  0.7607
 2014TIP3    H227534   3.867   5.216  12.510 -0.1301  2.7853 -0.6501
 2015TIP3   OH227535   6.349   2.515  12.437 -0.1666 -0.1700  0.0927
 2015TIP3    H127536   6.295   2.572  12.383 -1.1128 -0.9661  0.1876
 2015TIP3    H227537   6.404   2.467  12.374  0.5623  0.7400  0.0083
 2016TIP3   OH227538   4.581   5.731  14.205  0.0059  0.0942 -0.2892
 2016TIP3    H127539   4.674   5.751  14.198  0.1141  0.6353  2.0698
 2016TIP3    H227540   4.577   5.635  14.204  0.8693 -0.0242  1.8148
 2017TIP3   OH227541   0.916   4.191  12.566  0.1915 -0.2338 -0.3820
 2017TIP3    H127542   0.924   4.179  12.471 -0.7382 -1.2664 -0.3411
 2017TIP3    H227543   0.861   4.269  12.576 -1.9834 -1.6408 -0.7437
 2018TIP3   OH227544   6.139   3.413   0.139  0.0660 -0.2687 -0.2233
 2018TIP3    H127545   6.174   3.360   0.067  0.3645  0.0499 -0.3118
 2018TIP3    H227546   6.157   3.503   0.113  0.3173 -0.1605  0.3256
 2019TIP3   OH227547   0.840   6.584   5.863 -0.9537  0.2170  0.2112
 2019TIP3    H127548   0.807   6.648   5.926  0.2492  0.0603  1.0468
 2019TIP3    H227549   0.911   6.629   5.817 -1.1922  0.0162 -0.3597
 2020TIP3   OH227550   0.675   0.812   4.197  0.3698  0.3409  0.3988
 2020TIP3    H127551   0.699   0.849   4.112  0.5706 -0.6968 -0.0169
 2020TIP3    H227552   0.583   0.787   4.186  0.0488  1.2759  0.8859
 2021TIP3   OH227553   5.587   1.136   3.852 -0.5014  0.3955 -0.5199
 2021TIP3    H127554   5.636   1.090   3.920 -1.8799  0.1097  0.3084
 2021TIP3    H227555   5.600   1.084   3.773  1.6264  1.0591 -0.6859
 2022TIP3   OH227556   5.991   6.085   6.526 -0.2558  0.7641  0.7492
 2022TIP3    H127557   5.966   6.177   6.540 -2.0577  0.2373  1.2815
 2022TIP3    H227558   5.908   6.037   6.532  0.2855 -0.6647 -1.8451
 2023TIP3   OH227559   5.935   4.959   0.858  0.0466  0.3330 -0.0274
 2023TIP3    H127560   6.015   4.955   0.804 -0.7703 -1.1445 -1.2244
 2023TIP3    H227561   5.878   5.020   0.811  1.2440  3.2950  2.0778
 2024TIP3   OH227562   2.732   1.413   2.964 -0.3363 -0.2971 -0.0269
 2024TIP3    H127563   2.664   1.434   3.027 -1.0446 -1.1738 -0.4895
 2024TIP3    H227564   2.719   1.476   2.893  2.0564  2.4485  1.7355
 2025TIP3   OH227565   2.514   5.345   5.043  0.4386 -0.4532 -0.3877
 2025TIP3    H127566   2.420   5.328   5.053  0.6013 -0.7146  0.8887
 2025TIP3    H227567   2.519   5.438   5.020 -0.1180 -0.3315 -0.0442
 2026TIP3   OH227568   5.334   6.041   3.117  0.1742  0.0747  0.3088
 2026TIP3    H127569   5.332   6.134   3.095 -0.5611  0.0497  0.2419
 2026TIP3    H227570   5.281   5.999   3.049 -1.8545 -0.0589  1.8718
 2027TIP3   OH227571   2.656   0.492   0.724  0.5151 -0.1129  0.1554
 2027TIP3    H127572   2.698   0.549   0.659  0.4629 -0.7428 -0.4477
 2027TIP3    H227573   2.577   0.459   0.680  1.0433 -1.4080  0.1195
 2028TIP3   OH227574   4.572   4.737  12.444  0.2743  0.2269 -0.5385
 2028TIP3    H127575   4.628   4.810  12.471 -1.1973  0.8862  0.9415
 2028TIP3    H227576   4.488   4.778  12.422 -1.1131 -1.0709  1.8840
 2029TIP3   OH227577   0.134   0.480  15.690  0.1776 -0.3475 -0.1400
 2029TIP3    H127578   0.189   0.495  15.767  1.1505  0.0665 -0.8861
 2029TIP3    H227579   0.073   0.553  15.689 -0.1388 -0.5940  0.4787
 2030TIP3   OH227580   6.259   2.737  15.238 -0.2219 -0.4363 -0.2358
 2030TIP3    H127581   6.166   2.724  15.254 -0.1449  0.1780  0.7773
 2030TIP3    H227582   6.263   2.813  15.180 -0.3434 -0.3123 -0.0818
 2031TIP3   OH227583   0.286   5.015  11.687  0.0303 -0.5322 -0.0765
 2031TIP3    H127584   0.238   5.089  11.724 -0.7478  0.4894 -2.8980
 2031TIP3    H227585   0.218   4.953  11.661  0.5643 -1.3527  0.4413
 2032TIP3   OH227586   6.078   6.193  15.945  0.1895 -0.0486 -0.4098
 2032TIP3    H127587   6.137   6.121  15.921 -0.0752 -0.1269 -0.8202
 2032TIP3    H227588   6.122   6.272  15.914  0.0676 -0.1091 -0.7387
 2033TIP3   OH227589   6.733   0.558  12.688  0.1704 -0.1563 -0.3674
 2033TIP3    H127590   6.667   0.559  12.619 -0.1666 -0.7006 -0.0604
 2033TIP3    H227591   6.688   0.596  12.764  0.7078  0.9647 -0.5867
 2034TIP3   OH227592   5.298   4.455  11.098  0.0485 -0.6057 -0.5119
 2034TIP3    H127593   5.359   4.414  11.038 -0.1579 -0.7021 -0.6599
 2034TIP3    H227594   5.320   4.548  11.096  0.2475 -0.6534 -0.4945
 2035TIP3   OH227595   4.492   0.256   1.788  0.0892 -0.2180  0.4603
 2035TIP3    H127596   4.524   0.324   1.848 -0.0793 -1.2633  1.7860
 2035TIP3    H227597   4.411   0.292   1.753  1.2515  1.2989 -0.8107
 2036TIP3   OH227598   1.410   3.217  16.871 -0.1570  0.7490  0.2825
 2036TIP3    H127599   1.342   3.150  16.874 -0.2461  0.8617  0.7909
 2036TIP3    H227600   1.404   3.253  16.782 -0.3995  0.3895  0.1525
 2037TIP3   OH227601   4.593   3.342  16.946  0.2403 -0.1119 -0.1593
 2037TIP3    H127602   4.678   3.303  16.925  0.0442 -0.7673  0.2212
 2037TIP3    H227603   4.600   3.433  16.918  1.8190  0.4390  1.7613
 2038TIP3   OH227604   3.860   1.160   2.108 -0.2674 -0.3936  0.3382
 2038TIP3    H127605   3.922   1.187   2.175  0.2168  0.0784 -0.2808
 2038TIP3    H227606   3.898   1.081   2.070 -0.1051 -0.1832  0.0540
 2039TIP3   OH227607   5.719   0.780  15.319  0.3591 -0.8613 -0.3310
 2039TIP3    H127608   5.667   0.823  15.387 -0.6601 -1.1736 -0.8874
 2039TIP3    H227609   5.759   0.853  15.271 -0.7825 -0.5336 -0.8203
 2040TIP3   OH227610   5.358   0.571  16.249  0.1068 -0.2035 -0.0195
 2040TIP3    H127611   5.426   0.538  16.308  2.6537  0.0714 -2.5793
 2040TIP3    H227612   5.314   0.492  16.218 -0.0826 -0.4717  0.8995
 2041TIP3   OH227613   1.137   4.419   0.045  0.2946  0.2878 -0.3069
 2041TIP3    H127614   1.090   4.336   0.043  1.3106 -0.3126 -2.1771
 2041TIP3    H227615   1.092   4.474  -0.019 -1.4930  1.9270  2.1840
 2042TIP3   OH227616   5.873   1.635   0.974 -0.1015  0.2738 -0.1474
 2042TIP3    H127617   5.918   1.719   0.975 -0.9620  0.7598 -0.8974
 2042TIP3    H227618   5.780   1.657   0.981 -0.3696 -0.5791 -0.8131
 2043TIP3   OH227619   5.743   2.659  15.339  0.4844  0.0534 -0.0564
 2043TIP3    H127620   5.726   2.571  15.370 -0.2906  0.1989 -0.0497
 2043TIP3    H227621   5.660   2.706  15.352  1.4939  1.4153  2.0679
 2044TIP3   OH227622   5.169   2.794  16.303  0.8617  0.3985 -0.0334
 2044TIP3    H127623   5.103   2.855  16.336  0.3516  0.1570 -0.5900
 2044TIP3    H227624   5.165   2.720  16.364  0.8945  0.5456  0.1514
 2045TIP3   OH227625   3.218   0.487  17.072 -0.5052  0.0395  0.3360
 2045TIP3    H127626   3.279   0.429  17.027  1.2884  1.9196  0.2234
 2045TIP3    H227627   3.248   0.488  17.163 -1.1470  0.0066  0.5537
 2046TIP3   OH227628   3.007   1.484   2.791 -0.2222 -0.0368 -0.0885
 2046TIP3    H127629   3.046   1.547   2.731  1.5644  0.1820  1.2301
 2046TIP3    H227630   3.006   1.401   2.742  0.9079  0.2040 -0.5467
 2047TIP3   OH227631   3.563   6.140  16.535  0.0885  1.0950  0.0260
 2047TIP3    H127632   3.486   6.087  16.513  1.0126 -0.1488 -0.2869
 2047TIP3    H227633   3.547   6.169  16.625 -1.5289  2.3027 -0.6033
 2048TIP3   OH227634   5.708   0.178   2.460 -0.4668  0.1030 -0.2055
 2048TIP3    H127635   5.800   0.190   2.484  0.2514  1.2148 -3.1541
 2048TIP3    H227636   5.662   0.174   2.544  2.0861  1.0062  1.3439
 2049TIP3   OH227637   1.073   1.730  13.094  0.2475 -0.4695  0.0733
 2049TIP3    H127638   1.134   1.725  13.167 -0.1679 -0.1380  0.4493
 2049TIP3    H227639   1.030   1.645  13.092  0.0011 -0.3573  0.4506
 2050TIP3   OH227640   1.866   2.477  10.599 -0.6445  0.3569 -0.0596
 2050TIP3    H127641   1.955   2.502  10.621 -1.1640  2.4310 -0.0346
 2050TIP3    H227642   1.875   2.415  10.527  0.8263 -0.3831  0.7363
 2051TIP3   OH227643   2.748   5.204   6.227  0.2743 -0.3501 -0.1295
 2051TIP3    H127644   2.691   5.176   6.298 -1.9467  0.1232 -1.6402
 2051TIP3    H227645   2.780   5.290   6.253  1.4683 -1.1883  1.3348
 2052TIP3   OH227646   4.807   4.002  15.717  0.1081 -0.4614  0.0605
 2052TIP3    H127647   4.718   4.018  15.686 -1.1525 -1.9488  2.5512
 2052TIP3    H227648   4.831   3.918  15.678  1.0174  0.5248 -1.6338
 2053TIP3   OH227649   5.958   1.194  15.268  0.1909 -0.2447  0.1520
 2053TIP3    H127650   5.983   1.144  15.346 -0.8411  2.9806  2.7730
 2053TIP3    H227651   5.863   1.194  15.269 -0.0697 -3.4790 -3.6093
 2054TIP3   OH227652   3.202   3.533  15.091  0.4348  0.8930 -0.4513
 2054TIP3    H127653   3.272   3.504  15.033 -1.6324 -4.9122 -0.7175
 2054TIP3    H227654   3.130   3.557  15.032  0.8466  3.0024 -0.1639
 2055TIP3   OH227655   0.324   2.022  16.455  0.2128 -0.2267  0.0746
 2055TIP3    H127656   0.262   2.016  16.382  1.2069 -0.7761 -0.7522
 2055TIP3    H227657   0.292   1.959  16.519  0.8090 -1.7730 -1.0681
 2056TIP3   OH227658   2.741   5.832   4.343  0.2250  0.5442  0.0584
 2056TIP3    H127659   2.804   5.899   4.368  1.6060 -1.4767  2.3464
 2056TIP3    H227660   2.708   5.797   4.426 -0.5250 -1.5304 -1.0359
 2057TIP3   OH227661   6.347   3.329   4.493  0.0527  0.6147  0.0941
 2057TIP3    H127662   6.265   3.293   4.458  0.4124  0.6342 -0.7919
 2057TIP3    H227663   6.414   3.301   4.431  0.8272  0.0538  1.1512
 2058TIP3   OH227664   4.578   5.132   3.926  0.0034  0.6028 -0.0286
 2058TIP3    H127665   4.601   5.040   3.940 -2.6824  0.0063  0.9548
 2058TIP3    H227666   4.645   5.181   3.975  1.1140 -0.8209 -0.0632
 2059TIP3   OH227667   0.508   5.794   1.796  0.7221 -0.2956  0.3674
 2059TIP3    H127668   0.585   5.743   1.821  0.5657 -0.2420  0.9751
 2059TIP3    H227669   0.481   5.758   1.712  0.9410 -0.8478  0.5290
 2060TIP3   OH227670   6.623   5.710  13.059  0.0428  0.1724  0.4552
 2060TIP3    H127671   6.589   5.636  13.110 -1.3338  0.6510  0.2755
 2060TIP3    H227672   6.662   5.768  13.123  1.7944 -1.0152  0.5297
 2061TIP3   OH227673   0.919   2.924   3.619 -0.5154 -0.2564 -0.4942
 2061TIP3    H127674   0.868   2.979   3.559 -0.1601  0.5070 -0.1065
 2061TIP3    H227675   0.881   2.837   3.609 -1.6002  0.2064 -0.5429
 2062TIP3   OH227676   6.408   3.800   1.117  0.7070 -0.8856  0.0235
 2062TIP3    H127677   6.395   3.826   1.208  1.3546 -2.1927  0.5056
 2062TIP3    H227678   6.319   3.788   1.082  0.2731  2.5864 -0.4875
 2063TIP3   OH227679   6.108   5.819   0.855  0.5614 -0.8586  0.0054
 2063TIP3    H127680   6.060   5.900   0.867  0.8334 -0.5532 -0.8948
 2063TIP3    H227681   6.167   5.836   0.781 -0.9955 -2.5837 -1.7713
 2064TIP3   OH227682   6.355   6.494  11.670 -0.1227 -0.3285  0.0358
 2064TIP3    H127683   6.404   6.465  11.593 -0.3921 -0.1792 -0.1908
 2064TIP3    H227684   6.405   6.459  11.744  0.6502  0.3184 -0.1691
 2065TIP3   OH227685   5.886   0.638  15.462 -0.0048 -0.3307 -0.0857
 2065TIP3    H127686   5.846   0.709  15.412 -0.8933 -1.1867 -0.6378
 2065TIP3    H227687   5.811   0.591  15.500  0.4087 -2.2301 -1.4793
 2066TIP3   OH227688   2.103   2.454  12.928  0.1747  0.0432 -0.0904
 2066TIP3    H127689   2.100   2.549  12.937 -0.0759  0.1170 -0.8336
 2066TIP3    H227690   2.057   2.420  13.005  3.5490  0.3622  2.2463
 2067TIP3   OH227691   4.404   2.335   4.679 -0.0637 -0.5657 -0.1804
 2067TIP3    H127692   4.400   2.426   4.649  1.1100 -0.4125  0.0928
 2067TIP3    H227693   4.313   2.313   4.700 -0.4383  0.3626 -0.7635
 2068TIP3   OH227694   6.712   6.099  12.892 -0.0407  0.1664  0.4337
 2068TIP3    H127695   6.628   6.063  12.864  0.6782 -1.8901  0.7807
 2068TIP3    H227696   6.770   6.089  12.816  0.3852 -0.1471  0.7945
 2069TIP3   OH227697   3.513   3.610   2.583 -0.4556  0.7480 -0.2164
 2069TIP3    H127698   3.475   3.524   2.601 -0.3310  1.0488  1.7404
 2069TIP3    H227699   3.607   3.594   2.575 -0.4619  0.6517 -0.1094
 2070TIP3   OH227700   1.782   1.136  16.557 -0.1213 -0.2888  0.3445
 2070TIP3    H127701   1.835   1.209  16.525  1.1738 -1.6188 -0.7260
 2070TIP3    H227702   1.717   1.121  16.488  0.1690 -0.6672  0.1441
 2071TIP3   OH227703   1.718   5.357   5.454  0.4406  0.2984 -0.1131
 2071TIP3    H127704   1.742   5.352   5.546 -0.5235 -0.1797  0.1287
 2071TIP3    H227705   1.724   5.450   5.433 -0.3915  0.5620  0.7388
 2072TIP3   OH227706   0.112   3.326   2.991  0.0549 -0.1748 -0.5598
 2072TIP3    H127707   0.018   3.309   2.995 -0.3030  1.7053  1.9269
 2072TIP3    H227708   0.147   3.293   3.073  1.0663  1.4665 -0.2590
 2073TIP3   OH227709   4.480   4.759  14.357 -0.0754 -1.2182  0.9472
 2073TIP3    H127710   4.528   4.689  14.402  1.9858 -1.1335 -0.9455
 2073TIP3    H227711   4.537   4.784  14.284 -1.4394  1.4242  0.6799
 2074TIP3   OH227712   1.586   2.405  16.737  0.1091  0.7068  0.5248
 2074TIP3    H127713   1.635   2.434  16.660 -2.4311 -0.2807 -1.6177
 2074TIP3    H227714   1.497   2.437  16.722 -1.2246 -2.2103  1.4131
 2075TIP3   OH227715   2.195   1.908   2.023  0.3006 -0.3736 -0.7179
 2075TIP3    H127716   2.250   1.837   1.989 -0.0112 -1.4489  0.9062
 2075TIP3    H227717   2.113   1.865   2.046  0.2978  0.4067  0.7979
 2076TIP3   OH227718   3.145   4.846   1.089 -0.0757  0.0011 -0.1945
 2076TIP3    H127719   3.209   4.781   1.061 -0.2328  0.6928 -2.3846
 2076TIP3    H227720   3.163   4.923   1.034 -0.9305  1.2509  1.1822
 2077TIP3   OH227721   3.348   5.595  14.965 -0.0136  0.6030 -0.0734
 2077TIP3    H127722   3.312   5.604  15.053  0.6334 -0.7986  0.3684
 2077TIP3    H227723   3.394   5.677  14.949  0.7748  0.4638  1.3326
 2078TIP3   OH227724   5.978   6.566   0.872 -0.2324 -0.5256 -0.0224
 2078TIP3    H127725   6.015   6.593   0.957  0.0869  0.3824 -0.4332
 2078TIP3    H227726   6.006   6.475   0.861  3.0751  0.4729 -0.9010
 2079TIP3   OH227727   2.712   4.715   1.089  0.1416 -0.4560  0.2892
 2079TIP3    H127728   2.775   4.731   1.019 -0.1146 -1.4449 -0.1871
 2079TIP3    H227729   2.679   4.627   1.072  1.1835 -1.3465  2.5234
 2080TIP3   OH227730   0.705   2.893   0.603  0.3812 -0.3177 -0.5579
 2080TIP3    H127731   0.689   2.799   0.614 -0.8196  0.0846  1.7875
 2080TIP3    H227732   0.782   2.911   0.658 -1.4344  0.5783  1.8352
 2081TIP3   OH227733   6.311   6.708   5.053  0.2445  0.0502 -0.3240
 2081TIP3    H127734   6.292   6.727   5.145 -0.1847  0.9641 -0.5963
 2081TIP3    H227735   6.244   6.644   5.027  0.2025 -0.0048 -0.0770
 2082TIP3   OH227736   5.076   0.594   2.252  0.0349 -0.0634  0.2678
 2082TIP3    H127737   5.055   0.619   2.162  2.0823 -0.0886 -0.2706
 2082TIP3    H227738   5.093   0.500   2.248  1.5633  0.1840  0.3481
 2083TIP3   OH227739   0.868   6.582   1.233 -0.0522  0.4009 -0.2242
 2083TIP3    H127740   0.901   6.624   1.313  3.2695  0.8231 -1.6756
 2083TIP3    H227741   0.869   6.651   1.167  1.0997 -0.8206 -1.5485
 2084TIP3   OH227742   2.353   6.480   1.748 -0.3132  0.1726  0.4539
 2084TIP3    H127743   2.426   6.471   1.809 -0.4727  0.4211  0.6815
 2084TIP3    H227744   2.317   6.392   1.740 -1.0364  0.3435  1.6431
 2085TIP3   OH227745   5.919   0.694   1.318 -0.2519  0.0251  0.3616
 2085TIP3    H127746   6.008   0.709   1.349  1.1178 -0.3817 -2.9128
 2085TIP3    H227747   5.916   0.601   1.298 -0.9200  0.2762 -0.8082
 2086TIP3   OH227748   5.996   3.262  11.714 -0.5163  0.2584  0.5744
 2086TIP3    H127749   6.039   3.198  11.657 -2.9223 -0.3615 -0.7097
 2086TIP3    H227750   6.065   3.322  11.740  0.9333  0.0064 -2.2510
 2087TIP3   OH227751   4.233   5.754   0.379  0.2946 -0.4962 -0.2137
 2087TIP3    H127752   4.311   5.717   0.420 -0.5822 -0.8540  1.2006
 2087TIP3    H227753   4.231   5.845   0.411 -0.7324 -0.9558  1.0988
 2088TIP3   OH227754   2.889   6.137  17.224  0.0271  0.2152 -0.0719
 2088TIP3    H127755   2.853   6.162  17.139  0.5558 -2.4108 -1.1645
 2088TIP3    H227756   2.972   6.184  17.231  0.0106  0.3910 -1.0352
 2089TIP3   OH227757   2.851   2.483   3.480  0.4161  0.6705  0.3213
 2089TIP3    H127758   2.898   2.405   3.509 -0.9853 -0.0166  0.8420
 2089TIP3    H227759   2.759   2.458   3.482 -0.2182  2.8084  2.1042
 2090TIP3   OH227760   5.452   4.312  10.251 -0.0643 -0.4068  0.0683
 2090TIP3    H127761   5.411   4.246  10.196 -1.8651 -1.1486  2.1328
 2090TIP3    H227762   5.544   4.289  10.252 -0.2343 -1.2543 -1.3715
 2091TIP3   OH227763   1.558   4.054   2.802  0.6684  0.0949  0.2986
 2091TIP3    H127764   1.592   4.143   2.805  0.2156  0.2644  0.5062
 2091TIP3    H227765   1.487   4.053   2.867  1.9471 -0.9489  1.7600
 2092TIP3   OH227766   6.011   0.572  16.310  0.3670 -0.0647 -0.0061
 2092TIP3    H127767   6.083   0.608  16.362 -0.3543  0.8551  0.3742
 2092TIP3    H227768   5.969   0.648  16.270 -0.4279 -0.5851 -0.1892
 2093TIP3   OH227769   3.195   1.043   6.254 -0.1149 -0.3904  0.1295
 2093TIP3    H127770   3.131   1.093   6.305 -1.7808 -0.4603 -1.7453
 2093TIP3    H227771   3.180   0.952   6.281  0.4600 -0.2416  0.9839
 2094TIP3   OH227772   2.206   3.437   3.291 -0.5887  0.3142 -0.5769
 2094TIP3    H127773   2.301   3.438   3.285 -0.5776  1.1336 -0.4271
 2094TIP3    H227774   2.185   3.353   3.333  0.0361 -0.0358 -0.9493
 2095TIP3   OH227775   3.149   6.541   2.180 -0.1460 -0.6797  0.1114
 2095TIP3    H127776   3.203   6.541   2.259  1.0955  2.5311 -0.5657
 2095TIP3    H227777   3.212   6.532   2.108 -0.9671 -0.9692 -0.5844
 2096TIP3   OH227778   0.916   3.293   0.630 -0.0290  0.5478 -0.2720
 2096TIP3    H127779   0.935   3.339   0.712 -0.6886  0.5950 -0.1379
 2096TIP3    H227780   0.993   3.239   0.615 -0.2962 -0.2102  0.9179
 2097TIP3   OH227781   2.812   6.741  11.180 -0.1772  0.0644  0.3172
 2097TIP3    H127782   2.828   6.818  11.126 -0.1925 -0.2025 -0.0678
 2097TIP3    H227783   2.737   6.766  11.235  0.2803  0.5855  0.7132
 2098TIP3   OH227784   3.506   5.376  16.577  0.3031  0.0706 -0.0836
 2098TIP3    H127785   3.602   5.377  16.573  0.3477 -1.4987 -0.1408
 2098TIP3    H227786   3.484   5.283  16.578 -1.1277  0.3504  2.1027
 2099TIP3   OH227787   0.570   5.222   2.017  0.2824  0.6534 -0.4013
 2099TIP3    H127788   0.478   5.236   1.996 -0.3179 -1.8003  0.2273
 2099TIP3    H227789   0.617   5.283   1.961 -1.6894  1.5494 -1.1755
 2100TIP3   OH227790   3.496   1.180   2.796  0.2250 -0.3425  0.7098
 2100TIP3    H127791   3.498   1.193   2.701 -1.5536 -1.0726  0.5422
 2100TIP3    H227792   3.432   1.244   2.827  0.4714 -0.4146  1.3725
 2101TIP3   OH227793   6.562   3.518  11.697  0.1438 -0.1342  0.6856
 2101TIP3    H127794   6.480   3.567  11.686  0.4072 -0.0554 -1.1127
 2101TIP3    H227795   6.563   3.495  11.790 -0.7154  1.9763  1.2757
 2102TIP3   OH227796   6.551   4.681  16.168  0.6997  1.0522  0.5499
 2102TIP3    H127797   6.499   4.710  16.243 -0.3895 -1.3434  0.8062
 2102TIP3    H227798   6.574   4.590  16.189  1.5888  0.7938 -1.3852
 2103TIP3   OH227799   2.995   4.612  15.716 -0.5723  0.7359 -0.0098
 2103TIP3    H127800   3.007   4.610  15.811 -2.5628 -0.2155  0.2623
 2103TIP3    H227801   3.001   4.520  15.690  0.8084  1.0682 -0.9579
 2104TIP3   OH227802   4.242   5.953  10.941 -0.4458 -0.3287  0.1152
 2104TIP3    H127803   4.292   6.017  10.889  0.2269 -0.5990  0.4139
 2104TIP3    H227804   4.199   5.899  10.876 -0.2908 -0.1323 -0.1555
 2105TIP3   OH227805   4.152   2.166  14.595  0.2774  0.4134  0.3543
 2105TIP3    H127806   4.245   2.161  14.615  0.4350  0.2407 -0.3973
 2105TIP3    H227807   4.144   2.243  14.538 -0.0972  0.6289  0.6864
 2106TIP3   OH227808   6.220   0.839  15.500  0.0300  0.2245 -0.6798
 2106TIP3    H127809   6.215   0.847  15.405  1.6755 -1.5740 -0.9835
 2106TIP3    H227810   6.277   0.912  15.526 -3.3311  3.0743 -0.4926
 2107TIP3   OH227811   0.452   0.968  15.781 -0.1062 -0.0570  0.6162
 2107TIP3    H127812   0.534   0.969  15.732 -1.0824 -1.9319 -1.1973
 2107TIP3    H227813   0.475   0.925  15.864  0.9868  0.5752  0.6628
 2108TIP3   OH227814   1.190   0.493  15.824  0.1032 -0.6618  0.3809
 2108TIP3    H127815   1.278   0.531  15.826 -0.0946 -0.2196  0.8779
 2108TIP3    H227816   1.164   0.487  15.916 -0.5977 -0.2845  0.2133
 2109TIP3   OH227817   2.557   3.345   4.735 -0.0047 -0.4479 -0.2866
 2109TIP3    H127818   2.491   3.340   4.804 -0.4809 -1.9058 -0.8109
 2109TIP3    H227819   2.506   3.349   4.654  0.5269  1.9740 -0.5943
 2110TIP3   OH227820   2.335   2.034  12.739  0.5803  0.4046 -0.0359
 2110TIP3    H127821   2.282   2.038  12.660  0.5198 -1.2933 -0.1131
 2110TIP3    H227822   2.294   2.096  12.799 -1.1553 -0.4504 -0.2958
 2111TIP3   OH227823   3.879   4.413   1.640  0.2115  0.0574 -0.5682
 2111TIP3    H127824   3.802   4.379   1.686  1.2485 -1.1744  0.2907
 2111TIP3    H227825   3.884   4.361   1.559  0.7480 -0.6003 -0.1171
 2112TIP3   OH227826   4.313   2.567  17.234 -0.2373  0.5069 -0.2319
 2112TIP3    H127827   4.302   2.531  17.322  0.8307  1.1899  0.2023
 2112TIP3    H227828   4.347   2.655  17.249 -0.0869  0.6439 -1.3386
 2113TIP3   OH227829   0.727   4.689  12.088 -0.1203  0.2139  0.0605
 2113TIP3    H127830   0.673   4.768  12.094  0.2466  0.3776  1.7182
 2113TIP3    H227831   0.816   4.719  12.108  0.0081 -0.6110  0.8194
 2114TIP3   OH227832   1.813   5.645   5.088 -0.1135 -0.2444 -0.1067
 2114TIP3    H127833   1.745   5.618   5.026 -0.4067 -1.1801  0.6012
 2114TIP3    H227834   1.848   5.726   5.050 -0.4331 -0.6655 -1.3777
 2115TIP3   OH227835   6.702   2.288   0.000 -0.1231 -0.4286  0.1123
 2115TIP3    H127836   6.774   2.272   0.060 -1.4048 -2.2257  1.2670
 2115TIP3    H227837   6.655   2.205  -0.004 -1.3686  0.3024 -1.6542
 2116TIP3   OH227838   2.977   4.421   2.805  0.0581 -0.0013 -0.2352
 2116TIP3    H127839   2.941   4.395   2.720  0.6172 -1.5375 -0.0393
 2116TIP3    H227840   2.903   4.416   2.865 -0.0673 -0.1134 -0.3982
 2117TIP3   OH227841   2.085   0.819  11.548 -0.7000  0.1038  0.1233
 2117TIP3    H127842   2.103   0.800  11.455 -0.6858 -1.1494  0.3609
 2117TIP3    H227843   2.104   0.912  11.557  1.0541 -0.1219 -0.7398
 2118TIP3   OH227844   1.229   1.937   3.170 -0.1345 -0.2099 -0.0632
 2118TIP3    H127845   1.212   1.860   3.224  0.6405  0.1345  0.6894
 2118TIP3    H227846   1.142   1.970   3.147 -0.4749 -1.3094 -0.4127
 2119TIP3   OH227847   4.171   4.392  12.031  0.3115  0.6327  0.0794
 2119TIP3    H127848   4.196   4.484  12.023  1.5241  0.2308 -1.3325
 2119TIP3    H227849   4.247   4.350  12.071 -0.1742  0.2072  0.5740
 2120TIP3   OH227850   6.182   3.402  11.860 -0.2074  0.1196  0.0241
 2120TIP3    H127851   6.244   3.405  11.787 -0.8398 -1.4130 -0.5977
 2120TIP3    H227852   6.230   3.442  11.933  2.5672 -3.2323  0.3066
 2121TIP3   OH227853   6.266   3.836  16.851 -0.0718  0.5289  0.2742
 2121TIP3    H127854   6.226   3.922  16.859 -0.6591  0.3340 -0.4356
 2121TIP3    H227855   6.209   3.789  16.790  0.0211 -0.4889  0.9486
 2122TIP3   OH227856   0.089   5.628   4.867  0.4767 -0.2368 -0.9033
 2122TIP3    H127857   0.157   5.695   4.866  1.0611 -0.8067 -0.4561
 2122TIP3    H227858   0.007   5.677   4.869  0.8316  0.4798 -2.2890
 2123TIP3   OH227859   6.723   2.008  11.787  0.0755  0.0989  0.7788
 2123TIP3    H127860   6.780   1.996  11.863 -0.3718 -0.2895  1.0560
 2123TIP3    H227861   6.636   1.982  11.817 -0.1520  0.1772  0.2060
 2124TIP3   OH227862   6.741   0.879   6.470  0.0232  0.6900  0.4219
 2124TIP3    H127863   6.796   0.827   6.529  0.3735  2.9138  2.2018
 2124TIP3    H227864   6.792   0.959   6.454 -1.6307  1.7169  0.0634
 2125TIP3   OH227865   5.526   6.449   5.595 -0.0303  0.5216  0.5086
 2125TIP3    H127866   5.559   6.462   5.684 -0.2274  0.6689  0.5603
 2125TIP3    H227867   5.540   6.534   5.551  3.3461 -0.4863 -0.6861
 2126TIP3   OH227868   4.485   5.265  11.656 -0.1629  0.6319  0.6913
 2126TIP3    H127869   4.530   5.181  11.649 -2.1022 -0.4568  0.4197
 2126TIP3    H227870   4.484   5.299  11.566 -1.2121 -0.1179  0.3966
 2127TIP3   OH227871   3.533   3.781   5.215 -0.1541  0.2236  0.4111
 2127TIP3    H127872   3.555   3.727   5.292 -2.8141  0.4090  1.4233
 2127TIP3    H227873   3.443   3.756   5.194 -0.2547  1.8224 -1.2591
 2128TIP3   OH227874   6.435   4.392  11.517 -0.9226  0.0345 -0.4745
 2128TIP3    H127875   6.420   4.473  11.469 -1.3936  0.5512  0.5218
 2128TIP3    H227876   6.511   4.410  11.572 -1.1053 -0.1495 -0.1573
 2129TIP3   OH227877   1.768   0.900   4.088 -0.4282  0.0047 -0.3614
 2129TIP3    H127878   1.759   0.937   4.176  1.1270 -0.5521  0.0713
 2129TIP3    H227879   1.819   0.965   4.040 -0.0860 -0.3074 -0.4272
 2130TIP3   OH227880   0.041   5.790  16.053  0.0789 -0.4887  0.3103
 2130TIP3    H127881  -0.037   5.844  16.040 -0.2583 -0.9371  0.4430
 2130TIP3    H227882   0.054   5.789  16.148  0.7767  0.3183  0.2338
 2131TIP3   OH227883   5.590   4.885  13.290  0.1125 -0.5216  0.3672
 2131TIP3    H127884   5.510   4.835  13.310 -0.9285  0.5950 -0.8434
 2131TIP3    H227885   5.615   4.923  13.374 -1.1636 -0.1559  0.6126
 2132TIP3   OH227886   5.189   1.067   5.924  0.1072 -0.0946  0.3454
 2132TIP3    H127887   5.101   1.038   5.949  0.1891  0.1802  0.9711
 2132TIP3    H227888   5.243   1.045   6.000  1.0925 -2.5406 -0.9320
 2133TIP3   OH227889   2.756   5.531   4.964  0.0705 -0.2685 -0.2981
 2133TIP3    H127890   2.830   5.551   5.021 -1.1360  0.4728  1.0529
 2133TIP3    H227891   2.707   5.613   4.957  0.5412 -0.1143 -3.0402
 2134TIP3   OH227892   3.645   0.211  16.930  0.2071  0.0283 -0.4523
 2134TIP3    H127893   3.719   0.260  16.894  1.5657 -1.1464  0.5834
 2134TIP3    H227894   3.634   0.137  16.870  0.5524 -0.3442 -0.0644
 2135TIP3   OH227895   4.463   6.206   0.979  0.3857 -0.4184  0.0609
 2135TIP3    H127896   4.520   6.206   1.055 -1.5678  0.5931  1.6223
 2135TIP3    H227897   4.390   6.264   1.003  0.0491  0.5364 -2.8746
 2136TIP3   OH227898   5.078   5.317  14.905  0.1863  0.3275  0.1737
 2136TIP3    H127899   5.153   5.360  14.946 -0.3808  1.0332  0.4959
 2136TIP3    H227900   5.013   5.387  14.894 -0.5506 -0.3356  0.2039
 2137TIP3   OH227901   5.457   4.315  10.877  0.9100  0.0335 -0.0138
 2137TIP3    H127902   5.442   4.303  10.784 -0.8853  1.5746  0.0203
 2137TIP3    H227903   5.463   4.226  10.912  1.5626 -0.5644 -1.5531
 2138TIP3   OH227904   0.780   3.214  14.849 -0.2484  0.1718 -0.0803
 2138TIP3    H127905   0.750   3.139  14.899  2.0922  0.3738  1.8528
 2138TIP3    H227906   0.856   3.182  14.801  1.5225  1.4393  1.6864
 2139TIP3   OH227907   5.195   5.483   0.113  0.2250  0.3217 -0.1881
 2139TIP3    H127908   5.197   5.435   0.197  1.9418  0.0445 -0.3561
 2139TIP3    H227909   5.184   5.414   0.047 -0.8403  0.5148 -0.2273
 2140TIP3   OH227910   2.675   3.740   2.987  0.5537  0.0599  0.0126
 2140TIP3    H127911   2.675   3.744   3.083  0.4497  0.9501 -0.0141
 2140TIP3    H227912   2.669   3.646   2.967 -0.4563 -0.0820  0.8739
 2141TIP3   OH227913   4.871   5.943  15.688  0.2613  0.0346  0.2452
 2141TIP3    H127914   4.851   5.911  15.776 -0.8628 -0.0963 -0.0465
 2141TIP3    H227915   4.914   6.027  15.703 -1.8061  1.0377  0.9047
 2142TIP3   OH227916   4.769   0.053   4.644  0.1732  0.0325  0.3932
 2142TIP3    H127917   4.859   0.042   4.616 -0.4498  0.2572 -1.9372
 2142TIP3    H227918   4.739   0.132   4.598 -1.1654  0.0292  1.2004
 2143TIP3   OH227919   5.331   1.220  13.240 -0.1836 -0.2789  0.2877
 2143TIP3    H127920   5.352   1.127  13.234  1.0118  0.0709 -1.9062
 2143TIP3    H227921   5.271   1.235  13.167 -0.7981  0.5986  0.9543
 2144TIP3   OH227922   4.724   2.306   1.035 -0.3091  0.2586 -0.5129
 2144TIP3    H127923   4.758   2.382   1.082  0.8594 -0.0348 -0.8569
 2144TIP3    H227924   4.704   2.243   1.104 -1.9448  1.1074 -0.1730
 2145TIP3   OH227925   2.248   2.282  14.885  0.3076 -0.1397 -0.7904
 2145TIP3    H127926   2.183   2.279  14.955 -0.1221  2.2795 -1.0079
 2145TIP3    H227927   2.196   2.283  14.804  0.6621  0.2331 -1.0179
 2146TIP3   OH227928   4.878   0.154   1.421 -0.1156  0.7056 -0.3476
 2146TIP3    H127929   4.825   0.201   1.485 -0.9942  1.3377 -1.4849
 2146TIP3    H227930   4.870   0.206   1.341  0.5885 -0.2831 -1.0924
 2147TIP3   OH227931   3.033   0.633   5.751  0.1744  0.3753  0.0893
 2147TIP3    H127932   2.985   0.563   5.795  0.8765 -1.0384 -1.2502
 2147TIP3    H227933   2.975   0.660   5.679  0.3390  0.4080 -0.0320
 2148TIP3   OH227934   6.520   1.075   4.141  0.3113 -0.3834 -0.5294
 2148TIP3    H127935   6.488   1.044   4.057 -0.3538 -2.0187  0.2760
 2148TIP3    H227936   6.565   1.000   4.179  0.3346  0.2221  0.7053
 2149TIP3   OH227937   1.062   6.297   1.977 -0.2507 -0.2846 -0.0945
 2149TIP3    H127938   1.079   6.212   1.934 -0.2591 -0.1365 -0.3938
 2149TIP3    H227939   1.027   6.274   2.063 -0.7860 -0.5818 -0.3926
 2150TIP3   OH227940   4.282   1.752   3.604  0.0661  0.8544 -0.4450
 2150TIP3    H127941   4.249   1.828   3.652 -0.5124  2.6222 -3.3516
 2150TIP3    H227942   4.211   1.730   3.543  0.9181 -0.9289 -0.8511
 2151TIP3   OH227943   6.176   1.115   1.894  0.0668  0.1642  0.5472
 2151TIP3    H127944   6.121   1.182   1.853  0.6751  0.3643  0.0289
 2151TIP3    H227945   6.217   1.160   1.968  0.4997  0.3841  0.1807
 2152TIP3   OH227946   4.227   2.953   4.895  0.4035  0.2134 -0.3626
 2152TIP3    H127947   4.172   3.032   4.894  0.0251 -0.0288  0.5510
 2152TIP3    H227948   4.263   2.950   4.984  0.5299 -0.5681 -0.4330
 2153TIP3   OH227949   5.956   1.543  11.768 -0.8053 -0.3683 -0.4696
 2153TIP3    H127950   5.946   1.448  11.757  1.5617 -1.1271  2.5674
 2153TIP3    H227951   6.041   1.563  11.729 -0.3007  0.0458  0.7886
 2154TIP3   OH227952   3.563   2.425  15.986  1.1179  0.5090 -0.0966
 2154TIP3    H127953   3.639   2.434  16.043  0.5094  1.4233  0.5956
 2154TIP3    H227954   3.529   2.337  16.004  1.2293  0.5992  0.5850
 2155TIP3   OH227955   0.893   3.623   2.688 -0.0600  0.2245  0.1912
 2155TIP3    H127956   0.959   3.689   2.710 -1.5098  2.2354 -1.0929
 2155TIP3    H227957   0.916   3.594   2.600 -0.1102 -0.0974  0.2830
 2156TIP3   OH227958   6.480   4.705   0.602 -0.8067 -0.0630  0.2817
 2156TIP3    H127959   6.385   4.703   0.608 -1.2633  1.9719 -3.1950
 2156TIP3    H227960   6.505   4.615   0.581 -2.0288 -0.4662  0.4745
 2157TIP3   OH227961   1.064   1.534   0.327 -0.5415  0.4532  0.5849
 2157TIP3    H127962   1.035   1.465   0.268  0.3739  1.1540 -0.7235
 2157TIP3    H227963   0.990   1.595   0.330 -0.1544  1.0408 -0.8669
 2158TIP3   OH227964   6.261   5.029   0.011 -0.3164 -0.2364  0.0750
 2158TIP3    H127965   6.269   4.990  -0.075 -1.7786  0.7935 -0.5797
 2158TIP3    H227966   6.167   5.031   0.028 -0.1669  1.1613  0.9248
 2159TIP3   OH227967   2.464   3.034  13.350 -0.3797 -0.6618  0.0953
 2159TIP3    H127968   2.375   3.039  13.383  0.2355  1.0647  1.6177
 2159TIP3    H227969   2.478   2.940  13.333 -1.7086 -1.2563  1.9844
 2160TIP3   OH227970   6.095   0.596  15.182  0.2412 -0.1963 -0.1766
 2160TIP3    H127971   6.174   0.579  15.233 -1.0741  0.0210  2.0887
 2160TIP3    H227972   6.049   0.512  15.181  0.8595 -0.5602 -2.2552
 2161TIP3   OH227973   4.696   0.114   2.904  0.1525 -0.1243 -0.1769
 2161TIP3    H127974   4.671   0.114   2.996  3.1061 -0.1538  0.7362
 2161TIP3    H227975   4.731   0.026   2.888 -0.2382 -0.0890 -1.3013
 2162TIP3   OH227976   3.149   1.409   3.419  0.5294 -0.2594  0.5231
 2162TIP3    H127977   3.172   1.419   3.511  1.2844  0.8009  0.2420
 2162TIP3    H227978   3.182   1.489   3.378  0.4143 -0.8286 -0.7092
 2163TIP3   OH227979   1.980   5.711   1.302  0.8551  0.0277 -0.1454
 2163TIP3    H127980   1.914   5.776   1.328  0.0148 -1.3146  1.2601
 2163TIP3    H227981   2.003   5.735   1.212  0.7285  2.3710  0.3682
 2164TIP3   OH227982   5.387   4.105  17.005 -0.2458  0.1962  0.2100
 2164TIP3    H127983   5.386   4.081  16.913 -0.7003  0.5180  0.1233
 2164TIP3    H227984   5.479   4.118  17.026 -0.1965  0.9793 -0.4326
 2165TIP3   OH227985   0.633   6.616   6.633 -0.2083 -0.2207  0.0377
 2165TIP3    H127986   0.693   6.617   6.559  0.0823  0.0005  0.2779
 2165TIP3    H227987   0.546   6.613   6.593 -0.0250 -1.9234 -0.3126
 2166TIP3   OH227988   1.803   1.452   1.700  0.4489 -0.4840 -0.3731
 2166TIP3    H127989   1.860   1.506   1.755  0.0321  0.2613 -0.6473
 2166TIP3    H227990   1.863   1.407   1.641  0.8542 -0.8097  0.2735
 2167TIP3   OH227991   6.657   5.034  14.770  0.3857 -0.2451  0.1944
 2167TIP3    H127992   6.712   4.969  14.814  0.4678 -0.4076 -0.1429
 2167TIP3    H227993   6.611   5.078  14.841 -0.4562 -1.3741  0.3826
 2168TIP3   OH227994   6.243   1.024  11.701  0.1749  0.3988 -0.4153
 2168TIP3    H127995   6.336   1.021  11.723  0.3991  1.4480 -1.1783
 2168TIP3    H227996   6.241   1.006  11.607 -0.2679  1.6923 -0.6662
 2169TIP3   OH227997   6.212   0.298   5.688 -0.2579  0.2445  0.9650
 2169TIP3    H127998   6.181   0.210   5.669  1.1706 -0.0036 -0.3453
 2169TIP3    H227999   6.242   0.332   5.604 -0.7542  1.9845  1.4466
 2170TIP3   OH228000   3.632   4.222   0.152  0.0883  0.1966  0.4359
 2170TIP3    H128001   3.655   4.268   0.232 -0.8292 -0.3413  1.0149
 2170TIP3    H228002   3.703   4.159   0.139  1.2021  1.5054 -0.2020
 2171TIP3   OH228003   2.149   2.221  11.723  0.1248  0.9690  0.3816
 2171TIP3    H128004   2.244   2.209  11.733  0.0559 -0.6587 -0.4814
 2171TIP3    H228005   2.129   2.298  11.775  1.7890  0.8178  1.3291
 2172TIP3   OH228006   1.066   5.484   3.375 -0.1531 -0.2846  0.3759
 2172TIP3    H128007   1.091   5.407   3.426 -0.0101  0.1700  1.0048
 2172TIP3    H228008   1.109   5.473   3.290  0.1085 -0.7489  0.5706
 2173TIP3   OH228009   0.862   3.651   4.450 -0.0556 -0.0320  0.7598
 2173TIP3    H128010   0.925   3.722   4.442 -0.1166 -0.0129  0.4115
 2173TIP3    H228011   0.847   3.622   4.359 -1.1454  0.4921  0.7563
 2174TIP3   OH228012   4.114   2.865  15.740 -0.2401 -0.3023 -0.0172
 2174TIP3    H128013   4.029   2.904  15.759 -0.2536 -0.9912  1.5408
 2174TIP3    H228014   4.159   2.863  15.825  2.3088  2.2083 -1.1386
 2175TIP3   OH228015   5.732   5.477   3.604 -0.4334  0.1912 -0.0499
 2175TIP3    H128016   5.800   5.516   3.549  0.7305  1.4760  2.1575
 2175TIP3    H228017   5.678   5.552   3.631 -0.1784 -0.1649  1.5747
 2176TIP3   OH228018   5.364   1.661   2.571 -0.3894  0.4455  0.2317
 2176TIP3    H128019   5.350   1.752   2.542 -1.3442 -0.7797 -3.7969
 2176TIP3    H228020   5.282   1.617   2.551  0.8013 -1.7607 -0.0439
 2177TIP3   OH228021   2.091   5.192   0.133 -0.0015 -0.4388  0.0853
 2177TIP3    H128022   2.183   5.186   0.109  0.2368  0.5179  0.7033
 2177TIP3    H228023   2.080   5.281   0.167 -1.5573  0.1130 -1.6569
 2178TIP3   OH228024   4.035   4.756  10.959 -0.0375 -0.0522 -0.8648
 2178TIP3    H128025   4.054   4.815  10.886 -0.7429 -0.4486 -1.3817
 2178TIP3    H228026   3.939   4.753  10.963 -0.0056 -0.4997 -0.3050
 2179TIP3   OH228027   4.014   1.822  14.275 -0.2063  0.3490  0.4402
 2179TIP3    H128028   4.007   1.888  14.345 -1.4583  0.9929 -0.2546
 2179TIP3    H228029   3.951   1.754  14.300 -1.9696  1.4108 -0.8813
 2180TIP3   OH228030   0.640   0.450   1.562  0.0320 -0.4275  0.2630
 2180TIP3    H128031   0.680   0.520   1.613 -1.9483  0.4117  0.7828
 2180TIP3    H228032   0.670   0.465   1.472  2.0041 -0.7540  0.8331
 2181TIP3   OH228033   2.532   1.496  15.048 -1.2476  0.1778  0.0184
 2181TIP3    H128034   2.490   1.431  14.992  0.0993 -0.7220  0.0039
 2181TIP3    H228035   2.527   1.459  15.136  1.9873 -1.4103 -0.3231
 2182TIP3   OH228036   4.407   3.844  13.524  0.2298 -0.3579  0.2209
 2182TIP3    H128037   4.475   3.844  13.591  1.8382 -2.1442 -1.2920
 2182TIP3    H228038   4.379   3.753  13.518 -0.7649 -0.0226 -0.6898
 2183TIP3   OH228039   0.964   3.514  15.373  0.4739 -0.1183  0.2286
 2183TIP3    H128040   0.974   3.609  15.360 -0.3316  0.1375  1.3470
 2183TIP3    H228041   0.904   3.486  15.304 -1.8093  0.7769  1.7404
 2184TIP3   OH228042   2.839   1.043  16.315 -0.2684 -0.3299 -0.0527
 2184TIP3    H128043   2.890   0.967  16.288  0.6022  0.5132 -0.8739
 2184TIP3    H228044   2.867   1.113  16.256 -1.7729  0.3830  0.0220
 2185TIP3   OH228045   5.038   3.494   3.734 -0.1858  0.0587 -0.3155
 2185TIP3    H128046   5.053   3.412   3.686 -2.1395  0.0272 -0.9514
 2185TIP3    H228047   5.124   3.518   3.767  0.5001 -2.1242 -0.3242
 2186TIP3   OH228048   1.682   5.908  16.087 -0.0199 -0.5005  0.4160
 2186TIP3    H128049   1.627   5.986  16.082 -0.4841 -0.8898 -1.0986
 2186TIP3    H228050   1.771   5.941  16.080 -0.1501 -0.0260  0.8973
 2187TIP3   OH228051   4.104   0.755  11.320 -0.6144 -0.7836 -0.1117
 2187TIP3    H128052   4.100   0.664  11.347  2.5980 -0.6601  1.2664
 2187TIP3    H228053   4.057   0.803  11.388 -1.8426 -1.3098 -0.5601
 2188TIP3   OH228054   0.234   5.129   1.354 -0.1966 -0.9948 -0.0620
 2188TIP3    H128055   0.235   5.081   1.271  0.3946 -1.5173  0.2306
 2188TIP3    H228056   0.143   5.156   1.366 -0.0563  0.2081 -1.5031
 2189TIP3   OH228057   3.765   1.527  12.678  0.2253 -0.0463 -0.2626
 2189TIP3    H128058   3.776   1.476  12.597 -0.3857  0.1334 -0.4602
 2189TIP3    H228059   3.792   1.616  12.654  0.3550 -0.0608 -0.1762
 2190TIP3   OH228060   6.297   4.951  16.655 -0.3011  0.8688  0.2648
 2190TIP3    H128061   6.366   4.918  16.598  0.8872  0.2594  1.9656
 2190TIP3    H228062   6.264   4.874  16.701 -2.8226  0.9946 -1.1402
 2191TIP3   OH228063   0.070   4.649  14.733  0.4152 -0.1121 -0.4013
 2191TIP3    H128064   0.163   4.652  14.755  0.0984  0.7767  0.9754
 2191TIP3    H228065   0.044   4.558  14.751  1.0972 -0.4760 -1.2190
 2192TIP3   OH228066   3.701   6.201  14.350  0.4129 -0.1560 -0.6336
 2192TIP3    H128067   3.741   6.191  14.263  0.9828  0.2533 -0.4286
 2192TIP3    H228068   3.673   6.292  14.353  1.0287  0.0283 -0.1400
 2193TIP3   OH228069   6.805   5.414  12.679  0.1848  0.1756 -0.0519
 2193TIP3    H128070   6.787   5.442  12.589  1.7654 -1.0432 -0.8120
 2193TIP3    H228071   6.786   5.320  12.679 -1.7935  0.5107  1.5042
 2194TIP3   OH228072   2.147   1.482   4.146 -0.0376 -0.0534 -0.5701
 2194TIP3    H128073   2.118   1.541   4.216 -1.2774  0.2603 -1.3065
 2194TIP3    H228074   2.176   1.541   4.077  1.5094 -0.3639 -0.2084
 2195TIP3   OH228075   5.274   6.501   6.174  0.2328 -0.7697 -0.1242
 2195TIP3    H128076   5.243   6.586   6.204  0.3861 -1.2775  1.5674
 2195TIP3    H228077   5.278   6.448   6.253  3.3506 -1.3801 -0.5825
 2196TIP3   OH228078   1.817   3.478   1.849  0.4662  0.1035 -0.0118
 2196TIP3    H128079   1.818   3.396   1.800  1.6771  0.6556 -0.9564
 2196TIP3    H228080   1.887   3.530   1.810 -0.5539  1.7564  0.2728
 2197TIP3   OH228081   0.393   6.595   4.646  0.2260 -0.3687 -0.5309
 2197TIP3    H128082   0.329   6.544   4.596 -0.4360  0.7285 -0.8250
 2197TIP3    H228083   0.408   6.673   4.594 -1.9197  1.7576  1.7557
 2198TIP3   OH228084   6.630   3.974   1.980 -0.6889  0.3167  0.5122
 2198TIP3    H128085   6.562   4.040   1.966 -0.0279  1.1088  0.9028
 2198TIP3    H228086   6.709   4.025   1.999  0.0347 -0.5777 -0.0030
 2199TIP3   OH228087   0.379   5.909  11.701 -0.1886 -0.6411  0.0986
 2199TIP3    H128088   0.392   5.987  11.755 -0.8896 -0.1109 -0.4646
 2199TIP3    H228089   0.363   5.943  11.613 -1.7412 -1.3363  0.0687
 2200TIP3   OH228090   5.503   2.381  14.385 -0.1040 -0.1747 -0.1858
 2200TIP3    H128091   5.518   2.474  14.397  0.4673 -0.2775 -0.0640
 2200TIP3    H228092   5.423   2.363  14.433 -1.0714  0.5394 -1.4670
 2201TIP3   OH228093   3.202   0.547   1.174  0.0304 -0.2083  0.2715
 2201TIP3    H128094   3.108   0.532   1.162  0.1009  0.3168 -1.0909
 2201TIP3    H228095   3.243   0.465   1.149 -0.0102 -0.0880 -0.2047
 2202TIP3   OH228096   6.418   1.435   0.660 -0.7566 -0.1446 -0.4656
 2202TIP3    H128097   6.360   1.428   0.584 -1.0307  1.1246 -0.3803
 2202TIP3    H228098   6.432   1.529   0.671  1.0848 -0.4050 -0.3112
 2203TIP3   OH228099   3.639   4.608   0.874  0.0229 -0.1647 -0.1260
 2203TIP3    H128100   3.582   4.539   0.840  2.6713 -1.4142 -2.4303
 2203TIP3    H228101   3.597   4.690   0.846 -1.5889 -0.9230 -0.0337
 2204TIP3   OH228102   3.228   4.407  13.061 -0.0273 -0.3074  0.1451
 2204TIP3    H128103   3.173   4.381  13.135  0.3121 -2.2712 -0.2453
 2204TIP3    H228104   3.298   4.342  13.059  1.6430  1.4150 -0.1391
 2205TIP3   OH228105   0.322   2.629   0.554  0.6068 -0.1914  0.2370
 2205TIP3    H128106   0.376   2.551   0.567  1.1961  0.4580  1.9895
 2205TIP3    H228107   0.366   2.677   0.484 -0.4118 -1.9363 -1.6925
 2206TIP3   OH228108   0.227   1.728   2.210  0.0345 -0.4747  0.3292
 2206TIP3    H128109   0.268   1.812   2.233  2.4687 -0.9789 -1.7430
 2206TIP3    H228110   0.250   1.670   2.283 -0.1647  0.2117  0.9492
 2207TIP3   OH228111   0.560   1.742   5.847 -0.4714  0.3540  0.3501
 2207TIP3    H128112   0.641   1.699   5.819  0.6621  3.0645 -0.9474
 2207TIP3    H228113   0.507   1.747   5.767 -0.1467  2.0945  0.1945
 2208TIP3   OH228114   5.623   1.056   1.073  0.3543  0.1305  0.3554
 2208TIP3    H128115   5.535   1.067   1.037 -0.5016 -2.0517  1.5496
 2208TIP3    H228116   5.636   1.132   1.130  0.2021  1.6245 -1.5082
 2209TIP3   OH228117   5.170   6.250   4.723  0.0318 -0.5329  0.6928
 2209TIP3    H128118   5.106   6.256   4.653 -0.3380  0.7102  1.1153
 2209TIP3    H228119   5.127   6.291   4.798  1.2337  0.1229  1.0451
 2210TIP3   OH228120   5.222   3.408   4.313  0.3889  0.2048 -0.6286
 2210TIP3    H128121   5.167   3.384   4.239 -0.3188  1.0394 -0.3969
 2210TIP3    H228122   5.269   3.328   4.336 -0.9980 -0.6410 -0.6094
 2211TIP3   OH228123   0.525   5.705   4.761  0.3981 -0.3812  0.1013
 2211TIP3    H128124   0.451   5.682   4.706  0.0045 -1.4651  1.0506
 2211TIP3    H228125   0.532   5.633   4.823  3.6041 -1.4733 -1.2926
 2212TIP3   OH228126   1.096   0.394  15.177 -0.1189 -0.8058  0.1245
 2212TIP3    H128127   1.025   0.330  15.184 -1.7392  0.9058  0.1835
 2212TIP3    H228128   1.064   0.457  15.112  1.3913 -0.0121  0.1188
 2213TIP3   OH228129   2.652   5.490  14.870  0.2608  0.0623  0.9850
 2213TIP3    H128130   2.631   5.453  14.784 -1.4603  0.3437  1.2299
 2213TIP3    H228131   2.636   5.418  14.931 -0.5378  0.4208  1.2236
 2214TIP3   OH228132   3.572   3.122   1.197 -0.2402 -0.3381  0.1102
 2214TIP3    H128133   3.567   3.212   1.229  0.9792  0.4990 -1.8394
 2214TIP3    H228134   3.482   3.090   1.200 -0.8746  1.3170 -0.1030
 2215TIP3   OH228135   0.454   0.705   2.079  0.1832  0.2041  0.0443
 2215TIP3    H128136   0.511   0.668   2.146  0.7292 -0.5443 -0.8015
 2215TIP3    H228137   0.441   0.796   2.105 -0.6050 -0.3635  1.8073
 2216TIP3   OH228138   1.222   4.401  11.282  0.3964 -0.1054  0.1209
 2216TIP3    H128139   1.295   4.415  11.341 -1.8836 -0.4573  3.2742
 2216TIP3    H228140   1.241   4.317  11.240  2.0539  0.1051  0.3899
 2217TIP3   OH228141   3.669   4.067  13.421 -0.0382  0.5144 -0.1915
 2217TIP3    H128142   3.590   4.112  13.453 -0.8954 -1.2613  0.3136
 2217TIP3    H228143   3.646   4.040  13.332  0.5402  1.2131 -0.5605
 2218TIP3   OH228144   0.930   6.338  14.491  0.3259 -0.5333  0.1353
 2218TIP3    H128145   0.901   6.358  14.403  2.9990  0.0182 -0.7162
 2218TIP3    H228146   0.850   6.337  14.544 -1.1221  1.1542 -1.8902
 2219TIP3   OH228147   6.702   0.192  12.862 -0.7307  0.0863  0.8177
 2219TIP3    H128148   6.745   0.257  12.918 -1.2778  1.7573 -0.5979
 2219TIP3    H228149   6.679   0.241  12.783 -2.2142 -1.5786  0.1643
 2220TIP3   OH228150   3.971   6.755   6.013 -0.4548 -0.1321 -0.3617
 2220TIP3    H128151   3.960   6.711   5.929 -0.3765  1.0534 -0.9983
 2220TIP3    H228152   3.927   6.697   6.076 -0.0787 -1.2686 -1.1297
 2221TIP3   OH228153   3.742   5.522  13.983 -0.0813 -0.5136 -0.3239
 2221TIP3    H128154   3.663   5.501  14.031  1.1370 -1.7224  1.2627
 2221TIP3    H228155   3.778   5.437  13.957  1.3841 -0.0700  0.1623
 2222TIP3   OH228156   3.997   3.607  13.595  0.4418 -0.0374  0.5871
 2222TIP3    H128157   3.965   3.660  13.521 -1.6867 -1.6719  0.2153
 2222TIP3    H228158   3.918   3.589  13.646  1.7600  0.3908  2.8670
 2223TIP3   OH228159   4.552   1.136   2.650  0.1983  0.7894  0.0289
 2223TIP3    H128160   4.626   1.190   2.624  1.1406  0.1867  1.3660
 2223TIP3    H228161   4.492   1.140   2.575  1.3765  1.6296 -0.9051
 2224TIP3   OH228162   3.956   0.088  14.876  0.2707  0.9155 -0.6116
 2224TIP3    H128163   3.914   0.011  14.837 -0.1477 -0.0951  1.6711
 2224TIP3    H228164   4.049   0.077  14.856  0.2482 -0.3299 -0.1394
 2225TIP3   OH228165   1.071   5.124  11.807  0.2120 -0.6224  0.0933
 2225TIP3    H128166   1.154   5.094  11.844  0.9947  1.2956  0.0042
 2225TIP3    H228167   1.028   5.170  11.879  0.5609  0.8628 -0.6073
 2226TIP3   OH228168   2.655   1.658   2.329  0.8022  0.0910 -0.1139
 2226TIP3    H128169   2.593   1.717   2.286 -0.2859 -1.9950 -1.5819
 2226TIP3    H228170   2.706   1.715   2.386 -1.7552  2.0641  0.3801
 2227TIP3   OH228171   2.296   0.507  11.457  0.1569  0.6517 -0.2693
 2227TIP3    H128172   2.345   0.431  11.489 -2.4211 -0.9625  0.1458
 2227TIP3    H228173   2.353   0.546  11.391  1.3460 -2.0392 -0.9825
 2228TIP3   OH228174   1.041   4.222   2.934  0.0484  0.1837  0.0196
 2228TIP3    H128175   1.105   4.198   3.001  1.8211  0.9208 -1.3330
 2228TIP3    H228176   1.093   4.232   2.854 -1.5278  2.3066 -0.8290
 2229TIP3   OH228177   4.751   3.066   5.318 -0.2672 -0.8590 -0.4906
 2229TIP3    H128178   4.730   3.139   5.260 -2.9705 -1.1150  0.0465
 2229TIP3    H228179   4.670   3.017   5.325  0.8207 -2.5735  1.1102
 2230TIP3   OH228180   4.509   6.471  14.719  0.2390  0.1712  0.2816
 2230TIP3    H128181   4.544   6.531  14.785 -0.2555  0.1301  0.5828
 2230TIP3    H228182   4.584   6.418  14.692  0.2388 -0.5084  1.5564
 2231TIP3   OH228183   6.270   4.207   5.698  0.0906 -1.0722  0.1484
 2231TIP3    H128184   6.281   4.207   5.603  1.7427 -0.3190  0.3004
 2231TIP3    H228185   6.185   4.165   5.713 -1.3291  0.9225 -1.7671
 2232TIP3   OH228186   5.465   3.303   2.642 -0.7166  0.0713  0.3166
 2232TIP3    H128187   5.504   3.221   2.670  1.9876  0.1091 -2.7202
 2232TIP3    H228188   5.393   3.278   2.584  0.7076 -0.3315 -1.3916
 2233TIP3   OH228189   5.106   0.090   3.206  0.1397 -0.0448 -0.4223
 2233TIP3    H128190   5.020   0.082   3.164  0.7763  1.0026 -2.0173
 2233TIP3    H228191   5.128  -0.000   3.230 -2.5718 -0.0837  2.6789
 2234TIP3   OH228192   1.045   3.259  11.425 -0.0465 -0.4067  0.4364
 2234TIP3    H128193   1.055   3.182  11.368 -0.2036 -0.7693  0.8925
 2234TIP3    H228194   1.125   3.310  11.411 -0.2840 -0.2707 -0.4422
 2235TIP3   OH228195   2.447   3.038   2.110 -0.6570 -0.3209 -0.2823
 2235TIP3    H128196   2.446   3.086   2.193 -0.1870 -0.3753 -0.2434
 2235TIP3    H228197   2.355   3.035   2.083 -0.8731 -0.7685  0.5020
 2236TIP3   OH228198   4.398   0.490   0.527  0.6868 -0.1211  0.0033
 2236TIP3    H128199   4.313   0.489   0.484  1.1025 -1.9025 -0.8873
 2236TIP3    H228200   4.461   0.497   0.455  1.3438 -1.1523  0.4496
 2237TIP3   OH228201   4.496   5.997  15.158  0.2140 -0.5007  0.2693
 2237TIP3    H128202   4.516   6.022  15.248  0.8306 -2.8595  0.8542
 2237TIP3    H228203   4.556   5.925  15.139 -2.0192 -2.1898 -0.8962
 2238TIP3   OH228204   5.227   6.773   0.691 -0.4360 -0.3827  0.0397
 2238TIP3    H128205   5.266   6.751   0.776 -1.1973  1.1289  0.8072
 2238TIP3    H228206   5.143   6.811   0.712 -1.0670 -0.8625 -1.4723
 2239TIP3   OH228207   4.369   2.868   2.997  0.1888 -0.5316  0.1389
 2239TIP3    H128208   4.288   2.887   3.043 -0.3259 -0.6319 -0.6999
 2239TIP3    H228209   4.406   2.954   2.977 -0.4575 -0.4384 -0.7416
 2240TIP3   OH228210   3.864   2.188  13.485 -0.4522 -0.5510  0.2057
 2240TIP3    H128211   3.850   2.097  13.460 -0.7374 -0.2395 -0.8325
 2240TIP3    H228212   3.794   2.236  13.440 -0.4025  0.1644  0.8663
 2241TIP3   OH228213   5.757   3.745  11.725  0.5389  0.2113  0.4973
 2241TIP3    H128214   5.793   3.661  11.697  0.6716  0.3459  0.2661
 2241TIP3    H228215   5.795   3.809  11.666 -1.2902  0.1700 -0.7989
 2242TIP3   OH228216   1.059   1.569   1.667 -0.2317  0.2165 -0.6206
 2242TIP3    H128217   1.085   1.576   1.759  0.4588 -0.5544 -0.7415
 2242TIP3    H228218   1.054   1.659   1.636 -0.4470  0.4836  0.1647
 2243TIP3   OH228219   2.742   1.655  16.150 -0.5289 -0.0166 -0.0256
 2243TIP3    H128220   2.820   1.705  16.174 -0.2959 -0.4004  0.0168
 2243TIP3    H228221   2.717   1.608  16.230 -1.2771  0.7220  0.1923
 2244TIP3   OH228222   2.098   0.124  16.570  0.1266 -0.6977 -0.6353
 2244TIP3    H128223   2.010   0.148  16.600 -0.1807 -1.8489 -0.5925
 2244TIP3    H228224   2.125   0.198  16.516 -0.4289  0.1634  0.2241
 2245TIP3   OH228225   6.088   0.076  11.858  0.3406 -0.2869  0.0988
 2245TIP3    H128226   6.036   0.134  11.802  0.8371  0.2748  0.2049
 2245TIP3    H228227   6.149   0.135  11.903 -0.1946 -0.7067  1.4031
 2246TIP3   OH228228   5.977   0.514  13.401  0.3026 -0.3112 -0.1591
 2246TIP3    H128229   5.923   0.479  13.472  0.9492 -0.4038  0.2970
 2246TIP3    H228230   6.066   0.513  13.436  0.3621  1.8218 -0.1048
 2247TIP3   OH228231   3.317   1.482   3.090 -0.3476 -0.5404 -0.1904
 2247TIP3    H128232   3.360   1.462   3.173 -2.3799  0.7317  1.2709
 2247TIP3    H228233   3.229   1.511   3.115 -1.0251 -0.0822 -2.7998
 2248TIP3   OH228234   3.218   2.712  13.456 -0.1893  0.0708 -0.4938
 2248TIP3    H128235   3.129   2.730  13.428 -0.2554 -0.9461 -0.9852
 2248TIP3    H228236   3.225   2.617  13.457  0.0473  0.0379  2.2721
 2249TIP3   OH228237   3.183   3.861  17.076  0.1105 -0.7808  0.2715
 2249TIP3    H128238   3.184   3.832  17.167 -1.0044  1.4402  1.0814
 2249TIP3    H228239   3.153   3.785  17.027 -1.0145 -1.5203  2.0020
 2250TIP3   OH228240   4.398   6.066   6.398 -0.0399 -0.4107  0.3802
 2250TIP3    H128241   4.483   6.081   6.438  0.8908 -1.3896 -1.1292
 2250TIP3    H228242   4.416   6.011   6.322 -2.0532 -0.8465  0.1478
 2251TIP3   OH228243   3.269   6.536   6.407  0.1661 -0.0241 -0.2592
 2251TIP3    H128244   3.251   6.621   6.448  1.7089 -0.4243  1.3630
 2251TIP3    H228245   3.337   6.554   6.343 -0.0189  0.0624 -0.4357
 2252TIP3   OH228246   1.308   0.792  15.400 -0.0806 -0.8123 -0.1266
 2252TIP3    H128247   1.375   0.724  15.404  0.8146 -0.0765 -1.8971
 2252TIP3    H228248   1.354   0.873  15.420 -0.5369 -0.3575 -0.8692
 2253TIP3   OH228249   3.058   2.788   6.074 -0.0654  0.0442  0.9062
 2253TIP3    H128250   3.093   2.723   6.135 -0.1842 -0.7100  0.1896
 2253TIP3    H228251   3.118   2.785   5.999 -0.9739 -0.3975  0.1864
 2254TIP3   OH228252   2.565   5.992   6.468 -0.1873 -0.2703  0.2022
 2254TIP3    H128253   2.543   6.003   6.560  0.6861 -0.2512  0.4094
 2254TIP3    H228254   2.600   5.903   6.461  1.6171  0.4025  0.2718
 2255TIP3   OH228255   0.814   3.668   2.962 -0.4038  0.1147 -0.3746
 2255TIP3    H128256   0.899   3.655   3.003 -0.5543 -1.8761 -0.6006
 2255TIP3    H228257   0.829   3.648   2.869 -0.8707  0.9197 -0.6325
 2256TIP3   OH228258   2.390   6.182  16.284 -0.5810  0.2549  0.1628
 2256TIP3    H128259   2.324   6.119  16.254 -1.3978  0.6677  1.0503
 2256TIP3    H228260   2.358   6.211  16.370  0.0264  1.5340 -0.0290
 2257TIP3   OH228261   5.513   4.211  16.003 -0.4009  0.2822 -0.5141
 2257TIP3    H128262   5.536   4.154  15.930  0.1328 -0.6118  0.3330
 2257TIP3    H228263   5.597   4.235  16.042 -0.5894  1.8649 -0.9794
 2258TIP3   OH228264   0.515   4.228   5.729 -0.2913  0.2622 -0.3359
 2258TIP3    H128265   0.503   4.281   5.808 -1.3091 -0.6264  0.1306
 2258TIP3    H228266   0.580   4.163   5.753 -0.6901 -0.0837 -0.1830
 2259TIP3   OH228267   0.120   3.682   1.977 -0.5596  0.4784 -0.1255
 2259TIP3    H128268   0.134   3.711   2.067  0.6546  1.2703 -0.5289
 2259TIP3    H228269   0.027   3.663   1.971 -0.4460 -0.7533  1.6141
 2260TIP3   OH228270   3.576   1.659  15.985 -0.5559  0.0352 -0.7149
 2260TIP3    H128271   3.536   1.714  15.917 -0.0023  1.2873 -0.0682
 2260TIP3    H228272   3.584   1.573  15.945 -2.4008  0.1444 -1.4235
 2261TIP3   OH228273   5.439   0.111  13.314  0.3386 -0.2683 -0.0932
 2261TIP3    H128274   5.344   0.109  13.314  0.2720  1.2007 -0.9189
 2261TIP3    H228275   5.465   0.046  13.379 -1.2313 -0.1658  0.6746
 2262TIP3   OH228276   0.258   4.485  10.975 -0.5633  0.0606  0.0384
 2262TIP3    H128277   0.349   4.507  10.955 -0.5917  0.1688  0.0312
 2262TIP3    H228278   0.207   4.560  10.944 -0.6334  0.1048  0.2615
 2263TIP3   OH228279   5.803   6.703  17.250 -0.3704 -0.1852  0.2611
 2263TIP3    H128280   5.732   6.714  17.312 -0.6005  0.4000 -0.1023
 2263TIP3    H228281   5.811   6.788  17.207  0.6643 -0.1831  0.4245
 2264TIP3   OH228282   6.781   5.758   2.019  0.2928 -0.8738  0.2422
 2264TIP3    H128283   6.692   5.725   2.030 -0.1025 -0.4066 -1.3496
 2264TIP3    H228284   6.803   5.739   1.928  0.4165  2.2616 -0.4990
 2265TIP3   OH228285   1.430   5.951   1.701  0.0639  0.1143 -0.3562
 2265TIP3    H128286   1.370   5.877   1.712  0.7509 -0.1778  1.8826
 2265TIP3    H228287   1.499   5.917   1.644 -2.3588  0.8345 -4.0471
 2266TIP3   OH228288   2.221   2.322   0.413  0.0394 -0.0729  0.8188
 2266TIP3    H128289   2.131   2.333   0.380 -0.1385 -1.1179  0.9317
 2266TIP3    H228290   2.275   2.370   0.350 -0.4822 -0.4769  0.0422
 2267TIP3   OH228291   6.256   1.272   4.844 -0.1295  0.2328  0.0440
 2267TIP3    H128292   6.276   1.182   4.868  0.3360  0.3789  0.2096
 2267TIP3    H228293   6.229   1.267   4.752 -0.0843 -0.0675  0.0460
 2268TIP3   OH228294   3.888   3.286   1.095  0.8322  0.2336 -0.1539
 2268TIP3    H128295   3.963   3.306   1.151 -0.5675  0.1326  1.8950
 2268TIP3    H228296   3.832   3.364   1.101  0.6253  0.1976 -1.4016
 2269TIP3   OH228297   2.430   0.252  12.382 -0.1788  0.2418 -0.0145
 2269TIP3    H128298   2.497   0.318  12.362 -0.2391  0.1181 -0.6113
 2269TIP3    H228299   2.355   0.303  12.415  0.2536  0.3696  0.8090
 2270TIP3   OH228300   0.986   2.618   1.444 -0.0626 -0.0643 -0.0746
 2270TIP3    H128301   0.968   2.613   1.350 -0.3035 -1.2144  0.0266
 2270TIP3    H228302   1.061   2.561   1.458 -1.4515 -1.7506  0.7680
 2271TIP3   OH228303   1.168   4.790  12.271  0.2692 -0.5829  0.4245
 2271TIP3    H128304   1.149   4.803  12.364  1.3451 -1.9990  0.8721
 2271TIP3    H228305   1.228   4.860  12.249  0.7060 -0.7505  1.0398
 2272TIP3   OH228306   5.784   4.417   1.595  0.1234  0.1620  0.0481
 2272TIP3    H128307   5.749   4.369   1.670 -0.8904  2.8045  1.3967
 2272TIP3    H228308   5.777   4.355   1.522 -0.5066 -1.9142  1.7464
 2273TIP3   OH228309   3.409   4.979   0.232  0.5427  0.9123 -0.4438
 2273TIP3    H128310   3.328   5.016   0.268 -0.9609 -2.2797 -0.1596
 2273TIP3    H228311   3.403   4.993   0.138 -0.4421  0.5906 -0.4389
 2274TIP3   OH228312   4.061   5.154  16.615 -0.0847 -0.2001  0.8122
 2274TIP3    H128313   3.988   5.169  16.554  1.4645 -1.5080 -1.5222
 2274TIP3    H228314   4.091   5.065  16.596  0.9867 -0.3773  3.0041
 2275TIP3   OH228315   4.130   4.531   1.446 -0.0276 -0.2427 -0.1235
 2275TIP3    H128316   4.132   4.522   1.542  0.6142 -0.3652 -0.1443
 2275TIP3    H228317   4.201   4.591   1.426 -0.3527  0.0172 -0.5019
 2276TIP3   OH228318   1.453   1.398   4.346  0.3492 -0.7002 -0.3176
 2276TIP3    H128319   1.428   1.314   4.308  1.3223 -1.6038  0.9275
 2276TIP3    H228320   1.370   1.436   4.377 -0.1037 -1.1876 -0.9122
 2277TIP3   OH228321   3.692   5.894  14.125  0.1889  0.5984  0.5668
 2277TIP3    H128322   3.735   5.821  14.170 -1.0913 -0.6273 -0.1225
 2277TIP3    H228323   3.605   5.898  14.164 -0.4351  0.4557 -0.7665
 2278TIP3   OH228324   4.637   5.817   6.789 -0.3848  0.4065 -0.2850
 2278TIP3    H128325   4.708   5.775   6.837 -0.1707  2.1152  0.9750
 2278TIP3    H228326   4.681   5.868   6.721 -0.3283  1.7587  0.7250
 2279TIP3   OH228327   5.968   5.899  12.488  0.3977  0.0415 -0.8507
 2279TIP3    H128328   5.872   5.900  12.488  0.3876 -0.5610 -0.6527
 2279TIP3    H228329   5.991   5.841  12.415  0.6130  0.3091 -0.9944
 2280TIP3   OH228330   1.233   6.552  11.642 -0.1437 -0.2693  0.3088
 2280TIP3    H128331   1.229   6.464  11.604  0.0732 -0.6185  1.0616
 2280TIP3    H228332   1.149   6.563  11.686 -0.0709 -0.2069  0.4331
 2281TIP3   OH228333   5.285   4.243   0.267  0.3440  0.3856  0.7292
 2281TIP3    H128334   5.352   4.191   0.222  1.1702  0.5366  1.7389
 2281TIP3    H228335   5.331   4.279   0.343 -0.0999  2.8620 -0.0998
 2282TIP3   OH228336   6.542   6.387  15.890  0.0654 -0.2291 -0.1307
 2282TIP3    H128337   6.481   6.439  15.838  0.5727 -0.7735 -1.3063
 2282TIP3    H228338   6.624   6.391  15.841  0.2606 -1.6719  0.0502
 2283TIP3   OH228339   0.946   5.156   2.111 -0.4742  0.1639 -0.2438
 2283TIP3    H128340   0.940   5.222   2.180 -0.4805  0.8382 -0.8729
 2283TIP3    H228341   0.879   5.092   2.132 -1.8835  1.4255 -0.7280
 2284TIP3   OH228342   0.649   5.861   5.995  0.2210  0.0072  0.7285
 2284TIP3    H128343   0.736   5.900   6.007 -0.0405  0.9172 -0.2258
 2284TIP3    H228344   0.589   5.935   5.994 -0.4734 -0.5483  0.4766
 2285TIP3   OH228345   3.178   4.901  13.940  0.1319 -0.1227 -0.0641
 2285TIP3    H128346   3.194   4.989  13.974  0.0145 -0.4517  0.8848
 2285TIP3    H228347   3.090   4.904  13.904  0.0485  0.1003  0.1556
 2286TIP3   OH228348   2.047   6.488  12.905  0.1201  0.2899  0.0995
 2286TIP3    H128349   2.107   6.502  12.978  0.2648 -1.7677  0.4309
 2286TIP3    H228350   2.090   6.532  12.831  1.9901 -0.9847  0.3647
 2287TIP3   OH228351   3.958   4.331   5.487  0.2691 -0.4087 -0.0262
 2287TIP3    H128352   3.894   4.365   5.424  0.9309 -0.5845 -0.8158
 2287TIP3    H228353   4.008   4.409   5.515  0.6572 -0.4759 -0.5210
 2288TIP3   OH228354   5.538   5.381   0.399  0.0222  0.3856 -0.0225
 2288TIP3    H128355   5.607   5.434   0.358 -0.7109  1.1143 -0.3411
 2288TIP3    H228356   5.497   5.440   0.462  0.2923 -0.3320  0.8494
 2289TIP3   OH228357   3.356   2.021   5.559  0.5414 -0.1147 -0.0716
 2289TIP3    H128358   3.286   2.082   5.581 -0.4966 -1.7164  1.3184
 2289TIP3    H228359   3.424   2.038   5.625  0.8324  0.4401 -0.5120
 2290TIP3   OH228360   1.601   4.718   2.126  0.5715 -0.3344  0.1624
 2290TIP3    H128361   1.651   4.798   2.143  0.2106  0.3885 -1.8363
 2290TIP3    H228362   1.667   4.650   2.116  0.8514 -0.4856  2.5642
 2291TIP3   OH228363   2.420   6.375  15.892 -0.2400  0.1268  0.5627
 2291TIP3    H128364   2.473   6.379  15.972 -0.3976  0.7349  0.6414
 2291TIP3    H228365   2.478   6.405  15.823 -0.1337 -0.3058  0.4643
 2292TIP3   OH228366   1.970   2.431   2.502 -0.7001 -0.0188  0.4092
 2292TIP3    H128367   1.958   2.494   2.574  0.3535 -1.7849  2.2548
 2292TIP3    H228368   1.926   2.471   2.428 -2.1384  1.7881  2.1070
 2293TIP3   OH228369   1.571   1.204  14.188 -0.8620 -0.0484  0.3275
 2293TIP3    H128370   1.541   1.260  14.117 -0.5540  1.0871  1.0579
 2293TIP3    H228371   1.660   1.234  14.206 -0.4925 -1.1396  0.3885
 2294TIP3   OH228372   1.297   1.247  16.831 -0.0972 -0.3432  0.2314
 2294TIP3    H128373   1.220   1.269  16.883 -0.9484  0.5350 -1.3248
 2294TIP3    H228374   1.294   1.307  16.756  1.4531 -1.0773 -0.4763
 2295TIP3   OH228375   1.600   1.973  12.225  0.3312 -0.1907 -0.0682
 2295TIP3    H128376   1.569   1.908  12.289 -0.1432 -1.3795 -1.4565
 2295TIP3    H228377   1.692   1.986  12.248  0.0663 -0.2650  1.1169
 2296TIP3   OH228378   6.487   2.888  16.170 -0.2679  0.0235  0.4548
 2296TIP3    H128379   6.463   2.830  16.098  3.1846 -0.4519 -0.5055
 2296TIP3    H228380   6.418   2.954  16.171 -2.7235 -2.3550 -0.3864
 2297TIP3   OH228381   5.578   1.623  13.060  0.1616 -0.2996 -0.0964
 2297TIP3    H128382   5.519   1.587  12.994 -1.6623  1.0387  0.7133
 2297TIP3    H228383   5.567   1.566  13.136  0.4934 -0.4938 -0.1946
 2298TIP3   OH228384   0.815   1.201  13.769 -0.2392  0.4809  0.0306
 2298TIP3    H128385   0.743   1.142  13.792  0.1499  0.0509  0.1641
 2298TIP3    H228386   0.859   1.218  13.852  0.1783  0.2517 -0.1406
 2299TIP3   OH228387   5.263   3.717  14.514 -0.1446  0.3308 -0.1253
 2299TIP3    H128388   5.189   3.778  14.521 -1.0228 -0.6499 -0.5931
 2299TIP3    H228389   5.319   3.756  14.447 -0.6925  0.6369 -0.4191
 2300TIP3   OH228390   6.240   0.991  15.788 -0.1418 -0.0765 -0.5790
 2300TIP3    H128391   6.255   0.899  15.810 -0.2045  0.1644  0.5343
 2300TIP3    H228392   6.323   1.034  15.805 -0.3194  0.1987 -0.3986
 2301TIP3   OH228393   1.462   4.863  12.247  0.5140  0.6935  0.6731
 2301TIP3    H128394   1.487   4.911  12.168 -0.5033  0.4049  0.1486
 2301TIP3    H228395   1.480   4.923  12.318  2.2597  0.6419  0.3079
 2302TIP3   OH228396   2.161   4.522   3.954 -0.3293 -0.6008 -0.1495
 2302TIP3    H128397   2.198   4.434   3.945  1.7558 -0.1648  2.5299
 2302TIP3    H228398   2.092   4.512   4.019 -1.6200 -0.5744 -1.4789
 2303TIP3   OH228399   5.842   0.530  13.103 -0.3472  0.1575 -0.4291
 2303TIP3    H128400   5.779   0.466  13.136  0.8087 -1.1367 -0.6644
 2303TIP3    H228401   5.889   0.560  13.181 -0.1973 -0.0420 -0.4435
 2304TIP3   OH228402   5.691   4.324   1.216 -0.0827 -0.0298 -0.3770
 2304TIP3    H128403   5.616   4.338   1.273 -0.7989  0.1533 -1.3243
 2304TIP3    H228404   5.725   4.412   1.198 -0.5570  0.0155 -1.1119
 2305TIP3   OH228405   2.742   2.505  12.348  0.0498 -0.0614 -0.0286
 2305TIP3    H128406   2.792   2.423  12.342  1.7451  0.9846 -1.0932
 2305TIP3    H228407   2.652   2.477  12.361  0.6206 -2.0944 -0.0529
 2306TIP3   OH228408   2.108   5.200   2.957 -0.0243 -0.0530 -0.1964
 2306TIP3    H128409   2.193   5.185   2.916 -0.0583  2.3518 -1.3209
 2306TIP3    H228410   2.045   5.159   2.898  0.2253 -0.0384 -0.4762
 2307TIP3   OH228411   6.741   6.100  16.922  0.5279  0.0730  1.1040
 2307TIP3    H128412   6.678   6.082  16.853  2.3120  1.2461 -0.9446
 2307TIP3    H228413   6.695   6.078  17.003 -2.3629  0.5701 -0.2891
 2308TIP3   OH228414   2.839   0.916   0.909 -0.0018 -0.1903 -0.0115
 2308TIP3    H128415   2.817   0.993   0.961 -1.1176  0.5288 -1.5000
 2308TIP3    H228416   2.762   0.859   0.917 -1.4843  1.1913 -3.1256
 2309TIP3   OH228417   2.131   3.939  17.008  0.1189  0.2782 -0.0303
 2309TIP3    H128418   2.204   3.919  17.066  0.8066 -3.0254 -1.7959
 2309TIP3    H228419   2.145   4.030  16.981  0.6169  1.4219  3.5811
 2310TIP3   OH228420   3.819   1.375  12.903 -0.5428 -0.6469  0.3594
 2310TIP3    H128421   3.770   1.294  12.890  1.9244 -1.9524 -1.6591
 2310TIP3    H228422   3.806   1.424  12.822  0.1433 -0.2595  0.4777
 2311TIP3   OH228423   4.280   5.681  11.898  1.0730 -0.0176 -0.1830
 2311TIP3    H128424   4.261   5.632  11.978 -0.3772 -0.6573 -0.8831
 2311TIP3    H228425   4.215   5.752  11.897  0.6230 -0.4249 -1.1268
 2312TIP3   OH228426   2.385   5.525  12.719 -0.1754  0.2236 -0.7459
 2312TIP3    H128427   2.305   5.488  12.756 -0.6276 -0.2986 -2.1783
 2312TIP3    H228428   2.439   5.449  12.697 -0.2903  0.4570 -1.9281
 2313TIP3   OH228429   6.698   0.648   3.688 -0.4607  0.2327 -0.4617
 2313TIP3    H128430   6.763   0.695   3.636 -0.9218  3.5309  1.6375
 2313TIP3    H228431   6.619   0.650   3.635  0.4614 -1.7299 -2.0248
 2314TIP3   OH228432   0.860   6.214   4.604  0.0068  0.2314 -0.5159
 2314TIP3    H128433   0.838   6.134   4.651  1.0337  0.4388  0.3469
 2314TIP3    H228434   0.775   6.256   4.587 -0.4784 -0.6066 -0.2179
 2315TIP3   OH228435   0.181   5.684   1.495 -0.4859  0.0474  0.0861
 2315TIP3    H128436   0.171   5.750   1.426 -2.5493  0.7107  0.9474
 2315TIP3    H228437   0.136   5.606   1.461 -0.9948  0.1862  0.4355
 2316TIP3   OH228438   6.596   4.005   5.482 -0.0818 -0.2130 -0.0223
 2316TIP3    H128439   6.551   4.058   5.416 -2.1423 -1.0033  0.6390
 2316TIP3    H228440   6.598   3.917   5.445  0.2652 -0.3308  0.2691
 2317TIP3   OH228441   2.148   1.792  10.723  0.0479  0.1296  0.0629
 2317TIP3    H128442   2.098   1.869  10.749  0.4812 -0.3088  2.4469
 2317TIP3    H228443   2.235   1.806  10.762  0.5936 -0.8843 -0.7396
 2318TIP3   OH228444   2.182   2.117  13.413  0.1400 -0.1692  0.0529
 2318TIP3    H128445   2.146   2.205  13.400  0.8123  0.0426 -0.4399
 2318TIP3    H228446   2.218   2.119  13.502 -0.7378 -0.2769  0.4234
 2319TIP3   OH228447   1.130   6.158   4.491  0.0499  0.9462 -0.6224
 2319TIP3    H128448   1.136   6.099   4.416 -0.0372 -1.7745  1.3520
 2319TIP3    H228449   1.036   6.164   4.508  0.1407 -0.4803  0.6500
 2320TIP3   OH228450   0.003   5.271   4.173  0.3560  0.4016 -0.5298
 2320TIP3    H128451  -0.002   5.315   4.258  2.2404  0.6534 -0.5178
 2320TIP3    H228452   0.027   5.340   4.111 -0.3996  0.0982 -1.1772
 2321TIP3   OH228453   4.908   5.449  15.642  0.1743  0.0643 -0.0574
 2321TIP3    H128454   4.961   5.527  15.659 -0.4560  0.1883  1.4837
 2321TIP3    H228455   4.941   5.383  15.702 -0.8640 -0.1078  0.3468
 2322TIP3   OH228456   1.657   0.634   4.466 -0.2985  0.1357  0.2525
 2322TIP3    H128457   1.752   0.645   4.464 -0.4155  1.1215 -0.9524
 2322TIP3    H228458   1.631   0.666   4.553  0.5301 -0.8891  0.8995
 2323TIP3   OH228459   3.364   4.871  13.131 -0.9472 -0.2430  0.0422
 2323TIP3    H128460   3.393   4.956  13.097 -0.7233 -0.0436  0.7250
 2323TIP3    H228461   3.268   4.877  13.130 -0.9907 -0.7032 -1.6989
 2324TIP3   OH228462   1.347   4.955  13.016  0.0639 -0.1719  0.1277
 2324TIP3    H128463   1.404   4.916  13.083  0.8599  0.8501  0.0804
 2324TIP3    H228464   1.326   5.041  13.051 -0.1727  0.0546 -0.5752
 2325TIP3   OH228465   1.455   1.141  13.434  0.1576 -0.1143 -1.1175
 2325TIP3    H128466   1.389   1.072  13.422  0.5120 -0.4758 -1.0207
 2325TIP3    H228467   1.501   1.117  13.514 -1.1984  1.4744  0.2166
 2326TIP3   OH228468   3.415   0.892   1.245  0.4817  0.3714  0.0387
 2326TIP3    H128469   3.376   0.831   1.308 -0.0129  0.1910 -0.4368
 2326TIP3    H228470   3.401   0.979   1.283  2.2631  0.1600  1.3240
 2327TIP3   OH228471   3.083   1.889   1.654 -0.0099 -0.1336 -0.1040
 2327TIP3    H128472   3.093   1.806   1.699 -0.4041  0.8607  1.9589
 2327TIP3    H228473   3.007   1.876   1.597 -0.9269 -0.8235  1.1973
 2328TIP3   OH228474   0.219   5.476   4.684 -0.2866  0.2837  0.3728
 2328TIP3    H128475   0.176   5.522   4.756  0.0536  0.4040  0.4962
 2328TIP3    H228476   0.218   5.384   4.711 -0.5450  0.2735  0.3350
 2329TIP3   OH228477   6.549   3.045  11.731 -1.3188  0.2554 -0.3260
 2329TIP3    H128478   6.558   3.014  11.822 -1.7556  1.2873  0.0848
 2329TIP3    H228479   6.510   2.972  11.684 -1.3532 -0.1934  0.3859
 2330TIP3   OH228480   2.683   5.195  14.650  0.1507 -0.0296 -0.0625
 2330TIP3    H128481   2.590   5.187  14.630  0.5579 -1.8386 -1.5170
 2330TIP3    H228482   2.689   5.183  14.744 -1.0991  0.3022  0.0729
 2331TIP3   OH228483   0.673   5.618  16.569  0.6385 -0.3485 -0.1953
 2331TIP3    H128484   0.694   5.632  16.477 -2.4976 -0.8182 -1.1204
 2331TIP3    H228485   0.659   5.524  16.577  2.1996 -0.5052  1.1373
 2332TIP3   OH228486   5.225   5.839  11.764 -0.4273 -0.4116 -0.3838
 2332TIP3    H128487   5.278   5.918  11.759  0.4487 -0.9543  0.0387
 2332TIP3    H228488   5.173   5.849  11.844 -1.6714  0.5294 -1.2711
 2333TIP3   OH228489   4.973   6.624   5.977  0.1744 -0.4960 -0.4132
 2333TIP3    H128490   4.986   6.659   5.889  0.3876 -2.8948 -1.4236
 2333TIP3    H228491   4.910   6.683   6.018 -0.3519  0.3830 -2.3810
 2334TIP3   OH228492   0.494   5.865   1.431  0.1682 -0.1106  0.1776
 2334TIP3    H128493   0.460   5.814   1.358  0.2475  0.8370 -0.5369
 2334TIP3    H228494   0.424   5.927   1.452  0.7274  0.6179 -0.0806
 2335TIP3   OH228495   6.464   6.062  15.398 -0.2935 -0.0720  0.3641
 2335TIP3    H128496   6.506   5.977  15.410 -0.6105 -0.1098  1.2414
 2335TIP3    H228497   6.485   6.086  15.308  0.7037 -0.5799  0.4498
 2336TIP3   OH228498   3.347   0.559  14.586 -0.5467 -0.1787  0.0757
 2336TIP3    H128499   3.409   0.521  14.524 -1.3796  0.1266 -0.9671
 2336TIP3    H228500   3.340   0.494  14.656 -0.4993 -1.0853 -0.7392
 2337TIP3   OH228501   5.300   0.829   5.590 -0.1742  0.2181 -0.0889
 2337TIP3    H128502   5.277   0.767   5.660  0.5495  0.6134  0.5109
 2337TIP3    H228503   5.236   0.900   5.599 -2.1821 -1.2251 -1.9212
 2338TIP3   OH228504   3.691   0.826  13.083  0.3439 -0.2376  0.3402
 2338TIP3    H128505   3.762   0.777  13.125 -0.7153 -1.6125  0.6268
 2338TIP3    H228506   3.697   0.914  13.121  0.8131 -0.8204  1.6874
 2339TIP3   OH228507   6.054   3.556   6.601  0.5222 -0.0238 -0.3584
 2339TIP3    H128508   5.991   3.516   6.541  0.7954 -0.5376 -0.3042
 2339TIP3    H228509   5.999   3.602   6.665  0.2374  1.5347 -1.6482
 2340TIP3   OH228510   3.085   5.763  12.241 -0.4527 -0.3438 -0.2998
 2340TIP3    H128511   3.131   5.747  12.324  0.8315 -1.3612 -1.1733
 2340TIP3    H228512   3.013   5.822  12.265  2.3908  3.0648  0.8489
 2341TIP3   OH228513   3.228   6.317  15.450 -0.0725  0.7356  0.2346
 2341TIP3    H128514   3.254   6.360  15.369 -0.9710 -0.6002 -0.8140
 2341TIP3    H228515   3.282   6.358  15.518  2.8292 -0.0566 -1.4384
 2342TIP3   OH228516   1.299   6.526  12.775  0.3091  0.3388  0.4894
 2342TIP3    H128517   1.309   6.613  12.736 -0.4309 -0.4647 -1.6757
 2342TIP3    H228518   1.209   6.502  12.756  0.9349 -1.5200 -0.4255
 2343TIP3   OH228519   6.049   1.700  16.287 -0.1359 -0.4482  0.3504
 2343TIP3    H128520   6.064   1.786  16.249 -0.2979 -0.0607  1.1506
 2343TIP3    H228521   6.052   1.714  16.382 -2.3607 -0.8990  0.5576
 2344TIP3   OH228522   6.119   2.365  14.319  0.2043  0.3800 -0.1540
 2344TIP3    H128523   6.186   2.413  14.367 -0.0073  0.9561 -0.4300
 2344TIP3    H228524   6.120   2.277  14.358  0.4980  0.6450  0.4480
 2345TIP3   OH228525   3.867   2.106   1.773 -0.8237 -0.0740  0.0331
 2345TIP3    H128526   3.783   2.102   1.820 -0.9392 -2.4908 -0.2792
 2345TIP3    H228527   3.933   2.101   1.842 -0.9875 -1.8574  0.0970
 2346TIP3   OH228528   3.729   4.132  16.818  0.0314  0.0142 -0.1427
 2346TIP3    H128529   3.787   4.176  16.757 -1.4711  1.0397 -0.8976
 2346TIP3    H228530   3.641   4.161  16.793 -0.7416 -0.6914  1.5785
 2347TIP3   OH228531   3.117   5.666  13.624 -0.4782  0.0044  0.2056
 2347TIP3    H128532   3.135   5.758  13.645 -0.5644 -0.1947  1.1617
 2347TIP3    H228533   3.174   5.616  13.682  0.9365 -0.5560 -1.5705
 2348TIP3   OH228534   1.188   2.203  14.951  0.2224  0.7334  0.1548
 2348TIP3    H128535   1.199   2.298  14.959 -0.2646  1.2101 -3.3323
 2348TIP3    H228536   1.238   2.179  14.873 -0.2454 -1.7991  0.5250
 2349TIP3   OH228537   5.093   1.038  13.736  0.1829  0.2612  0.7007
 2349TIP3    H128538   5.056   1.042  13.648 -1.5501  1.5321  1.4221
 2349TIP3    H228539   5.118   1.128  13.756  1.7214 -0.2160  1.0778
 2350TIP3   OH228540   2.682   5.798   4.932 -0.3217 -1.0203  0.1569
 2350TIP3    H128541   2.733   5.815   4.852  0.4507  0.0630  0.8629
 2350TIP3    H228542   2.621   5.871   4.937 -0.4754 -1.1719  0.4695
 2351TIP3   OH228543   3.225   2.755  12.638 -0.4340 -0.2773  0.1943
 2351TIP3    H128544   3.144   2.728  12.595 -1.2521  0.0642  1.4652
 2351TIP3    H228545   3.196   2.812  12.710  0.8932 -0.6447  1.0478
 2352TIP3   OH228546   2.056   1.863   1.180 -0.7869  0.7667 -0.0927
 2352TIP3    H128547   2.144   1.828   1.193 -0.9839  0.4620  0.4526
 2352TIP3    H228548   2.055   1.944   1.230 -0.9119  0.6179  0.1451
 2353TIP3   OH228549   4.997   2.458  16.311  0.7834 -0.2029  0.2729
 2353TIP3    H128550   4.935   2.494  16.247 -0.0752  2.1431  2.2758
 2353TIP3    H228551   4.942   2.417  16.377  1.5783 -1.1989  0.3312
 2354TIP3   OH228552   1.447   3.532   1.757  0.0856  0.1380  0.3462
 2354TIP3    H128553   1.521   3.510   1.814  1.3297 -0.1971 -1.3328
 2354TIP3    H228554   1.467   3.491   1.673 -1.1989  1.4239 -0.6618
 2355TIP3   OH228555   1.661   2.285   3.275  0.1057  0.3397  0.3789
 2355TIP3    H128556   1.752   2.255   3.269 -0.2357 -0.5628 -0.4816
 2355TIP3    H228557   1.614   2.232   3.211 -1.4012 -0.5977  2.1764
 2356TIP3   OH228558   0.647   0.217   4.591  0.0144  0.1359  0.0551
 2356TIP3    H128559   0.667   0.208   4.685  2.4920  2.8197 -0.0373
 2356TIP3    H228560   0.589   0.293   4.586  1.0778  0.9417 -0.6070
 2357TIP3   OH228561   1.657   0.018  11.339 -0.4238  0.0306 -0.3374
 2357TIP3    H128562   1.750  -0.000  11.323 -0.6121  0.8573 -2.8179
 2357TIP3    H228563   1.628  -0.054  11.395  1.3445 -1.1657 -0.8562
 2358TIP3   OH228564   2.857   2.862   0.399  0.2070  0.0888 -0.3222
 2358TIP3    H128565   2.784   2.837   0.342 -1.5808  0.6758  1.5682
 2358TIP3    H228566   2.908   2.924   0.347 -0.8744 -0.0160 -1.5652
 2359TIP3   OH228567   0.549   0.915  13.299 -0.1159 -0.7657 -0.0717
 2359TIP3    H128568   0.608   0.977  13.341 -0.3286 -0.2339 -0.5408
 2359TIP3    H228569   0.480   0.900  13.364 -0.3467 -0.0913 -0.1531
 2360TIP3   OH228570   2.315   1.774   2.890  0.1293 -0.4496 -0.1126
 2360TIP3    H128571   2.401   1.802   2.861 -0.1733 -0.8870 -1.5548
 2360TIP3    H228572   2.268   1.754   2.808 -0.8771 -1.5240  0.6916
 2361TIP3   OH228573   0.180   2.027   6.422  0.1068 -0.1961  0.0229
 2361TIP3    H128574   0.135   2.029   6.338 -0.2530  2.1111  0.1959
 2361TIP3    H228575   0.183   2.119   6.449  3.2810 -0.4285  0.8962
 2362TIP3   OH228576   0.117   5.005   1.930  0.0651  0.6804  0.1130
 2362TIP3    H128577   0.024   5.013   1.950  0.0403 -1.2776  1.0343
 2362TIP3    H228578   0.128   4.913   1.905  1.7717  0.8351  0.2122
 2363TIP3   OH228579   1.236   2.772   1.176 -0.2982  0.0769  0.7125
 2363TIP3    H128580   1.230   2.867   1.162  1.3474 -0.1954 -2.9579
 2363TIP3    H228581   1.145   2.743   1.180 -0.8766  1.5882 -0.4444
 2364TIP3   OH228582   4.895   0.377   3.653  0.5185 -0.1424  0.0782
 2364TIP3    H128583   4.878   0.327   3.573 -0.1523 -0.8793  0.6645
 2364TIP3    H228584   4.983   0.414   3.640  0.7488 -0.9189 -0.6517
 2365TIP3   OH228585   1.841   3.319  15.448 -0.2211 -0.2103  0.6693
 2365TIP3    H128586   1.763   3.373  15.440 -1.6116 -2.1459  0.2405
 2365TIP3    H228587   1.840   3.290  15.540  0.6312  0.6188  0.9540
 2366TIP3   OH228588   1.076   2.741  16.383 -0.1261  0.7220 -0.2017
 2366TIP3    H128589   1.109   2.792  16.310 -0.6422  1.2537 -0.0685
 2366TIP3    H228590   0.987   2.773  16.397  0.3879  1.5489  1.4730
 2367TIP3   OH228591   2.377   5.512   1.945  0.0069 -0.3163 -0.1481
 2367TIP3    H128592   2.284   5.490   1.948  0.4612 -2.2258  1.6000
 2367TIP3    H228593   2.407   5.477   1.861 -0.8447  0.4726 -0.8122
 2368TIP3   OH228594   6.247   3.363  10.822 -0.2017 -0.3217  0.4934
 2368TIP3    H128595   6.246   3.425  10.750 -0.4415 -1.3190 -0.3939
 2368TIP3    H228596   6.190   3.402  10.889  1.7087  1.6361  1.0807
 2369TIP3   OH228597   5.921   5.353  12.414  0.1826  0.1456  0.4992
 2369TIP3    H128598   5.829   5.377  12.398  0.2085  0.7669  1.2523
 2369TIP3    H228599   5.924   5.328  12.506  0.1075 -3.0913 -0.2443
 2370TIP3   OH228600   3.325   5.940  16.468  0.2220  0.9667  0.5204
 2370TIP3    H128601   3.274   5.862  16.447  1.0746  0.1221  1.4735
 2370TIP3    H228602   3.265   6.013  16.454 -0.1359  0.2776 -1.9339
 2371TIP3   OH228603   3.542   6.666  14.495  0.3810 -0.0323 -0.1960
 2371TIP3    H128604   3.507   6.749  14.461  0.2881 -0.2688 -0.6886
 2371TIP3    H228605   3.468   6.605  14.489  0.1493  0.0964  1.1106
 2372TIP3   OH228606   5.778   4.086  16.084 -0.5215  0.5284 -0.1157
 2372TIP3    H128607   5.832   4.164  16.074 -1.2169  1.1011  0.4726
 2372TIP3    H228608   5.837   4.020  16.121 -0.4583  1.4622  1.5414
 2373TIP3   OH228609   1.727   3.010   1.955  0.6781 -0.2542 -0.0071
 2373TIP3    H128610   1.722   2.942   1.888  0.9410  0.2848 -0.5819
 2373TIP3    H228611   1.697   2.967   2.035  0.5598 -0.9623 -0.4243
 2374TIP3   OH228612   6.348   2.448  16.261  0.3739  0.1896  0.2735
 2374TIP3    H128613   6.301   2.400  16.192  2.6678 -0.9068 -0.6476
 2374TIP3    H228614   6.300   2.428  16.341 -0.5262 -1.1436 -0.5562
 2375TIP3   OH228615   0.168   4.212  16.327  0.0347 -0.7444  0.4451
 2375TIP3    H128616   0.089   4.195  16.276  0.5672 -0.7380 -0.3856
 2375TIP3    H228617   0.205   4.291  16.289  0.7512 -1.0698  0.4561
 2376TIP3   OH228618   4.973   3.468   5.908  0.5874  0.5086 -0.4709
 2376TIP3    H128619   4.952   3.544   5.962  1.6791 -1.2510  2.7377
 2376TIP3    H228620   5.014   3.504   5.830 -0.1807  3.2281  0.2619
 2377TIP3   OH228621   4.017   2.490  13.162  0.5543 -0.2371  0.3695
 2377TIP3    H128622   4.080   2.546  13.117 -0.1243 -1.6282 -2.5865
 2377TIP3    H228623   4.060   2.466  13.244  2.6822  1.0539 -0.2925
 2378TIP3   OH228624   2.077   5.007   1.147  0.0252  0.4273 -0.0158
 2378TIP3    H128625   2.042   4.920   1.165  0.8113  0.1850  0.3835
 2378TIP3    H228626   2.041   5.063   1.215 -2.0761  0.8670 -1.3938
 2379TIP3   OH228627   1.990   0.372  16.816 -0.6004 -0.2763 -0.2042
 2379TIP3    H128628   1.894   0.369  16.820 -0.5962 -1.6929 -0.4275
 2379TIP3    H228629   2.018   0.310  16.884  0.1241 -0.5516 -0.7435
 2380TIP3   OH228630   5.548   2.391  15.307  0.1218 -0.0741  0.4627
 2380TIP3    H128631   5.456   2.367  15.302  0.2690 -0.4621 -0.7738
 2380TIP3    H228632   5.592   2.315  15.343  0.3083 -0.9897 -1.5508
 2381TIP3   OH228633   0.807   1.484  15.920 -0.2099 -0.3106  0.5421
 2381TIP3    H128634   0.758   1.508  15.842  1.8782  1.0783 -0.4407
 2381TIP3    H228635   0.799   1.388  15.925  0.1096 -0.5129 -1.7463
 2382TIP3   OH228636   3.883   5.459  15.449 -0.0556  0.1218  0.1587
 2382TIP3    H128637   3.828   5.381  15.448 -0.7534  0.6029 -1.2243
 2382TIP3    H228638   3.873   5.497  15.361  2.3051  0.3482 -0.0636
 2383TIP3   OH228639   0.412   6.114  11.188  0.1786  0.0343 -0.7989
 2383TIP3    H128640   0.412   6.069  11.103 -3.9928  0.0382 -1.0073
 2383TIP3    H228641   0.393   6.205  11.167  2.0053  0.6685  0.0606
 2384TIP3   OH228642   0.066   4.618  16.050 -0.0357 -0.1339 -0.5602
 2384TIP3    H128643  -0.004   4.560  16.019 -0.2540  0.8100 -1.9311
 2384TIP3    H228644   0.046   4.631  16.143  0.1542 -2.3926 -0.1292
 2385TIP3   OH228645   2.295   2.899  14.607 -0.3517  0.9962  0.4705
 2385TIP3    H128646   2.227   2.856  14.659 -3.6443  2.9669 -1.8154
 2385TIP3    H228647   2.305   2.985  14.648 -1.7922  1.9475 -1.0349
 2386TIP3   OH228648   6.469   5.889   1.367 -0.3817  0.0133 -0.9064
 2386TIP3    H128649   6.419   5.808   1.375  0.7156 -0.4977  2.1217
 2386TIP3    H228650   6.425   5.950   1.426  1.6112 -0.0082  0.7105
 2387TIP3   OH228651   0.977   5.985   2.989 -0.2003  0.3992 -0.1237
 2387TIP3    H128652   1.041   6.047   3.024 -0.8207  1.2474 -0.4539
 2387TIP3    H228653   0.984   5.994   2.894 -2.1633  2.0044 -0.1917
 2388TIP3   OH228654   0.512   6.067   0.243 -0.1865 -0.5581  0.3045
 2388TIP3    H128655   0.502   6.068   0.148 -0.1183 -2.9514  0.2340
 2388TIP3    H228656   0.606   6.069   0.258 -0.2001  0.7044  0.3982
 2389TIP3   OH228657   1.094   3.714   0.991  0.5276  0.2504 -0.3545
 2389TIP3    H128658   1.171   3.756   0.952  1.1755 -0.0094  0.6115
 2389TIP3    H228659   1.129   3.662   1.063 -0.6486  0.9199  0.7455
 2390TIP3   OH228660   5.313   5.568  12.583 -0.8614  0.4163  0.2011
 2390TIP3    H128661   5.402   5.532  12.587 -0.0487  2.2145 -0.7199
 2390TIP3    H228662   5.266   5.508  12.524  0.2263  0.3899 -0.6765
 2391TIP3   OH228663   4.459   0.569   1.814  0.5526 -0.1581 -0.4514
 2391TIP3    H128664   4.383   0.535   1.767 -0.0676 -0.2328  0.5804
 2391TIP3    H228665   4.527   0.578   1.747 -0.6008  0.6600 -1.5336
 2392TIP3   OH228666   5.143   0.141   1.681 -0.6166 -0.9073  0.3292
 2392TIP3    H128667   5.205   0.071   1.662 -0.1146 -0.7865  1.4729
 2392TIP3    H228668   5.132   0.186   1.597 -0.0052 -1.6084 -0.1367
 2393TIP3   OH228669   1.768   3.588  15.638 -0.2825 -0.0357 -0.3447
 2393TIP3    H128670   1.788   3.622  15.551  0.6110  1.4928  0.4102
 2393TIP3    H228671   1.716   3.509  15.622 -0.2256  0.2688 -2.2455
 2394TIP3   OH228672   1.764   4.663  13.834  0.6391  0.4581  0.1833
 2394TIP3    H128673   1.859   4.670  13.829  0.7489 -1.4520 -1.3680
 2394TIP3    H228674   1.742   4.584  13.785 -1.7841  0.9722  0.2790
 2395TIP3   OH228675   1.227   0.529   4.170  0.5169 -0.6360 -0.0530
 2395TIP3    H128676   1.307   0.481   4.147  0.4937 -0.6287 -0.1487
 2395TIP3    H228677   1.192   0.558   4.086  1.2160  0.6402  0.0674
 2396TIP3   OH228678   2.687   5.431  13.912  0.0904  0.1902 -0.7722
 2396TIP3    H128679   2.757   5.425  13.847  0.3588 -2.8660 -0.3741
 2396TIP3    H228680   2.611   5.462  13.863  0.7545 -0.2372 -2.1153
 2397TIP3   OH228681   2.853   4.594   1.977  0.1703 -0.2118 -0.2250
 2397TIP3    H128682   2.809   4.558   2.054  0.6598 -3.3243 -1.2392
 2397TIP3    H228683   2.791   4.658   1.942 -0.9578 -0.2444  1.5591
 2398TIP3   OH228684   1.517   6.396   4.822 -0.2631  0.4554  0.2543
 2398TIP3    H128685   1.481   6.312   4.851  0.4866  0.5301  1.4859
 2398TIP3    H228686   1.460   6.461   4.862  0.2561  0.5490  0.8517
 2399TIP3   OH228687   0.989   4.463  13.776 -0.2757 -0.0543  0.0964
 2399TIP3    H128688   1.001   4.368  13.765 -0.3405 -0.0327 -0.1544
 2399TIP3    H228689   1.078   4.497  13.786 -0.2156 -0.0728 -0.3547
 2400TIP3   OH228690   4.280   4.852  13.577  0.1967 -0.3535 -0.1934
 2400TIP3    H128691   4.208   4.812  13.529 -0.3329  0.5060 -0.1213
 2400TIP3    H228692   4.249   4.939  13.602  1.4256  0.2301 -0.5758
 2401TIP3   OH228693   0.233   2.489   6.581 -0.1452 -0.1135  0.5603
 2401TIP3    H128694   0.210   2.442   6.661  0.0504 -0.2914  0.5135
 2401TIP3    H228695   0.325   2.466   6.565  0.7159  2.1471  1.8347
 2402TIP3   OH228696   0.084   1.670  12.626  0.5622 -0.1533  0.3442
 2402TIP3    H128697   0.010   1.730  12.621  1.2917  0.8605  1.2040
 2402TIP3    H228698   0.065   1.614  12.701 -0.9117 -2.1838 -1.4113
 2403TIP3   OH228699   3.901   1.796   1.198 -0.3637  0.0002  0.2065
 2403TIP3    H128700   3.941   1.883   1.204 -0.9811  0.4984 -2.0827
 2403TIP3    H228701   3.848   1.799   1.119 -2.7791 -1.5372  1.6351
 2404TIP3   OH228702   3.762   3.118  13.288 -0.4387 -0.3550 -0.5592
 2404TIP3    H128703   3.692   3.154  13.233 -1.4951  0.3750  1.2068
 2404TIP3    H228704   3.777   3.031  13.251 -0.7501  0.2865 -2.3140
 2405TIP3   OH228705   6.497   5.255  11.765  0.3896 -0.0115  0.0060
 2405TIP3    H128706   6.547   5.267  11.683 -0.0625  0.5781 -0.1870
 2405TIP3    H228707   6.554   5.292  11.833  0.1957  0.7236 -0.2229
 2406TIP3   OH228708   0.993   2.555  12.011 -0.4227 -0.0049 -0.4854
 2406TIP3    H128709   0.972   2.644  11.984  1.6039  0.5388 -0.4774
 2406TIP3    H228710   1.009   2.508  11.929 -2.3535 -0.6599 -0.5429
 2407TIP3   OH228711   3.391   6.785   0.960  0.0164 -0.8841 -0.0471
 2407TIP3    H128712   3.471   6.756   0.915  0.8354  2.4516 -1.0305
 2407TIP3    H228713   3.421   6.813   1.046 -0.5861 -1.9214  0.5205
 2408TIP3   OH228714   4.063   5.298   3.436 -0.6382 -0.2458  0.4345
 2408TIP3    H128715   4.043   5.249   3.515 -0.2769 -0.2612  0.5196
 2408TIP3    H228716   4.110   5.376   3.468 -0.4398 -0.2817  0.2317
 2409TIP3   OH228717   1.022   5.718  12.433  0.2605  0.7519 -0.6348
 2409TIP3    H128718   0.992   5.762  12.512  0.7285 -1.5325  0.9030
 2409TIP3    H228719   0.941   5.696  12.386 -0.2362 -0.4493  0.7164
 2410TIP3   OH228720   2.048   4.183   3.845 -0.1351 -0.1890 -0.1443
 2410TIP3    H128721   1.957   4.213   3.836  0.2714  1.4432  0.7116
 2410TIP3    H228722   2.052   4.145   3.933  0.3325  1.0893  0.4073
 2411TIP3   OH228723   5.742   4.517   4.438 -0.2139 -0.4620 -0.5530
 2411TIP3    H128724   5.649   4.541   4.446 -0.7372 -2.1236 -1.1347
 2411TIP3    H228725   5.776   4.527   4.527 -1.2505 -0.9035 -0.0823
 2412TIP3   OH228726   6.254   4.252  14.441 -0.5750  0.4946  0.6495
 2412TIP3    H128727   6.172   4.227  14.485 -0.2723 -1.4730  0.1815
 2412TIP3    H228728   6.246   4.216  14.353  0.9414 -0.0252  0.6984
 2413TIP3   OH228729   5.087   5.287  12.671  0.9877  0.7780 -0.6106
 2413TIP3    H128730   5.113   5.319  12.758 -2.1184  0.4528  0.5947
 2413TIP3    H228731   5.060   5.366  12.624 -0.1512  0.6850 -0.1466
 2414TIP3   OH228732   4.045   1.759  17.141  0.1839 -0.1926 -0.8774
 2414TIP3    H128733   3.979   1.691  17.154  1.1230 -0.5561  3.4521
 2414TIP3    H228734   4.111   1.718  17.086 -1.0093 -1.4332 -1.4383
 2415TIP3   OH228735   2.778   2.532   1.916  0.6779  0.8050  0.1291
 2415TIP3    H128736   2.813   2.443   1.922 -0.4621  0.3160 -0.0318
 2415TIP3    H228737   2.838   2.577   1.856  0.7118 -0.1627 -0.6043
 2416TIP3   OH228738   4.901   2.011   2.800  0.0079 -0.0611 -0.1034
 2416TIP3    H128739   4.896   1.965   2.883  0.9088  1.9796  1.1694
 2416TIP3    H228740   4.970   2.076   2.812 -0.8417  1.2875 -1.9358
 2417TIP3   OH228741   4.180   1.959  11.995  0.6035 -0.0811 -0.1521
 2417TIP3    H128742   4.196   1.868  11.974 -2.2350 -0.5455 -0.7369
 2417TIP3    H228743   4.204   2.007  11.916  0.0564 -0.6068 -0.6493
 2418TIP3   OH228744   0.591   2.521   2.889  0.5771  0.0306 -0.1100
 2418TIP3    H128745   0.603   2.581   2.962  2.3370  0.5455 -0.7739
 2418TIP3    H228746   0.658   2.454   2.901 -0.7581 -1.3204  0.1108
 2419TIP3   OH228747   4.566   6.527   5.409  0.0162 -0.0139  0.6242
 2419TIP3    H128748   4.509   6.541   5.333  1.2026  2.3980  0.0667
 2419TIP3    H228749   4.526   6.579   5.479  0.0124 -0.6148  1.0783
 2420TIP3   OH228750   5.063   2.829   0.584 -0.1097 -0.6973 -0.0688
 2420TIP3    H128751   5.153   2.861   0.579  0.8260 -3.2126 -1.2410
 2420TIP3    H228752   5.016   2.875   0.515 -0.4020  2.2314  1.8902
 2421TIP3   OH228753   2.009   2.062  15.252  0.4224 -0.6838 -0.3229
 2421TIP3    H128754   2.052   2.040  15.169  2.2139 -0.0201  0.3676
 2421TIP3    H228755   2.044   1.999  15.314  0.7175  0.1121  0.3403
 2422TIP3   OH228756   1.374   3.874  15.967  0.7717  0.0350  0.3302
 2422TIP3    H128757   1.462   3.845  15.991  0.4935 -2.4730 -1.2943
 2422TIP3    H228758   1.369   3.862  15.873 -0.7166  2.0021  0.0910
 2423TIP3   OH228759   3.526   3.395   2.954 -0.1270 -0.1333  0.2211
 2423TIP3    H128760   3.611   3.390   2.909 -0.1655  2.4943 -0.3181
 2423TIP3    H228761   3.464   3.420   2.886 -0.6185  1.6081  1.2305
 2424TIP3   OH228762   2.140   3.233  12.111  0.1725 -0.4471 -0.0890
 2424TIP3    H128763   2.105   3.312  12.151  1.9713  0.3797 -0.0415
 2424TIP3    H228764   2.138   3.168  12.181 -1.4656 -0.5250 -0.1754
 2425TIP3   OH228765   0.330   3.434  12.935  0.1851  0.1943 -0.1357
 2425TIP3    H128766   0.370   3.479  13.010  0.7162  2.3170 -1.6249
 2425TIP3    H228767   0.405   3.410  12.880 -0.3096  0.2655 -0.8451
 2426TIP3   OH228768   0.245   5.486  16.145 -0.3913  0.3317  0.3217
 2426TIP3    H128769   0.236   5.461  16.053  0.2147  0.3086  0.2646
 2426TIP3    H228770   0.322   5.543  16.146 -1.1549  1.3897  0.6139
 2427TIP3   OH228771   3.788   3.272   2.903  0.4096  0.2879  0.2952
 2427TIP3    H128772   3.831   3.297   2.822  2.0664  0.2116  1.1213
 2427TIP3    H228773   3.817   3.182   2.920  0.3210  0.4061  1.1282
 2428TIP3   OH228774   0.986   6.396  13.910  0.7773  0.0250  0.0086
 2428TIP3    H128775   0.934   6.371  13.834  1.1754  0.4626 -0.4216
 2428TIP3    H228776   1.032   6.316  13.935  0.2598 -0.2468  0.1020
 2429TIP3   OH228777   1.803   2.981  12.975  0.0218 -0.0495 -0.2571
 2429TIP3    H128778   1.794   3.071  13.007 -0.8570 -1.0026  2.4665
 2429TIP3    H228779   1.714   2.953  12.956  0.1393 -0.7705  0.2356
 2430TIP3   OH228780   3.841   6.377   3.647 -0.0033  0.4645  0.0551
 2430TIP3    H128781   3.819   6.331   3.566 -0.1681  0.2656  0.2136
 2430TIP3    H228782   3.916   6.432   3.623  0.1927  0.1221 -0.1340
 2431TIP3   OH228783   1.127   5.045  17.050  0.1312 -0.2936  1.0209
 2431TIP3    H128784   1.097   5.063  17.139 -0.6862  1.1676  0.4948
 2431TIP3    H228785   1.148   5.131  17.015 -0.8267 -0.6843 -0.6241
 2432TIP3   OH228786   2.546   2.483   1.246  0.0047 -0.5651  0.1961
 2432TIP3    H128787   2.547   2.410   1.184 -2.1636 -1.0256  0.6218
 2432TIP3    H228788   2.574   2.444   1.329  0.6991 -0.4644  0.0134
 2433TIP3   OH228789   3.843   1.600   0.242 -0.4021  0.0942 -0.2074
 2433TIP3    H128790   3.925   1.580   0.287 -1.2438 -3.5173 -0.0012
 2433TIP3    H228791   3.778   1.543   0.283 -2.4760  0.9128 -2.1211
 2434TIP3   OH228792   5.057   3.347   0.578 -0.0105  0.1463  0.1619
 2434TIP3    H128793   5.033   3.285   0.647 -0.9654  0.5313  0.1875
 2434TIP3    H228794   5.132   3.306   0.535 -0.3553 -0.8282  0.4464
 2435TIP3   OH228795   6.282   6.704   1.624  0.1697 -0.4408  0.2031
 2435TIP3    H128796   6.200   6.707   1.576 -0.8228  0.2125  1.8852
 2435TIP3    H228797   6.287   6.787   1.671  1.8451 -0.4231  0.0819
 2436TIP3   OH228798   3.640   4.264   4.465  0.3538  0.7022  0.6573
 2436TIP3    H128799   3.715   4.206   4.454  1.9283  2.0596  3.2729
 2436TIP3    H228800   3.670   4.349   4.431 -0.4521  0.9813  0.6116
 2437TIP3   OH228801   5.769   4.982   3.286 -0.2902 -0.3040 -0.4829
 2437TIP3    H128802   5.850   5.024   3.257  0.1932  0.2393  1.5438
 2437TIP3    H228803   5.798   4.908   3.340 -1.1232  0.0574  0.4927
 2438TIP3   OH228804   2.052   6.354  11.520  0.0758 -0.0389  0.4699
 2438TIP3    H128805   1.987   6.307  11.468 -0.6222 -0.2766  1.5357
 2438TIP3    H228806   2.119   6.289  11.540  0.7765  0.2610 -0.8158
 2439TIP3   OH228807   4.222   4.562   5.385 -0.5023  0.3348 -0.0663
 2439TIP3    H128808   4.137   4.594   5.354 -0.7238 -0.3019 -0.1364
 2439TIP3    H228809   4.278   4.564   5.307 -0.9867 -1.0190 -0.4810
 2440TIP3   OH228810   4.423   4.421   5.860 -0.0371 -0.2061  0.5694
 2440TIP3    H128811   4.420   4.488   5.928 -3.2725 -0.0122  0.3602
 2440TIP3    H228812   4.431   4.470   5.778  4.6673 -0.4558  0.6088
 2441TIP3   OH228813   6.121   2.315   2.843 -0.2587  0.0556  0.6404
 2441TIP3    H128814   6.128   2.383   2.777  0.8360  0.7506  1.4493
 2441TIP3    H228815   6.056   2.254   2.807  0.2054  0.4771 -0.9991
 2442TIP3   OH228816   5.110   4.695   3.224 -0.1210 -0.2335 -0.4234
 2442TIP3    H128817   5.089   4.753   3.297  0.8318 -0.0198 -0.3012
 2442TIP3    H228818   5.202   4.713   3.205  0.3550 -2.0765 -0.0498
 2443TIP3   OH228819   4.867   5.253  11.362  0.0591 -0.1923 -0.0541
 2443TIP3    H128820   4.801   5.186  11.349 -1.2357  1.0821 -0.3793
 2443TIP3    H228821   4.828   5.333  11.325  1.1441  0.9446  1.1328
 2444TIP3   OH228822   0.248   2.701   1.353 -0.5426 -0.1398  0.6257
 2444TIP3    H128823   0.169   2.719   1.302  0.4307  1.6333 -0.3408
 2444TIP3    H228824   0.320   2.718   1.293  0.6315  0.8421  2.2325
 2445TIP3   OH228825   2.590   4.319  14.857 -0.2933 -0.2766 -0.6983
 2445TIP3    H128826   2.592   4.233  14.815  1.4868 -1.2074  1.0854
 2445TIP3    H228827   2.631   4.378  14.795 -1.0517 -0.8051 -1.7317
 2446TIP3   OH228828   1.608   0.698  13.176  0.4095  0.0914 -0.0313
 2446TIP3    H128829   1.665   0.724  13.104  1.2486 -0.5610  0.3837
 2446TIP3    H228830   1.607   0.603  13.173 -1.9013  0.0836 -0.9728
 2447TIP3   OH228831   2.730   5.960   5.207  0.0145 -0.4727  0.1474
 2447TIP3    H128832   2.673   5.902   5.257 -0.6700 -1.7146 -1.9197
 2447TIP3    H228833   2.673   5.997   5.140  1.3467 -0.7896 -1.2260
 2448TIP3   OH228834   0.238   0.341   4.353 -0.3613 -0.2747 -0.6810
 2448TIP3    H128835   0.290   0.340   4.273 -1.1178 -0.4453 -1.1681
 2448TIP3    H228836   0.162   0.287   4.334  1.3837 -3.9171  1.4479
 2449TIP3   OH228837   0.239   6.611   2.853 -0.6924  0.2092 -0.3519
 2449TIP3    H128838   0.230   6.607   2.949  0.2838 -0.0469 -0.2530
 2449TIP3    H228839   0.182   6.541   2.821  0.1477 -0.7577  0.1590
 2450TIP3   OH228840   6.223   4.412  16.578  0.6703  0.2315 -0.5450
 2450TIP3    H128841   6.215   4.392  16.485  1.5535 -0.0344 -0.5776
 2450TIP3    H228842   6.266   4.498  16.580  2.2904 -0.5279 -0.4119
 2451TIP3   OH228843   0.792   5.021   1.542  0.2019 -0.5961 -1.2970
 2451TIP3    H128844   0.781   4.973   1.624  0.3590 -1.6069 -1.8483
 2451TIP3    H228845   0.743   5.102   1.555 -1.3742 -1.5708 -0.8761
 2452TIP3   OH228846   1.614   6.641   0.542 -0.3628 -0.4800  0.1310
 2452TIP3    H128847   1.595   6.654   0.449  0.2335  0.6838  0.1605
 2452TIP3    H228848   1.528   6.628   0.582 -0.6898 -0.1641 -0.4549
 2453TIP3   OH228849   4.582   2.861  16.372  0.4808 -0.1416  0.0859
 2453TIP3    H128850   4.630   2.861  16.290 -0.1943 -1.0405 -0.3131
 2453TIP3    H228851   4.631   2.921  16.428  0.7405  0.7692 -1.0842
 2454TIP3   OH228852   6.404   2.951   5.195  0.1399 -0.8250 -0.6375
 2454TIP3    H128853   6.385   2.876   5.138  1.0958 -2.9252  1.6042
 2454TIP3    H228854   6.472   3.000   5.148 -0.2365 -1.5403 -2.0068
 2455TIP3   OH228855   2.449   1.763  16.512 -0.8195 -0.2407 -0.2492
 2455TIP3    H128856   2.423   1.702  16.442 -1.0733  0.4519 -0.7641
 2455TIP3    H228857   2.535   1.795  16.484 -1.7929  1.6066 -1.3260
 2456TIP3   OH228858   5.561   3.160   1.724  0.2644 -0.0135 -0.4616
 2456TIP3    H128859   5.588   3.196   1.640 -1.3686  3.4090  0.3075
 2456TIP3    H228860   5.638   3.170   1.780  0.0014  1.9876 -0.4063
 2457TIP3   OH228861   2.680   1.795  14.347 -0.2321  0.2259  0.0852
 2457TIP3    H128862   2.708   1.804  14.438  2.0958  0.9551 -0.6362
 2457TIP3    H228863   2.752   1.748  14.304 -2.3777 -2.4441 -0.9251
 2458TIP3   OH228864   0.677   5.744   5.079  0.1402 -0.1281 -0.5262
 2458TIP3    H128865   0.599   5.745   5.023  1.2765 -0.3787 -2.1855
 2458TIP3    H228866   0.706   5.836   5.080 -0.0160 -0.0793 -0.1133
 2459TIP3   OH228867   3.792   0.446   1.820  0.1675 -0.2481 -0.1149
 2459TIP3    H128868   3.864   0.506   1.839  0.7384 -0.7820 -0.5381
 2459TIP3    H228869   3.733   0.496   1.764 -0.3236  0.5344  1.0675
 2460TIP3   OH228870   2.857   6.406  15.641 -0.1525 -1.0766  0.6023
 2460TIP3    H128871   2.811   6.420  15.559  0.4629 -0.5408  0.3372
 2460TIP3    H228872   2.927   6.472  15.641 -1.1248  0.0169  2.3089
 2461TIP3   OH228873   1.911   6.330  13.418 -0.9161  0.0046  0.6803
 2461TIP3    H128874   1.821   6.333  13.385 -1.1519 -1.8713  1.0502
 2461TIP3    H228875   1.965   6.354  13.342 -1.6416 -0.7371 -0.0986
 2462TIP3   OH228876   1.297   4.006  14.421  0.1001 -0.1711 -0.1874
 2462TIP3    H128877   1.204   4.026  14.412 -0.0780 -1.1328 -0.6200
 2462TIP3    H228878   1.306   3.917  14.387  1.0440 -0.3954  0.5963
 2463TIP3   OH228879   2.342   0.271  13.630  0.2757  0.0855  0.1606
 2463TIP3    H128880   2.350   0.311  13.716  0.6782  0.0963  0.1169
 2463TIP3    H228881   2.396   0.325  13.572  0.9426 -0.5935  0.1294
 2464TIP3   OH228882   1.342   1.539   5.836 -0.5482  0.2914 -0.2445
 2464TIP3    H128883   1.278   1.528   5.907  0.3797 -2.0017  0.3337
 2464TIP3    H228884   1.331   1.460   5.783  2.4063 -0.7170  0.4572
 2465TIP3   OH228885   5.414   6.387  12.965 -0.3431 -0.0181  0.3316
 2465TIP3    H128886   5.383   6.474  12.988  1.1121  0.0260  2.4098
 2465TIP3    H228887   5.498   6.401  12.923 -0.7769 -0.3830 -0.7011
 2466TIP3   OH228888   2.401   5.838  15.300  0.2406 -0.2266 -0.2598
 2466TIP3    H128889   2.383   5.932  15.288 -1.3510 -0.6335 -1.3053
 2466TIP3    H228890   2.336   5.794  15.246  1.0802 -1.9550  0.0773
 2467TIP3   OH228891   1.475   5.053  11.513  0.0676 -0.0103 -0.1209
 2467TIP3    H128892   1.438   5.004  11.440 -1.0061 -0.5640  0.7684
 2467TIP3    H228893   1.559   5.085  11.480 -0.5522  0.0886 -1.7268
 2468TIP3   OH228894   5.504   1.380   3.317  0.4003  0.5589 -0.1197
 2468TIP3    H128895   5.424   1.359   3.365  1.2288  0.1524  1.1093
 2468TIP3    H228896   5.481   1.366   3.225 -0.5464 -0.8744  0.3093
 2469TIP3   OH228897   4.837   1.879  14.106 -0.1961  0.3904 -0.2060
 2469TIP3    H128898   4.871   1.889  14.017 -0.9285 -0.6650 -0.6235
 2469TIP3    H228899   4.760   1.824  14.097  0.3864 -0.7566  1.2157
 2470TIP3   OH228900   1.755   3.925  16.699 -0.4123  0.3698 -0.0176
 2470TIP3    H128901   1.752   3.833  16.674  0.7501  0.1880  0.4077
 2470TIP3    H228902   1.720   3.927  16.788 -0.3742  0.3271 -0.0012
 2471TIP3   OH228903   6.552   4.721   3.825  0.3049 -0.1426 -0.2106
 2471TIP3    H128904   6.645   4.741   3.831  0.2672 -0.1738  0.5272
 2471TIP3    H228905   6.514   4.796   3.778  0.6284  0.0859 -0.1054
 2472TIP3   OH228906   2.553   4.621   5.072  0.6178 -0.5009  0.3838
 2472TIP3    H128907   2.637   4.587   5.101 -0.3255 -0.7226  3.1434
 2472TIP3    H228908   2.494   4.546   5.072  0.2854 -0.2849 -1.1751
 2473TIP3   OH228909   0.078   2.882   0.771  0.2316  0.0841 -0.6437
 2473TIP3    H128910  -0.005   2.872   0.724 -0.1114  0.8898 -0.2231
 2473TIP3    H228911   0.089   2.800   0.820 -0.5690  0.1739 -0.3101
 2474TIP3   OH228912   0.522   2.812  12.775  0.0084 -0.5430 -0.5556
 2474TIP3    H128913   0.471   2.732  12.766 -3.3516  1.3472 -0.1510
 2474TIP3    H228914   0.514   2.855  12.689 -1.8724  1.2134  0.4187
 2475TIP3   OH228915   0.602   3.645  16.817  0.4355 -0.2081  0.1783
 2475TIP3    H128916   0.637   3.650  16.907  1.1035  3.1882 -0.1214
 2475TIP3    H228917   0.507   3.646  16.828  0.3969  3.7726  0.9912
 2476TIP3   OH228918   0.283   4.269  11.507 -0.5491 -0.0004 -0.2757
 2476TIP3    H128919   0.299   4.355  11.469  1.3850  1.0789  2.6259
 2476TIP3    H228920   0.212   4.284  11.570 -1.0598 -0.8598 -0.6178
 2477TIP3   OH228921   3.964   6.382  16.331 -0.4211 -0.5013 -0.0249
 2477TIP3    H128922   3.880   6.355  16.369 -1.3143  0.2013 -1.4168
 2477TIP3    H228923   3.953   6.372  16.237  1.3802 -1.2016 -0.2110
 2478TIP3   OH228924   1.574   1.805   2.866  0.2480 -0.1803  0.4090
 2478TIP3    H128925   1.640   1.743   2.896 -0.6439 -0.2734  2.3118
 2478TIP3    H228926   1.555   1.860   2.942 -0.9857  0.6388 -0.4382
 2479TIP3   OH228927   1.927   5.925  16.887 -0.4119 -0.4640  0.7974
 2479TIP3    H128928   2.007   5.964  16.852 -0.5686 -1.0655 -0.2685
 2479TIP3    H228929   1.928   5.948  16.980  0.7068  0.0164  0.6827
 2480TIP3   OH228930   1.086   5.059  15.405 -0.3869 -0.4164  0.1542
 2480TIP3    H128931   1.050   5.029  15.488  0.5776 -0.3241  0.6186
 2480TIP3    H228932   1.137   5.136  15.428 -1.3972  0.5761 -0.7644
 2481TIP3   OH228933   6.477   1.958  12.822  0.2385  0.4874 -0.2928
 2481TIP3    H128934   6.506   2.002  12.903  1.1616  0.8946 -0.8316
 2481TIP3    H228935   6.503   1.867  12.834  3.5485  1.1287 -1.4916
 2482TIP3   OH228936   0.112   2.948  14.586  0.5225  0.6766  1.0970
 2482TIP3    H128937   0.038   2.927  14.643 -0.5397  2.8366  0.6320
 2482TIP3    H228938   0.093   2.904  14.504 -0.2873  1.2108  0.9816
 2483TIP3   OH228939   1.854   4.393   3.177 -0.1617  0.1454  0.5642
 2483TIP3    H128940   1.945   4.374   3.199  0.7935  2.8476 -0.6175
 2483TIP3    H228941   1.816   4.425   3.259  0.5035  0.7768  0.6334
 2484TIP3   OH228942   4.269   0.486   2.220  0.2302 -0.1301  0.1037
 2484TIP3    H128943   4.323   0.408   2.231  2.5623  1.1828 -1.1598
 2484TIP3    H228944   4.276   0.508   2.127 -0.3298  1.5778  0.4197
 2485TIP3   OH228945   6.812   4.792   2.939 -0.6805 -0.5530 -0.4831
 2485TIP3    H128946   6.719   4.772   2.929 -0.7243 -0.4176 -0.3395
 2485TIP3    H228947   6.846   4.721   2.995 -0.9260  0.0025  0.3901
 2486TIP3   OH228948   0.483   1.823   2.040 -0.3090  0.0869  0.3237
 2486TIP3    H128949   0.560   1.857   1.994 -0.6713 -0.2629 -0.5828
 2486TIP3    H228950   0.503   1.833   2.133  1.2434 -0.8795  0.1282
 2487TIP3   OH228951   6.524   4.737  16.673 -0.1061 -0.2706  0.3964
 2487TIP3    H128952   6.545   4.763  16.583 -1.8703  0.8916  0.2512
 2487TIP3    H228953   6.517   4.642  16.669  0.1105 -0.2607 -0.6406
 2488TIP3   OH228954   5.979   5.500   5.199 -0.4054  0.2594 -0.3241
 2488TIP3    H128955   5.946   5.424   5.246 -0.8192  0.4157 -0.3527
 2488TIP3    H228956   5.988   5.568   5.266 -0.4762  0.3220 -0.3778
 2489TIP3   OH228957   4.675   2.183   4.178 -0.0294 -0.5092 -0.2388
 2489TIP3    H128958   4.654   2.192   4.271  1.5899 -1.4670  0.2648
 2489TIP3    H228959   4.756   2.132   4.177 -0.0156 -0.5139 -2.1866
 2490TIP3   OH228960   4.461   4.766   0.990 -0.0484  0.3566  0.1119
 2490TIP3    H128961   4.468   4.673   0.966 -0.5323  0.5155 -0.6759
 2490TIP3    H228962   4.509   4.773   1.072 -1.3010 -0.9066  1.0068
 2491TIP3   OH228963   5.932   1.863  11.620  0.0286 -0.0791  0.0883
 2491TIP3    H128964   5.942   1.890  11.712  2.0596 -0.9310  0.1829
 2491TIP3    H228965   6.022   1.860  11.587 -0.7125  1.3499 -2.3105
 2492TIP3   OH228966   1.508   2.523   2.695  0.1818 -0.3489 -0.1221
 2492TIP3    H128967   1.555   2.507   2.613  2.4048  0.3965  0.9364
 2492TIP3    H228968   1.523   2.445   2.748 -0.0154 -0.2092  0.1416
 2493TIP3   OH228969   2.310   1.051  15.337  0.0251 -0.1145  0.1095
 2493TIP3    H128970   2.284   1.003  15.415  0.8870 -1.7018 -0.5425
 2493TIP3    H228971   2.368   0.991  15.290  0.7817  1.4018 -0.9711
 2494TIP3   OH228972   5.353   2.729  11.996  0.3777  0.1780 -0.1015
 2494TIP3    H128973   5.413   2.772  12.056 -1.1539  0.5100  1.2869
 2494TIP3    H228974   5.326   2.797  11.935 -0.7110  0.7969  1.0225
 2495TIP3   OH228975   5.068   5.207   0.522 -0.4655 -0.0765  0.0046
 2495TIP3    H128976   5.130   5.134   0.516  2.0174  1.8512  0.9730
 2495TIP3    H228977   5.066   5.243   0.433 -1.3333 -0.9615 -0.3609
 2496TIP3   OH228978   2.015   0.998   0.427  0.3374 -0.3545 -0.0335
 2496TIP3    H128979   1.941   1.049   0.394  1.0089  1.6136  1.2959
 2496TIP3    H228980   1.978   0.944   0.496  0.1365  0.8733  0.8608
 2497TIP3   OH228981   4.520   4.681   1.607 -0.2263 -0.0401 -0.0168
 2497TIP3    H128982   4.598   4.647   1.563  1.8017  2.8173  1.0318
 2497TIP3    H228983   4.474   4.732   1.540 -0.6283 -0.8559 -0.3696
 2498TIP3   OH228984   4.232   1.903   0.456  0.3912  0.3284 -0.1878
 2498TIP3    H128985   4.182   1.956   0.517 -0.0118 -0.3511  0.0861
 2498TIP3    H228986   4.229   1.951   0.374  1.7339  1.7357  0.5252
 2499TIP3   OH228987   6.554   6.816  13.829 -0.0371 -0.0144  0.6294
 2499TIP3    H128988   6.575   6.904  13.798 -0.4688  0.0002  0.3616
 2499TIP3    H228989   6.551   6.824  13.924 -0.7782  0.4356  0.5783
 2500TIP3   OH228990   1.775   3.545  12.321 -0.0440 -0.7403 -0.4116
 2500TIP3    H128991   1.750   3.453  12.325 -0.5692 -0.5778  0.2343
 2500TIP3    H228992   1.713   3.590  12.379  1.4892 -0.2843  0.9712
 2501TIP3   OH228993   2.739   2.350   5.636  0.4290 -0.5544 -0.0582
 2501TIP3    H128994   2.711   2.400   5.560 -0.0051 -0.8700 -0.1094
 2501TIP3    H228995   2.834   2.360   5.638  0.4334 -0.4707 -0.5865
 2502TIP3   OH228996   2.207   1.609  15.112  0.5169  0.0206 -0.3902
 2502TIP3    H128997   2.180   1.694  15.076  0.0921 -0.6312 -1.6403
 2502TIP3    H228998   2.299   1.601  15.087  0.4010 -0.1484 -0.7495
 2503TIP3   OH228999   6.300   3.086  12.266  0.0445 -0.0299  0.5426
 2503TIP3    H129000   6.242   3.116  12.197  1.3846  2.0140  0.2000
 2503TIP3    H229001   6.244   3.074  12.342 -1.2812 -1.2751 -0.5733
 2504TIP3   OH229002   0.074   4.566   3.134  0.1410 -0.6065  0.5592
 2504TIP3    H129003   0.078   4.472   3.121  0.8939 -0.4644 -0.2870
 2504TIP3    H229004   0.154   4.587   3.182  0.1689 -0.3357  0.3923
 2505TIP3   OH229005   5.764   5.711   0.734 -0.3679  0.8135 -0.5748
 2505TIP3    H129006   5.791   5.757   0.814  0.7644  0.3457 -0.6609
 2505TIP3    H229007   5.758   5.779   0.668  0.6740  0.9434 -0.5510
 2506TIP3   OH229008   5.746   1.275  15.653 -0.4127  0.1043 -0.0213
 2506TIP3    H129009   5.791   1.211  15.708 -0.8652 -0.8320 -0.7027
 2506TIP3    H229010   5.664   1.292  15.698  0.3405  1.4126  0.9498
 2507TIP3   OH229011   1.975   3.278  12.370 -0.3439  1.0610 -0.1998
 2507TIP3    H129012   1.886   3.283  12.336 -0.7149 -2.8937 -0.3183
 2507TIP3    H229013   1.965   3.241  12.458  1.1039  3.1309  0.9171
 2508TIP3   OH229014   2.764   1.166  13.832  0.4732  0.1144  0.3113
 2508TIP3    H129015   2.766   1.141  13.740  1.2312 -0.8285  0.5711
 2508TIP3    H229016   2.792   1.258  13.832 -1.1548  0.6617 -0.5291
 2509TIP3   OH229017   6.290   1.120   0.122 -0.4293 -0.0687 -0.1703
 2509TIP3    H129018   6.247   1.090   0.202 -2.7292  0.3260 -1.1791
 2509TIP3    H229019   6.373   1.072   0.120 -1.3321 -1.8260  1.3068
 2510TIP3   OH229020   3.662   3.586  13.507 -0.1927 -0.6363 -0.3421
 2510TIP3    H129021   3.601   3.519  13.538 -2.7278  1.7342  0.2878
 2510TIP3    H229022   3.725   3.539  13.453 -2.2653 -3.3954 -0.5648
 2511TIP3   OH229023   1.066   4.103  14.833  0.5727  0.7358  0.0795
 2511TIP3    H129024   1.021   4.031  14.791 -1.7210  1.8170  0.5072
 2511TIP3    H229025   1.159   4.083  14.824  0.0271 -1.6918 -0.7339
 2512TIP3   OH229026   5.914   1.036  13.777 -0.5705  0.2975  0.1644
 2512TIP3    H129027   5.889   0.944  13.782 -0.5423  0.3282  1.1895
 2512TIP3    H229028   5.935   1.060  13.868 -1.5742  1.5872  0.0952
 2513TIP3   OH229029   4.101   0.194   0.934  0.1943 -0.5491  0.0597
 2513TIP3    H129030   4.063   0.107   0.920 -2.3444  0.6851 -1.2537
 2513TIP3    H229031   4.128   0.222   0.847  0.9110  0.0434  0.4669
 2514TIP3   OH229032   1.079   0.596  11.099  0.3213 -0.7456 -0.2019
 2514TIP3    H129033   1.018   0.641  11.040 -0.2949  0.3095  1.1858
 2514TIP3    H229034   1.023   0.537  11.151  0.8800 -1.7841 -0.7379
 2515TIP3   OH229035   0.860   6.426  17.113  0.0912 -0.2822  0.1984
 2515TIP3    H129036   0.771   6.400  17.089 -0.4642  0.1802  1.6275
 2515TIP3    H229037   0.855   6.446  17.207  1.6184  0.1230  0.2297
 2516TIP3   OH229038   2.235   0.527  15.123  0.2604  0.3634  0.0948
 2516TIP3    H129039   2.286   0.469  15.180  0.6236  0.8551  0.2708
 2516TIP3    H229040   2.201   0.594  15.182 -0.9660 -0.1955  0.0648
 2517TIP3   OH229041   3.512   4.423  12.433  0.0378  0.5396  0.1697
 2517TIP3    H129042   3.459   4.488  12.479  0.7184 -0.4598  2.5436
 2517TIP3    H229043   3.456   4.345  12.428  0.2338  0.4078 -0.0242
 2518TIP3   OH229044   4.348   2.803  14.724 -0.1585  0.0244 -0.0263
 2518TIP3    H129045   4.398   2.758  14.792 -1.2077 -0.9791  0.1157
 2518TIP3    H229046   4.410   2.863  14.684  0.5968  0.3200  1.5169
 2519TIP3   OH229047   1.777   4.533   1.760 -0.7706 -0.0519 -0.3898
 2519TIP3    H129048   1.758   4.559   1.670  1.3936  1.8413 -0.4067
 2519TIP3    H229049   1.853   4.475   1.753 -0.6543  0.0187  0.1977
 2520TIP3   OH229050   1.385   2.278   2.507 -0.0198 -0.1751 -0.5492
 2520TIP3    H129051   1.315   2.227   2.548  1.5475 -3.2712 -1.3751
 2520TIP3    H229052   1.380   2.364   2.548 -3.0024 -0.8967  0.8345
 2521TIP3   OH229053   6.532   5.959  13.733 -0.2096  0.7926 -0.4338
 2521TIP3    H129054   6.457   5.934  13.787 -0.3881  1.4601 -0.3597
 2521TIP3    H229055   6.540   6.054  13.746  0.7786  0.6998 -0.2727
 2522TIP3   OH229056   5.233   3.035  14.478 -0.0213 -0.0468  0.0412
 2522TIP3    H129057   5.264   3.035  14.387 -0.6081 -0.6746 -0.1646
 2522TIP3    H229058   5.275   3.112  14.517  0.1371  0.3074 -0.7970
 2523TIP3   OH229059   2.058   1.204  12.844 -0.1079 -0.1408 -0.0035
 2523TIP3    H129060   2.002   1.152  12.787 -0.4921  1.0176 -0.7118
 2523TIP3    H229061   2.005   1.280  12.869  1.1289  1.0578 -0.8006
 2524TIP3   OH229062   1.100   1.967   0.025 -0.2762  0.6137  0.3064
 2524TIP3    H129063   1.042   2.036   0.055 -2.1289 -0.6548 -0.1945
 2524TIP3    H229064   1.102   1.977  -0.070 -2.1424 -1.1228  0.0171
 2525TIP3   OH229065   6.145   3.299   3.788  0.0930 -0.1512  0.5650
 2525TIP3    H129066   6.130   3.346   3.869  2.1598  2.0215 -0.2053
 2525TIP3    H229067   6.228   3.253   3.801  1.9851  2.5117 -1.1380
 2526TIP3   OH229068   4.613   5.327   4.995 -0.3000 -0.3027  0.5003
 2526TIP3    H129069   4.519   5.310   4.995  0.0859 -2.9021  1.7179
 2526TIP3    H229070   4.650   5.256   4.942  1.1599 -0.9294  2.2728
 2527TIP3   OH229071   0.348   5.736  15.123 -1.1529 -0.3148 -0.1283
 2527TIP3    H129072   0.416   5.671  15.139  0.4950  1.3110 -0.2515
 2527TIP3    H229073   0.388   5.820  15.146 -2.2187  1.0204 -2.7243
 2528TIP3   OH229074   0.901   2.017   5.745 -0.2057  0.0756 -0.0839
 2528TIP3    H129075   0.992   2.047   5.737  0.2059 -1.0477  0.2083
 2528TIP3    H229076   0.907   1.922   5.737 -1.4865  0.0599 -1.1418
 2529TIP3   OH229077   2.643   1.918   0.993 -0.2000  0.2749  0.4860
 2529TIP3    H129078   2.573   1.954   1.048 -0.4545 -0.1173  0.4178
 2529TIP3    H229079   2.620   1.826   0.982  0.5171  0.0585  0.7615
 2530TIP3   OH229080   4.631   5.417  13.445 -0.4778 -0.1018 -1.0102
 2530TIP3    H129081   4.657   5.373  13.526  0.7825  1.8224 -0.3108
 2530TIP3    H229082   4.535   5.421  13.449 -0.4717 -0.7564 -0.0259
 2531TIP3   OH229083   0.074   2.049   5.119  0.5343  0.2826 -0.5139
 2531TIP3    H129084   0.083   2.106   5.043  1.2315 -0.5145 -1.0454
 2531TIP3    H229085  -0.012   2.007   5.108  0.6088  0.2136 -0.8237
 2532TIP3   OH229086   6.566   4.988   5.765  0.7111 -0.3633  0.2224
 2532TIP3    H129087   6.504   4.953   5.701 -0.1219 -0.3796  1.0039
 2532TIP3    H229088   6.510   5.024   5.834  1.5771 -0.9096  1.2363
 2533TIP3   OH229089   5.563   4.246  12.822 -0.3222  0.1029  0.1416
 2533TIP3    H129090   5.506   4.323  12.818 -0.7989 -0.2901 -0.7837
 2533TIP3    H229091   5.632   4.264  12.758  2.2702  1.8317  3.0968
 2534TIP3   OH229092   4.753   2.461   5.728  0.4401 -0.1120 -0.4528
 2534TIP3    H129093   4.821   2.513   5.685  0.9953 -0.2576  0.2269
 2534TIP3    H229094   4.739   2.505   5.812 -0.7266  0.2502 -0.8184
 2535TIP3   OH229095   5.061   2.559   5.905  0.4319  0.3475  0.0984
 2535TIP3    H129096   5.011   2.577   5.984  2.3595 -1.3781  1.8317
 2535TIP3    H229097   5.129   2.626   5.904  2.0881 -1.2158  1.5277
 2536TIP3   OH229098   2.580   5.967   3.593 -0.6237  0.2233  0.3777
 2536TIP3    H129099   2.573   5.877   3.561 -0.5485  0.6570 -0.9652
 2536TIP3    H229100   2.642   5.962   3.665 -0.4008 -0.7609  0.1420
 2537TIP3   OH229101   6.565   3.001   1.675 -0.3667  0.0857  0.0309
 2537TIP3    H129102   6.528   3.059   1.609  0.0748  0.3025 -0.0283
 2537TIP3    H229103   6.654   3.033   1.688  0.4688 -1.6142 -1.2357
 2538TIP3   OH229104   1.662   4.726   3.858  0.3031 -0.2451  0.2607
 2538TIP3    H129105   1.566   4.736   3.859  0.1796 -1.3065 -0.3047
 2538TIP3    H229106   1.689   4.749   3.947 -0.0167  4.0087 -0.5222
 2539TIP3   OH229107   1.601   3.298  15.107  0.1127 -0.2348 -0.0351
 2539TIP3    H129108   1.678   3.322  15.159 -0.9716  0.2781  1.3884
 2539TIP3    H229109   1.630   3.306  15.016  1.1180  2.1410  0.4298
 2540TIP3   OH229110   4.514   0.334   0.088  0.1841 -0.1538 -0.1576
 2540TIP3    H129111   4.596   0.291   0.067  0.8100  1.2784 -0.7356
 2540TIP3    H229112   4.496   0.308   0.178  2.0237  0.6056  0.4867
 2541TIP3   OH229113   5.537   5.409   5.500 -0.0959 -0.3086  0.2692
 2541TIP3    H129114   5.501   5.370   5.579 -0.7392  1.3684  0.8538
 2541TIP3    H229115   5.474   5.477   5.475  1.1058  0.5886 -0.4789
 2542TIP3   OH229116   2.876   2.965   2.213  0.4914  0.1589  0.2200
 2542TIP3    H129117   2.805   2.901   2.207  1.3042 -0.6381 -1.5982
 2542TIP3    H229118   2.835   3.044   2.248 -0.9979 -0.6904  0.4439
 2543TIP3   OH229119   2.193   0.915  13.980 -0.2313  0.5099 -0.3129
 2543TIP3    H129120   2.129   0.946  14.043  1.3277  0.1402  1.5649
 2543TIP3    H229121   2.220   0.829  14.014  0.7538  0.3625 -1.3993
 2544TIP3   OH229122   5.437   6.133   4.406  1.1990  0.7686  0.2090
 2544TIP3    H129123   5.378   6.061   4.385  0.9702  1.1257 -0.3964
 2544TIP3    H229124   5.515   6.091   4.443  0.9904  0.2263  0.0380
 2545TIP3   OH229125   0.955   1.262   6.107 -0.2947  0.4022  0.3458
 2545TIP3    H129126   0.996   1.243   6.022 -1.4504 -0.0896 -0.1171
 2545TIP3    H229127   1.026   1.300   6.159  0.5571  0.2799 -0.6794
 2546TIP3   OH229128   0.059   4.586  16.338 -0.0512 -0.0454 -0.5317
 2546TIP3    H129129   0.060   4.638  16.419 -1.5384 -1.9913  0.8231
 2546TIP3    H229130   0.150   4.559  16.327  0.3407  0.9818 -0.0375
 2547TIP3   OH229131   1.703   5.170  11.434 -0.1659  0.0004 -0.3226
 2547TIP3    H129132   1.787   5.126  11.441 -0.2313 -0.0675  0.0472
 2547TIP3    H229133   1.725   5.262  11.420 -0.0110  0.2675  1.4437
 2548TIP3   OH229134   1.407   6.761  11.725 -0.0926 -0.6443  0.4760
 2548TIP3    H129135   1.351   6.690  11.693 -0.3543  0.4817 -1.7632
 2548TIP3    H229136   1.463   6.719  11.791  0.6547 -3.2932 -1.6280
 2549TIP3   OH229137   0.500   3.684   4.350  0.7251  0.1105 -0.1591
 2549TIP3    H129138   0.518   3.771   4.387 -0.0360  1.0047 -1.7512
 2549TIP3    H229139   0.440   3.643   4.413 -0.2521  1.4316 -0.1778
 2550TIP3   OH229140   5.979   5.176  13.847 -0.1256  0.6180 -0.0588
 2550TIP3    H129141   6.028   5.164  13.766 -0.7890  0.4536 -0.4448
 2550TIP3    H229142   5.976   5.271  13.860  0.4001  0.6238  0.0378
 2551TIP3   OH229143   5.218   2.736   3.226  0.2259 -0.4442  0.0286
 2551TIP3    H129144   5.221   2.752   3.132 -0.5261  0.7765  0.1971
 2551TIP3    H229145   5.223   2.823   3.266 -0.8148 -0.8414  1.0858
 2552TIP3   OH229146   3.434   2.093  14.513 -0.2318 -0.1092  0.2963
 2552TIP3    H129147   3.443   2.104  14.608 -1.8027 -1.4017  0.6306
 2552TIP3    H229148   3.341   2.078  14.500 -0.2458  1.3368 -1.6225
 2553TIP3   OH229149   0.205   0.454  14.832  0.1577 -0.5651 -0.0768
 2553TIP3    H129150   0.143   0.512  14.877 -0.7092 -0.8856 -0.8213
 2553TIP3    H229151   0.287   0.503  14.830 -0.1483 -0.0002  0.6588
 2554TIP3   OH229152   6.128   2.662  16.857 -0.1326  0.2003  0.2789
 2554TIP3    H129153   6.127   2.756  16.874 -4.4340 -0.0168  2.4185
 2554TIP3    H229154   6.119   2.621  16.943 -0.5788 -2.0847 -0.7602
 2555TIP3   OH229155   0.106   0.945  16.171 -0.5355 -0.5550 -0.4697
 2555TIP3    H129156   0.155   0.931  16.090 -0.5345 -0.0608 -0.5582
 2555TIP3    H229157   0.167   0.991  16.229 -0.9210  0.1755 -0.6270
 2556TIP3   OH229158   3.390   2.185   4.751  0.1346  0.2714 -0.2298
 2556TIP3    H129159   3.367   2.134   4.828 -0.0488 -2.5357 -2.0159
 2556TIP3    H229160   3.311   2.237   4.734 -0.2913 -0.0274  0.7266
 2557TIP3   OH229161   2.563   1.386   4.563  0.3006 -0.6522  0.2575
 2557TIP3    H129162   2.599   1.297   4.567 -0.2114 -0.8374  0.9458
 2557TIP3    H229163   2.535   1.405   4.652 -0.4875 -0.1814 -0.0778
 2558TIP3   OH229164   3.949   1.325   4.055  0.0397  0.3387 -0.1190
 2558TIP3    H129165   3.968   1.239   4.017  0.7389  0.5111 -0.1681
 2558TIP3    H229166   4.021   1.381   4.026  0.0393  0.7318  0.6160
 2559TIP3   OH229167   1.868   4.626   4.633  0.1045 -0.1279  0.0055
 2559TIP3    H129168   1.951   4.595   4.670 -0.3380 -1.3704 -0.0187
 2559TIP3    H229169   1.876   4.608   4.539  0.1163  0.4808 -0.1140
 2560TIP3   OH229170   4.794   6.371   4.830 -0.3642  0.1342  0.2994
 2560TIP3    H129171   4.728   6.402   4.892 -0.6732  1.3432 -0.6124
 2560TIP3    H229172   4.744   6.329   4.761 -0.1922  0.9877 -0.3568
 2561TIP3   OH229173   3.968   1.267   1.353  0.2417  0.2585 -0.3551
 2561TIP3    H129174   3.960   1.341   1.293 -0.1844 -1.2614 -2.2950
 2561TIP3    H229175   3.957   1.190   1.297  0.8760 -1.2893  1.5356
 2562TIP3   OH229176   4.957   6.794   0.034 -0.3015 -0.7099  0.3919
 2562TIP3    H129177   5.009   6.725   0.075  0.7551 -0.0843  0.1509
 2562TIP3    H229178   5.021   6.845  -0.015 -0.7668  1.4587  1.9286
 2563TIP3   OH229179   0.757   5.685   1.306 -0.0606 -0.3007 -0.6423
 2563TIP3    H129180   0.688   5.711   1.245  0.5719  0.5270 -1.0184
 2563TIP3    H229181   0.834   5.671   1.250  0.4966  0.3641 -0.0462
 2564TIP3   OH229182   6.816   2.165   1.369 -0.8544 -0.3080  1.0632
 2564TIP3    H129183   6.766   2.199   1.295 -0.7504 -1.7282  0.2986
 2564TIP3    H229184   6.766   2.191   1.446 -1.2985  0.6590  0.4710
 2565TIP3   OH229185   3.270   1.187  15.358  0.2384 -0.2313 -0.0707
 2565TIP3    H129186   3.199   1.205  15.296  0.3241  1.3546  0.2688
 2565TIP3    H229187   3.332   1.259  15.346  0.2448  0.1404  1.8672
 2566TIP3   OH229188   5.957   1.085  14.565 -0.0118  0.4306  0.3945
 2566TIP3    H129189   5.899   1.098  14.641  0.0921  3.2074  0.0838
 2566TIP3    H229190   5.897   1.063  14.493 -0.1180 -2.1335  1.1545
 2567TIP3   OH229191   5.392   0.191   3.506 -0.7803  0.1032  0.0964
 2567TIP3    H129192   5.442   0.264   3.544  0.9576 -1.0113  0.0501
 2567TIP3    H229193   5.410   0.196   3.412 -1.0489 -0.1087  0.0323
 2568TIP3   OH229194   1.788   3.307   3.037  0.0627 -0.4276 -0.1015
 2568TIP3    H129195   1.722   3.237   3.043 -1.1608  0.7807  1.3437
 2568TIP3    H229196   1.810   3.327   3.127  1.1469  0.3760 -0.5313
 2569TIP3   OH229197   0.493   6.251  15.719 -0.1822 -0.8455 -0.1777
 2569TIP3    H129198   0.553   6.204  15.663 -0.1876  0.3226 -1.2021
 2569TIP3    H229199   0.549   6.309  15.771 -0.0923 -2.4447  1.6527
 2570TIP3   OH229200   0.830   2.401   3.533  0.4623  0.2200  0.5415
 2570TIP3    H129201   0.922   2.398   3.507  0.2001 -2.4515 -0.3857
 2570TIP3    H229202   0.826   2.352   3.615 -0.1505  0.1711  0.4889
 2571TIP3   OH229203   4.151   3.422  11.408  1.0242 -0.3579  0.3897
 2571TIP3    H129204   4.177   3.493  11.466  0.0543  0.4591 -0.1647
 2571TIP3    H229205   4.206   3.348  11.435  1.4245  0.3456  1.5391
 2572TIP3   OH229206   4.357   1.579  12.134  0.2067 -0.4340  0.1352
 2572TIP3    H129207   4.413   1.635  12.079  0.3769 -0.2925  0.4476
 2572TIP3    H229208   4.396   1.492  12.126  1.3215 -0.0923  1.4309
 2573TIP3   OH229209   1.207   0.051  16.663 -0.2644  0.4552  0.3791
 2573TIP3    H129210   1.224   0.079  16.573  0.1925 -1.1801 -0.0813
 2573TIP3    H229211   1.293   0.026  16.697 -0.7305 -1.4240  0.3380
 2574TIP3   OH229212   2.535   2.253   2.340 -0.2140  0.7356 -0.1508
 2574TIP3    H129213   2.579   2.202   2.272  0.3482 -0.8469  1.3316
 2574TIP3    H229214   2.590   2.242   2.418 -1.0269  2.1924  0.6691
 2575TIP3   OH229215   6.005   3.248   5.228  0.4282  0.0307  0.5327
 2575TIP3    H129216   6.039   3.181   5.287  0.4332  0.6971  1.3060
 2575TIP3    H229217   5.910   3.237   5.232  0.4828 -1.7943 -1.5844
 2576TIP3   OH229218   6.710   0.522   5.842 -0.2622  0.2054  0.0411
 2576TIP3    H129219   6.709   0.615   5.864 -0.0092  0.4350 -0.9012
 2576TIP3    H229220   6.624   0.490   5.868 -0.2660  0.6450  0.5838
 2577TIP3   OH229221   2.241   6.354  16.465  0.8449 -0.0639 -0.4042
 2577TIP3    H129222   2.261   6.442  16.433  0.9694 -0.3546 -1.1287
 2577TIP3    H229223   2.154   6.363  16.505  0.0774  0.0241 -2.0061
 2578TIP3   OH229224   1.525   3.609   1.166 -0.1950  0.3539 -0.1432
 2578TIP3    H129225   1.505   3.664   1.242 -0.9299  0.2949 -0.2860
 2578TIP3    H229226   1.488   3.657   1.091  0.4521  0.3729 -0.4558
 2579TIP3   OH229227   3.457   6.439   0.549  0.3361  0.4212  0.0241
 2579TIP3    H129228   3.439   6.403   0.636  0.7982 -0.4947 -0.2557
 2579TIP3    H229229   3.513   6.515   0.566  1.5343 -0.5387  0.4477
 2580TIP3   OH229230   6.513   0.200   6.097  0.4701  0.3320  0.2065
 2580TIP3    H129231   6.465   0.268   6.145 -0.2200  0.5851 -0.8000
 2580TIP3    H229232   6.472   0.199   6.010  1.2544 -0.5600 -0.1694
 2581TIP3   OH229233   3.725   4.818  13.948  0.1972  0.1828  0.5421
 2581TIP3    H129234   3.752   4.740  13.900  0.3801  1.0986 -0.8974
 2581TIP3    H229235   3.632   4.827  13.928  0.5106  1.1922 -0.6245
 2582TIP3   OH229236   6.274   5.374  13.408 -0.3879  0.6301 -0.4025
 2582TIP3    H129237   6.316   5.369  13.493  1.2490  0.6135 -1.1690
 2582TIP3    H229238   6.292   5.464  13.378 -0.6103  0.5146 -0.8885
 2583TIP3   OH229239   1.811   3.917   1.593 -0.2755 -0.5285  0.0182
 2583TIP3    H129240   1.897   3.878   1.607 -0.8185 -1.1892  1.9670
 2583TIP3    H229241   1.758   3.882   1.665 -2.3614 -0.6815 -1.4965
 2584TIP3   OH229242   0.652   1.163  13.408  0.1166  0.1351  0.4715
 2584TIP3    H129243   0.742   1.138  13.428  0.4964  1.2336  0.2076
 2584TIP3    H229244   0.639   1.245  13.454 -0.5372  0.3226 -0.0281
 2585TIP3   OH229245   0.225   4.203   1.343 -0.2678  0.0422 -0.8724
 2585TIP3    H129246   0.236   4.155   1.262 -2.6130  2.3956 -2.7590
 2585TIP3    H229247   0.131   4.223   1.347 -0.5322 -1.0465  3.1400
 2586TIP3   OH229248   3.411   2.567  14.976 -1.0085 -0.4496  0.2656
 2586TIP3    H129249   3.455   2.636  14.926 -2.4792 -0.8970 -1.7755
 2586TIP3    H229250   3.474   2.495  14.978 -0.5427 -0.0635 -0.0550
 2587TIP3   OH229251   4.959   4.907  11.392  0.3161 -0.0654  0.4829
 2587TIP3    H129252   4.980   4.906  11.485  0.4115 -2.2171  0.4758
 2587TIP3    H229253   5.038   4.940  11.350  0.2851  0.8796  1.1418
 2588TIP3   OH229254   2.321   0.066   5.459 -0.0466 -0.5755 -0.0789
 2588TIP3    H129255   2.300   0.020   5.541 -0.4292  0.0835  0.2031
 2588TIP3    H229256   2.341  -0.004   5.397 -3.7694 -1.3915 -0.5800
 2589TIP3   OH229257   1.513   1.451  13.557  0.2562 -0.1548  0.3831
 2589TIP3    H129258   1.546   1.490  13.477 -1.0628 -1.7643 -1.0105
 2589TIP3    H229259   1.422   1.429  13.538  0.4581 -2.3485  1.6480
 2590TIP3   OH229260   1.172   2.178   2.670 -0.0974  0.1838 -0.4878
 2590TIP3    H129261   1.102   2.193   2.733  1.1972 -2.5012  1.8318
 2590TIP3    H229262   1.138   2.110   2.611  0.2911 -0.7444  0.3216
 2591TIP3   OH229263   1.403   2.266  12.619 -0.6604  0.3357 -0.2808
 2591TIP3    H129264   1.482   2.257  12.673 -1.4041  2.5848  1.3192
 2591TIP3    H229265   1.395   2.181  12.575  2.2876 -0.1677 -0.0628
 2592TIP3   OH229266   1.035   5.310  12.883  0.5809  0.5026 -0.5141
 2592TIP3    H129267   1.059   5.227  12.923 -0.8576  0.8716  1.2293
 2592TIP3    H229268   1.064   5.376  12.946 -0.8275  1.1586 -0.5272
 2593TIP3   OH229269   6.051   2.483  11.847  0.0325  0.1386  0.3744
 2593TIP3    H129270   5.981   2.422  11.823  0.5542  0.4858 -2.3272
 2593TIP3    H229271   6.131   2.433  11.835  0.3620  0.5810  0.7065
 2594TIP3   OH229272   4.522   3.857  15.004 -0.5800 -0.1779  0.1169
 2594TIP3    H129273   4.523   3.790  14.935  0.2468  0.2053 -0.2622
 2594TIP3    H229274   4.575   3.929  14.968  1.4297 -0.6888  1.8459
 2595TIP3   OH229275   4.063   5.712  13.082  0.9336  0.1582  0.3746
 2595TIP3    H129276   4.086   5.702  12.989  1.1087  0.2533  0.4070
 2595TIP3    H229277   3.973   5.681  13.088  0.8823  0.2598  0.1498
 2596TIP3   OH229278   3.231   1.204   2.113  0.2234 -0.2867 -0.0884
 2596TIP3    H129279   3.210   1.268   2.180  0.1597 -0.1826 -0.2084
 2596TIP3    H229280   3.198   1.121   2.148  0.1153 -0.2182 -0.0278
 2597TIP3   OH229281   6.121   1.561  12.669  0.4688 -0.3939 -0.0869
 2597TIP3    H129282   6.078   1.627  12.614  1.2718 -0.1305 -0.4243
 2597TIP3    H229283   6.053   1.496  12.687 -0.3498  0.5454  0.2912
 2598TIP3   OH229284   1.250   0.199   0.724 -0.1080 -0.3684 -0.3124
 2598TIP3    H129285   1.171   0.164   0.684  0.9909 -3.0597 -0.3654
 2598TIP3    H229286   1.252   0.161   0.812  1.0598 -0.3060 -0.2855
 2599TIP3   OH229287   1.632   6.663  14.014 -0.5920 -0.3423  0.5212
 2599TIP3    H129288   1.591   6.715  13.944 -1.7061 -0.9439  0.7082
 2599TIP3    H229289   1.614   6.572  13.990  0.4465 -0.6209  0.7473
 2600TIP3   OH229290   3.847   5.789  13.430 -0.1540  0.0224 -0.1226
 2600TIP3    H129291   3.938   5.807  13.405  0.2214 -1.2943  0.1824
 2600TIP3    H229292   3.814   5.872  13.463  0.7835  0.6476 -0.7043
 2601TIP3   OH229293   4.222   6.056   1.232  0.1182 -0.1818 -0.4167
 2601TIP3    H129294   4.163   6.035   1.159 -1.2645 -1.4542  1.0171
 2601TIP3    H229295   4.174   6.121   1.283  0.7665  0.1568 -0.2271
 2602TIP3   OH229296   4.016   6.656   0.226  0.6792  1.0951 -0.1917
 2602TIP3    H129297   3.994   6.572   0.185  0.5061  0.7121  0.6666
 2602TIP3    H229298   3.995   6.721   0.159 -0.3414  0.5344 -0.4462
 2603TIP3   OH229299   2.364   1.630   4.874  0.2420 -0.1906  0.3801
 2603TIP3    H129300   2.318   1.565   4.926 -2.3168 -0.0290 -1.5169
 2603TIP3    H229301   2.343   1.608   4.783  0.3171  2.4846 -0.3780
 2604TIP3   OH229302   2.996   6.434  13.666 -0.4076 -0.1018  0.1703
 2604TIP3    H129303   2.945   6.359  13.697 -0.6729 -0.8062 -1.8344
 2604TIP3    H229304   2.931   6.503  13.651 -0.8549 -0.9544 -2.2489
 2605TIP3   OH229305   3.298   4.026   4.782  0.4020 -0.0956  0.3675
 2605TIP3    H129306   3.379   4.049   4.828  0.9644 -0.0934 -0.5958
 2605TIP3    H229307   3.304   4.071   4.699 -0.3712 -0.4878  0.0913
 2606TIP3   OH229308   1.860   5.352  16.377 -0.6735  0.3062 -0.0777
 2606TIP3    H129309   1.800   5.294  16.423 -1.1295  1.2980  0.6003
 2606TIP3    H229310   1.946   5.331  16.414 -0.5344 -1.2057 -1.1421
 2607TIP3   OH229311   1.212   4.232  12.553  0.0535 -0.0808 -0.3800
 2607TIP3    H129312   1.245   4.219  12.642  0.5190  1.7639 -0.2456
 2607TIP3    H229313   1.127   4.275  12.564  1.0314  2.0851 -0.7964
 2608TIP3   OH229314   0.046   3.748  12.429  0.1196  0.0852 -0.0236
 2608TIP3    H129315   0.029   3.752  12.335 -0.2574 -1.0261 -0.0159
 2608TIP3    H229316   0.079   3.835  12.452 -1.7832  1.0375 -0.7789
 2609TIP3   OH229317   6.654   3.495   4.856  0.7310  0.4072 -0.7905
 2609TIP3    H129318   6.562   3.480   4.878  0.2037 -1.8797 -3.9073
 2609TIP3    H229319   6.675   3.579   4.898 -2.6764  0.9103  0.2136
 2610TIP3   OH229320   4.111   2.492   0.901 -0.2301  0.7628 -0.2792
 2610TIP3    H129321   4.022   2.523   0.913 -1.2542 -1.7818 -0.6808
 2610TIP3    H229322   4.129   2.505   0.808  0.0399  1.7317 -0.1043
 2611TIP3   OH229323   5.111   6.513  11.428  0.3452  0.3316  0.2024
 2611TIP3    H129324   5.025   6.516  11.469 -0.1527  1.2870 -0.8296
 2611TIP3    H229325   5.098   6.463  11.348  1.5673 -2.5525  1.6524
 2612TIP3   OH229326   4.924   6.261  12.640  0.4137 -0.0034  0.0211
 2612TIP3    H129327   4.915   6.205  12.717  0.0771  0.1109  0.0659
 2612TIP3    H229328   4.894   6.347  12.670  3.0356  0.7985  0.6415
 2613TIP3   OH229329   3.949   6.714  16.413 -0.3974  0.1649  0.4897
 2613TIP3    H129330   3.926   6.657  16.339 -1.2457 -0.0580  0.9092
 2613TIP3    H229331   3.864   6.739  16.450  0.0293 -1.0482  2.3885
 2614TIP3   OH229332   5.554   6.655   0.201  0.5222 -0.2047 -0.4792
 2614TIP3    H129333   5.481   6.611   0.157 -0.6637  2.1831 -1.0703
 2614TIP3    H229334   5.607   6.583   0.237 -1.5424 -2.0617 -0.9041
 2615TIP3   OH229335   3.431   5.746   6.025 -0.3395 -0.4930  0.0085
 2615TIP3    H129336   3.408   5.818   6.084 -0.7055 -0.1208 -0.5753
 2615TIP3    H229337   3.513   5.773   5.984 -0.6813 -0.2186 -0.5060
 2616TIP3   OH229338   4.260   6.325   3.771  0.1496 -0.2419 -0.1143
 2616TIP3    H129339   4.216   6.346   3.688  2.0896 -0.0018 -1.1310
 2616TIP3    H229340   4.320   6.398   3.785  1.6111 -1.4653  0.2040
 2617TIP3   OH229341   5.454   5.469  11.542 -0.0154  0.4797  0.1750
 2617TIP3    H129342   5.499   5.544  11.501 -0.5022  0.1767 -0.9615
 2617TIP3    H229343   5.397   5.508  11.607  0.8692  0.9761  0.6741
 2618TIP3   OH229344   1.229   6.655  13.977 -0.1571 -0.2577  0.3347
 2618TIP3    H129345   1.281   6.596  13.921  0.2590  0.7611 -0.3793
 2618TIP3    H229346   1.201   6.725  13.918 -1.8098 -0.4446  0.8612
 2619TIP3   OH229347   6.644   3.175  12.441  0.2489 -0.4666 -0.5874
 2619TIP3    H129348   6.719   3.191  12.499 -0.2143 -1.5908  0.3677
 2619TIP3    H229349   6.684   3.157  12.355  0.9648  0.7767 -0.5306
 2620TIP3   OH229350   1.209   5.371  12.135 -0.3565 -0.2084  0.0223
 2620TIP3    H129351   1.122   5.372  12.174 -1.1383  1.3431 -1.6110
 2620TIP3    H229352   1.223   5.281  12.107 -1.2082 -0.5795  0.7732
 2621TIP3   OH229353   2.904   6.189   3.701  0.1093 -0.3305 -0.0497
 2621TIP3    H129354   2.844   6.263   3.689 -1.0773 -0.9563  1.6214
 2621TIP3    H229355   2.873   6.145   3.780 -0.1353 -3.4876 -1.7292
 2622TIP3   OH229356   1.040   1.601  11.167 -0.3043 -0.4891 -0.4192
 2622TIP3    H129357   0.965   1.556  11.127 -0.3543  0.7260 -1.7819
 2622TIP3    H229358   1.010   1.626  11.254 -2.0396  1.2506 -1.4536
 2623TIP3   OH229359   1.367   6.519   2.954  0.4072 -0.2181  0.5523
 2623TIP3    H129360   1.441   6.579   2.962  2.3816 -2.1956 -1.2610
 2623TIP3    H229361   1.405   6.432   2.967 -1.2825 -1.4111 -1.6975
 2624TIP3   OH229362   5.841   6.054  13.594  0.3131 -0.0121 -0.2240
 2624TIP3    H129363   5.815   6.146  13.590 -2.5865 -0.7098 -0.2285
 2624TIP3    H229364   5.821   6.021  13.506  0.4575 -0.8211  0.0461
 2625TIP3   OH229365   3.403   0.253   1.417  0.3496  0.3680 -0.1251
 2625TIP3    H129366   3.317   0.274   1.453  1.1702 -1.3633  3.2326
 2625TIP3    H229367   3.388   0.177   1.361 -0.2668 -0.1767  0.7636
 2626TIP3   OH229368   0.178   3.866   1.404 -0.4000 -0.8754 -0.4500
 2626TIP3    H129369   0.241   3.920   1.452 -2.5464  0.6416  0.8313
 2626TIP3    H229370   0.232   3.804   1.356  2.0953  0.8040 -0.0203
 2627TIP3   OH229371   4.174   2.674  13.014 -0.3186 -0.1365 -0.2975
 2627TIP3    H129372   4.190   2.635  12.928 -0.5118 -0.7210 -0.0759
 2627TIP3    H229373   4.262   2.688  13.050 -0.2331 -1.7811  0.2298
 2628TIP3   OH229374   4.882   5.209  12.927 -0.4498 -0.0689  0.0076
 2628TIP3    H129375   4.808   5.244  12.876 -0.4095 -0.2617 -0.1842
 2628TIP3    H229376   4.916   5.137  12.874 -0.5289 -0.4031  0.4015
 2629TIP3   OH229377   2.872   0.752  14.253 -0.2567 -0.6405  0.2963
 2629TIP3    H129378   2.821   0.818  14.206  1.2251 -0.2037 -0.7681
 2629TIP3    H229379   2.961   0.761  14.218  0.5802 -1.3290  2.1284
 2630TIP3   OH229380   3.958   3.137  11.955  0.0905 -0.2465  0.5002
 2630TIP3    H129381   3.865   3.112  11.955  0.0810 -0.3157 -1.0158
 2630TIP3    H229382   3.991   3.106  12.039 -1.4613  0.5864  1.4716
 2631TIP3   OH229383   5.522   5.013   0.809  0.3389  0.4200  0.0388
 2631TIP3    H129384   5.468   5.012   0.888 -0.6226  0.9923 -0.5878
 2631TIP3    H229385   5.606   5.048   0.838  0.1991  0.0335  0.9332
 2632TIP3   OH229386   1.852   5.495   2.941 -0.2936  0.8332 -0.0645
 2632TIP3    H129387   1.855   5.452   2.856 -1.5639  2.3588 -0.9507
 2632TIP3    H229388   1.937   5.539   2.949  0.0984  0.1195 -0.2056
 2633TIP3   OH229389   5.370   1.571  16.081  0.3471 -0.1457  0.1257
 2633TIP3    H129390   5.314   1.647  16.065  1.1023  0.0969 -1.6214
 2633TIP3    H229391   5.326   1.499  16.035 -1.9750 -1.6469  4.1687
 2634TIP3   OH229392   4.077   6.359  13.668 -0.5486  0.1380 -0.0025
 2634TIP3    H129393   4.072   6.289  13.603  1.3405 -0.8254  0.8103
 2634TIP3    H229394   4.107   6.315  13.748 -0.0883  1.7596  0.7544
 2635TIP3   OH229395   6.435   4.059   2.895  0.0080 -0.0483  0.0575
 2635TIP3    H129396   6.388   4.044   2.977 -0.7790  1.6836 -0.0428
 2635TIP3    H229397   6.493   4.133   2.914  0.7299 -0.4299 -0.6080
 2636TIP3   OH229398   0.031   4.641   2.507  0.2886 -0.0334 -0.6035
 2636TIP3    H129399   0.041   4.633   2.602 -0.9940  2.4905 -0.1581
 2636TIP3    H229400   0.016   4.552   2.476 -3.2702 -0.6130  2.1414
 2637TIP3   OH229401   5.646   0.547  14.820  0.1108 -0.1708 -0.7594
 2637TIP3    H129402   5.696   0.619  14.783 -1.3506  1.3825  0.1741
 2637TIP3    H229403   5.662   0.553  14.915 -1.7861  0.3622 -0.4434
 2638TIP3   OH229404   4.799   4.420  16.784 -0.1637 -0.0375 -0.1120
 2638TIP3    H129405   4.859   4.493  16.774  1.7873 -1.6228 -0.7718
 2638TIP3    H229406   4.725   4.441  16.727  0.4791  1.2932 -0.4926
 2639TIP3   OH229407   4.616   4.309   3.663 -0.4888 -0.1484 -0.3329
 2639TIP3    H129408   4.567   4.267   3.733  1.9447 -1.0792  0.9250
 2639TIP3    H229409   4.666   4.237   3.622 -1.2410  0.4984 -2.5520
 2640TIP3   OH229410   6.214   1.619  12.006 -0.3850 -0.5297 -0.3558
 2640TIP3    H129411   6.210   1.660  11.919  1.0669  1.6442  0.4975
 2640TIP3    H229412   6.142   1.659  12.054  0.8302  0.8774  0.3806
 2641TIP3   OH229413   5.361   2.256   4.953  0.4658  0.2470 -0.3573
 2641TIP3    H129414   5.388   2.317   5.021 -0.7562  0.3530  0.0613
 2641TIP3    H229415   5.395   2.171   4.981 -2.7605 -0.4013  2.2083
 2642TIP3   OH229416   3.858   2.797  10.896  0.3688 -0.0607 -0.5558
 2642TIP3    H129417   3.910   2.738  10.842 -0.4665 -1.0128 -0.3425
 2642TIP3    H229418   3.779   2.814  10.844 -0.5225 -1.1231  0.4110
 2643TIP3   OH229419   4.521   4.758   2.832  0.0126  0.7443 -0.5361
 2643TIP3    H129420   4.496   4.675   2.873  1.1883 -0.1085 -1.4763
 2643TIP3    H229421   4.615   4.765   2.847 -0.3308  2.8459  1.1061
 2644TIP3   OH229422   6.610   2.509   4.874  0.6784 -0.4776 -0.1912
 2644TIP3    H129423   6.632   2.432   4.821 -0.6999 -0.3068 -1.0619
 2644TIP3    H229424   6.603   2.580   4.810  0.8595  0.1381  0.4670
 2645TIP3   OH229425   0.342   4.309  10.769  0.0680 -0.1387 -0.4104
 2645TIP3    H129426   0.301   4.364  10.837  0.5332 -0.8391  0.4661
 2645TIP3    H229427   0.340   4.363  10.690 -0.6227  0.6492  0.1228
 2646TIP3   OH229428   1.576   1.117   3.969  0.0489  0.2001 -0.3326
 2646TIP3    H129429   1.615   1.204   3.978 -1.5814  0.8607  0.6914
 2646TIP3    H229430   1.591   1.076   4.055 -0.5492  0.0660 -0.2904
 2647TIP3   OH229431   4.937   4.334  13.947  0.3094 -0.3940 -0.0871
 2647TIP3    H129432   4.862   4.379  13.909 -0.1265 -0.5458  0.5813
 2647TIP3    H229433   4.900   4.263  13.999  0.9760 -1.2594 -0.7732
 2648TIP3   OH229434   4.460   3.973  15.739  0.4241  0.1827  0.3025
 2648TIP3    H129435   4.440   3.996  15.648 -0.6691 -1.0864  0.1856
 2648TIP3    H229436   4.518   3.896  15.732 -1.4912 -1.3761  0.6150
 2649TIP3   OH229437   1.287   5.149  11.978  0.5888  0.3614  0.2126
 2649TIP3    H129438   1.369   5.121  12.017  0.5352 -0.5426 -0.2989
 2649TIP3    H229439   1.310   5.174  11.888  0.8149  2.9566  0.9185
 2650TIP3   OH229440   6.244   5.142  14.958 -0.1274  0.0476 -0.2454
 2650TIP3    H129441   6.215   5.089  15.032 -0.9126  0.9079  0.0814
 2650TIP3    H229442   6.309   5.202  14.996 -0.7795  0.7183 -0.1678
 2651TIP3   OH229443   1.064   4.980  14.759 -0.0042 -0.6897  0.0123
 2651TIP3    H129444   1.036   5.071  14.759 -0.2087 -0.7223  1.3309
 2651TIP3    H229445   1.094   4.964  14.849  0.4688 -1.7886 -0.3143
 2652TIP3   OH229446   4.721   2.408   4.842 -0.4178  0.3668 -0.9189
 2652TIP3    H129447   4.646   2.467   4.849 -1.0103 -0.5487  3.7816
 2652TIP3    H229448   4.683   2.320   4.840  0.5168 -0.0477 -1.1106
 2653TIP3   OH229449   3.296   0.053   1.917  0.6342 -0.0468  0.2847
 2653TIP3    H129450   3.390   0.070   1.908  0.4927  0.1626 -0.9990
 2653TIP3    H229451   3.269   0.107   1.990  1.0601  1.8407 -0.8873
 2654TIP3   OH229452   4.043   2.832  13.361  0.0838 -0.5895 -0.8637
 2654TIP3    H129453   3.989   2.756  13.383 -2.8590  1.3890 -0.6980
 2654TIP3    H229454   3.993   2.877  13.293  1.6693  1.2599 -0.8606
 2655TIP3   OH229455   4.746   0.395   5.231  0.7430  0.0768 -0.2429
 2655TIP3    H129456   4.761   0.362   5.319  0.9799 -0.4342 -0.4712
 2655TIP3    H229457   4.825   0.444   5.210  1.3079 -1.0000 -0.7090
 2656TIP3   OH229458   6.589   4.628   5.653  0.1632  0.0203 -0.2804
 2656TIP3    H129459   6.634   4.679   5.585  1.9760  0.0154  0.8506
 2656TIP3    H229460   6.556   4.694   5.714 -1.7458  0.0440 -1.2515
 2657TIP3   OH229461   3.434   2.419  14.153 -0.7081 -0.4900  0.2252
 2657TIP3    H129462   3.493   2.434  14.227 -0.5356  1.3430 -0.2293
 2657TIP3    H229463   3.346   2.426  14.191 -0.6190  0.2823  0.3106
 2658TIP3   OH229464   5.593   6.458  13.640 -0.4119  0.4897 -0.6675
 2658TIP3    H129465   5.570   6.533  13.584  1.4571 -0.0052 -2.2032
 2658TIP3    H229466   5.678   6.430  13.608 -0.7826 -1.9418  0.2915
 2659TIP3   OH229467   1.416   5.640  14.230 -0.3132  0.7614  0.1304
 2659TIP3    H129468   1.324   5.659  14.250 -0.4113  0.8275 -0.3573
 2659TIP3    H229469   1.448   5.594  14.307  0.3007  3.9622  1.9526
 2660TIP3   OH229470   2.327   1.193  15.808  0.2564 -0.3279  0.6090
 2660TIP3    H129471   2.305   1.124  15.746  2.8211 -1.4198  0.7822
 2660TIP3    H229472   2.363   1.147  15.884  2.1361  1.1637  0.6886
 2661TIP3   OH229473   0.203   1.530   0.231 -0.1902  0.4902 -0.0372
 2661TIP3    H129474   0.126   1.481   0.259  1.2259 -1.2964  1.0113
 2661TIP3    H229475   0.209   1.602   0.294 -0.8044  0.4390  0.0872
 2662TIP3   OH229476   1.425   3.121   5.407 -0.2879 -0.5325  0.1425
 2662TIP3    H129477   1.397   3.210   5.388  0.7189 -0.6412 -2.2412
 2662TIP3    H229478   1.362   3.065   5.361  0.9497 -0.9022 -1.1859
 2663TIP3   OH229479   3.231   2.906  14.917  0.2306  0.2252  0.1756
 2663TIP3    H129480   3.266   2.993  14.900  1.7367  0.0428  1.9296
 2663TIP3    H229481   3.137   2.915  14.906  0.3122  2.1881  0.7319
 2664TIP3   OH229482   1.176   0.268   3.234 -0.0565  0.2026 -0.1125
 2664TIP3    H129483   1.097   0.320   3.249 -0.0700  0.3495 -0.6598
 2664TIP3    H229484   1.241   0.331   3.203 -0.4320 -0.2751 -1.9726
 2665TIP3   OH229485   0.760   5.374   4.248  0.0347  0.6233  0.2729
 2665TIP3    H129486   0.786   5.295   4.201  0.9802  0.8657  0.3691
 2665TIP3    H229487   0.676   5.352   4.289 -0.0134 -0.1151 -0.2116
 2666TIP3   OH229488   4.171   0.366  14.988  0.4982  0.0454  0.1941
 2666TIP3    H129489   4.085   0.355  15.029  0.0604 -0.2291 -0.7670
 2666TIP3    H229490   4.215   0.282  15.001 -0.0338 -0.4002 -0.7567
 2667TIP3   OH229491   2.075   2.344  15.693  0.0214  0.0299 -0.3074
 2667TIP3    H129492   2.052   2.433  15.720  2.1451  0.8542 -1.0230
 2667TIP3    H229493   2.148   2.356  15.632  0.8654 -2.2471  0.1673
 2668TIP3   OH229494   0.978   6.210   2.224 -0.2253 -0.3915 -0.1926
 2668TIP3    H129495   0.996   6.255   2.306  1.3954 -2.8880  0.9598
 2668TIP3    H229496   0.884   6.193   2.226 -0.1483 -0.7685  1.3806
 2669TIP3   OH229497   5.797   2.680  13.168  0.3895 -0.1131 -0.0390
 2669TIP3    H129498   5.747   2.748  13.211  1.0900  0.7925 -0.6289
 2669TIP3    H229499   5.826   2.622  13.239 -2.0423 -1.0853  0.2555
 2670TIP3   OH229500   0.692   5.022   5.402 -0.2947  0.0373  0.0092
 2670TIP3    H129501   0.702   5.100   5.457 -2.2639 -0.4757  1.1846
 2670TIP3    H229502   0.745   4.956   5.446  3.1030  1.0888 -2.1016
 2671TIP3   OH229503   0.443   5.572   6.062  0.6051 -0.1645 -0.1434
 2671TIP3    H129504   0.534   5.580   6.089  0.8828 -0.4803 -0.9581
 2671TIP3    H229505   0.442   5.499   6.001 -0.7026 -2.2061  2.1134
 2672TIP3   OH229506   3.390   3.599   4.505 -0.8534  0.5849 -0.6186
 2672TIP3    H129507   3.437   3.662   4.451  0.8886 -0.7045 -0.6700
 2672TIP3    H229508   3.453   3.531   4.524 -2.6055 -1.0636 -0.3755
 2673TIP3   OH229509   4.095   6.034   4.765  0.4271 -0.6360 -0.0083
 2673TIP3    H129510   4.182   6.001   4.785  0.6898 -0.4590 -0.8184
 2673TIP3    H229511   4.107   6.088   4.687  0.0119  1.3129  1.2032
 2674TIP3   OH229512   6.285   5.473   0.959  0.2756  0.0018  0.0388
 2674TIP3    H129513   6.299   5.381   0.982  2.1019  0.6952  2.0394
 2674TIP3    H229514   6.236   5.509   1.033 -2.0787  0.3197 -1.5548
 2675TIP3   OH229515   6.532   4.480   4.647  0.0448 -0.8966  0.5052
 2675TIP3    H129516   6.566   4.428   4.720  0.5586  0.1040  0.9966
 2675TIP3    H229517   6.513   4.415   4.579 -1.2877 -1.9676  1.8155
 2676TIP3   OH229518   0.143   4.429  14.152  0.5879 -0.1036 -0.1876
 2676TIP3    H129519   0.058   4.411  14.111  0.6190 -2.3893  0.6011
 2676TIP3    H229520   0.134   4.396  14.241  1.9406  0.7203  0.2762
 2677TIP3   OH229521   3.368   3.387  15.255 -0.2376  0.4936  0.3755
 2677TIP3    H129522   3.297   3.437  15.216  1.1996  0.0562 -3.2541
 2677TIP3    H229523   3.447   3.418  15.209  1.2058 -2.4074  0.6262
 2678TIP3   OH229524   5.375   5.602  11.793 -0.0252  0.3852 -0.0618
 2678TIP3    H129525   5.428   5.677  11.768  0.6094  0.2304  0.7767
 2678TIP3    H229526   5.285   5.636  11.799 -0.1034  0.5721 -1.8201
 2679TIP3   OH229527   4.949   3.601   5.180  0.5739 -0.2709  0.5562
 2679TIP3    H129528   4.939   3.668   5.247 -0.1342 -0.5782  0.7717
 2679TIP3    H229529   5.041   3.576   5.183  0.3449 -1.0246  2.1363
 2680TIP3   OH229530   6.116   1.545   4.059 -0.1695  0.2839 -0.4465
 2680TIP3    H129531   6.113   1.452   4.036  0.8722 -0.1869  1.1164
 2680TIP3    H229532   6.037   1.559   4.111  0.5432 -0.1981  0.8057
 2681TIP3   OH229533   4.265   5.387  16.085 -0.1470  0.4214 -0.0766
 2681TIP3    H129534   4.334   5.335  16.043 -1.1071 -0.2457 -0.8826
 2681TIP3    H229535   4.312   5.445  16.145  1.0082 -1.0865  0.5646
 2682TIP3   OH229536   0.402   2.260  14.269 -0.1182 -0.1662  0.0868
 2682TIP3    H129537   0.341   2.318  14.224 -1.9292 -1.9229  0.1835
 2682TIP3    H229538   0.423   2.307  14.350  0.9382  1.7161 -1.1992
 2683TIP3   OH229539   6.381   3.695  16.326 -0.0752  0.4931 -0.4013
 2683TIP3    H129540   6.377   3.605  16.357  1.9987  1.0270  1.7192
 2683TIP3    H229541   6.292   3.715  16.296 -1.4946 -1.1320  2.3714
 2684TIP3   OH229542   1.689   4.929  13.876  0.0923  0.3192 -0.4142
 2684TIP3    H129543   1.765   4.965  13.830  0.7973 -1.6750 -0.9165
 2684TIP3    H229544   1.682   4.839  13.844 -4.0525  1.1292 -2.3242
 2685TIP3   OH229545   1.971   0.022  11.688  0.3017 -0.4726  0.5288
 2685TIP3    H129546   1.876   0.011  11.690  0.3236 -0.5539  1.9144
 2685TIP3    H229547   2.005  -0.051  11.740  1.0238  0.4614  1.4049
 2686TIP3   OH229548   2.357   1.840   4.208 -0.0967  0.5056  0.6282
 2686TIP3    H129549   2.347   1.869   4.117 -0.2947  0.0499  0.4967
 2686TIP3    H229550   2.267   1.839   4.242 -0.0383  0.5371  0.7827
 2687TIP3   OH229551   1.658   6.642   3.950  0.2470 -0.0981 -0.2265
 2687TIP3    H129552   1.611   6.716   3.988 -2.2944 -1.9052  0.4245
 2687TIP3    H229553   1.600   6.610   3.880  2.2908 -0.2277 -1.9720
 2688TIP3   OH229554   1.580   4.326   0.381  0.2545  0.0010 -0.4330
 2688TIP3    H129555   1.580   4.409   0.430  1.1088  0.1840 -0.7172
 2688TIP3    H229556   1.619   4.349   0.296 -1.0201 -0.3481 -1.1518
 2689TIP3   OH229557   3.855   3.046  15.800  0.9948 -0.0290 -0.2028
 2689TIP3    H129558   3.785   2.985  15.778 -0.1391  1.5565 -1.1968
 2689TIP3    H229559   3.884   3.082  15.716  1.4704  0.9511  0.3604
 2690TIP3   OH229560   6.090   1.511  13.702 -0.0300 -0.3835 -0.0813
 2690TIP3    H129561   6.102   1.584  13.641  1.2740  1.4777  2.2331
 2690TIP3    H229562   5.998   1.515  13.728  0.3402  1.4604  1.1285
 2691TIP3   OH229563   0.355   2.734   2.807  0.4868  0.4272  0.0744
 2691TIP3    H129564   0.413   2.716   2.733  0.7528 -0.1230  0.4067
 2691TIP3    H229565   0.270   2.700   2.779  0.6365  0.0225  0.0996
 2692TIP3   OH229566   0.264   3.680   3.903 -0.7890 -0.4439 -0.4624
 2692TIP3    H129567   0.193   3.710   3.846  0.3624  1.5850 -0.9466
 2692TIP3    H229568   0.236   3.701   3.991 -0.5313  1.0783 -0.7078
 2693TIP3   OH229569   3.354   0.716   6.263 -0.2480 -0.3323  0.4270
 2693TIP3    H129570   3.313   0.633   6.236 -0.6389  0.2559 -0.8828
 2693TIP3    H229571   3.282   0.769   6.296 -0.1160 -0.2365  0.5646
 2694TIP3   OH229572   3.348   0.024   6.024  0.0480 -0.2089 -0.5575
 2694TIP3    H129573   3.424   0.070   5.988  0.0347  0.3968  0.1462
 2694TIP3    H229574   3.373   0.006   6.115 -0.7434  0.1931 -0.2584
 2695TIP3   OH229575   5.881   2.974  11.308 -0.0604 -0.1023  0.1555
 2695TIP3    H129576   5.945   3.017  11.250 -0.2477 -0.7510 -0.5504
 2695TIP3    H229577   5.899   2.881  11.297 -0.0284 -0.2318  1.2429
 2696TIP3   OH229578   4.624   5.563  14.922 -0.2974  0.1382  0.5644
 2696TIP3    H129579   4.558   5.542  14.988 -0.5509 -2.4451 -0.4208
 2696TIP3    H229580   4.574   5.590  14.846 -0.2170 -0.8843  0.1311
 2697TIP3   OH229581   1.469   1.424  11.377 -0.0280  0.3601 -0.2867
 2697TIP3    H129582   1.487   1.435  11.284  0.0752 -1.2740 -0.4987
 2697TIP3    H229583   1.400   1.487  11.397  0.1981  0.9698 -1.3851
 2698TIP3   OH229584   0.456   0.335  13.026 -0.1988  0.1469 -0.3364
 2698TIP3    H129585   0.528   0.371  13.078  0.2195 -0.2258 -0.6374
 2698TIP3    H229586   0.500   0.296  12.950 -0.6049 -1.1932  0.0947
 2699TIP3   OH229587   2.558   4.150  15.658 -0.4909 -0.1515 -0.2611
 2699TIP3    H129588   2.501   4.212  15.702  0.5443 -0.5081  1.6968
 2699TIP3    H229589   2.624   4.204  15.614 -1.2260  0.1950 -0.9509
 2700TIP3   OH229590   6.279   4.676   1.825  0.4469 -0.0961 -0.1365
 2700TIP3    H129591   6.292   4.700   1.734 -0.5317 -1.2135 -0.5953
 2700TIP3    H229592   6.185   4.688   1.841  0.7208  0.8261  0.9625
 2701TIP3   OH229593   3.701   6.313   4.990 -0.4976 -0.2353  0.2376
 2701TIP3    H129594   3.693   6.310   5.086 -0.0039  1.5747  0.3837
 2701TIP3    H229595   3.658   6.395   4.966 -2.4303 -1.6196 -1.3448
 2702TIP3   OH229596   4.798   3.615  12.316 -0.6835  0.6423 -0.0422
 2702TIP3    H129597   4.791   3.612  12.220  0.6253  2.2465 -0.2308
 2702TIP3    H229598   4.713   3.645  12.346 -1.0719  0.2211 -0.7040
 2703TIP3   OH229599   4.585   2.165   4.822  0.0815  0.1999  0.2514
 2703TIP3    H129600   4.520   2.197   4.760  0.4817 -0.7920 -0.7048
 2703TIP3    H229601   4.622   2.087   4.781  0.7460 -0.1726  1.4961
 2704TIP3   OH229602   0.485   2.252  11.776 -0.0714  0.1434 -0.1848
 2704TIP3    H129603   0.469   2.280  11.686  0.6560 -2.8425 -1.3453
 2704TIP3    H229604   0.571   2.290  11.798  0.4433 -0.3335 -1.3130
 2705TIP3   OH229605   4.311   1.837   1.286  0.7694  0.2809  0.1011
 2705TIP3    H129606   4.392   1.787   1.274  1.1630  0.3082  2.1974
 2705TIP3    H229607   4.275   1.805   1.369 -2.4373 -1.1007 -1.6219
 2706TIP3   OH229608   3.162   0.473   4.733 -0.0699  0.0662 -0.1151
 2706TIP3    H129609   3.216   0.429   4.668 -0.6727  0.5950 -0.9995
 2706TIP3    H229610   3.225   0.519   4.790  0.4124  1.1211 -1.4501
 2707TIP3   OH229611   1.547   1.946  12.850 -0.0560  0.2084 -0.5064
 2707TIP3    H129612   1.511   1.873  12.799  1.5057 -0.5268 -0.6122
 2707TIP3    H229613   1.625   1.973  12.801  0.8011  0.2791  0.8480
 2708TIP3   OH229614   5.503   0.028   1.099 -0.4813  0.0690  0.3042
 2708TIP3    H129615   5.575   0.025   1.036 -1.1138 -1.4922 -0.4039
 2708TIP3    H229616   5.433   0.075   1.053 -0.1281  1.1021  0.7890
 2709TIP3   OH229617   3.711   3.239  13.527 -0.5603  0.3644  0.3329
 2709TIP3    H129618   3.663   3.164  13.492 -1.0456  0.8253 -0.0031
 2709TIP3    H229619   3.772   3.263  13.457  1.4881 -1.3461  1.4347
 2710TIP3   OH229620   6.052   6.230   4.790  0.2208 -0.0270 -0.8404
 2710TIP3    H129621   5.981   6.242   4.727 -0.2033  0.4638 -0.2878
 2710TIP3    H229622   6.031   6.148   4.835 -1.1218  1.0895  0.6987
 2711TIP3   OH229623   2.803   3.433   3.175 -0.7268 -0.5675 -0.2241
 2711TIP3    H129624   2.765   3.394   3.254 -0.0968 -1.1548 -0.2083
 2711TIP3    H229625   2.799   3.364   3.109 -0.5006 -0.3425 -0.4779
 2712TIP3   OH229626   3.989   5.043  15.565 -0.2259 -0.7723  0.1889
 2712TIP3    H129627   4.047   5.116  15.544  0.7261 -1.5080  0.2062
 2712TIP3    H229628   3.982   4.994  15.483 -1.0291 -0.5529  0.1215
 2713TIP3   OH229629   4.979   4.045   5.412  0.0850  0.0504  0.2010
 2713TIP3    H129630   4.959   4.098   5.490 -1.3815  1.2721 -0.9476
 2713TIP3    H229631   5.024   4.106   5.353 -2.1005  0.2708 -1.3638
 2714TIP3   OH229632   4.057   5.912  14.898  0.3906  0.6255  0.9937
 2714TIP3    H129633   3.994   5.934  14.830  1.1798 -2.2860 -0.8540
 2714TIP3    H229634   4.126   5.978  14.888 -1.1774  2.4490  1.5273
 2715TIP3   OH229635   6.450   5.498  12.471  0.4567  0.1939 -0.5975
 2715TIP3    H129636   6.460   5.442  12.549 -0.0732  0.6470 -0.1977
 2715TIP3    H229637   6.402   5.444  12.409 -0.4529  0.3385 -0.0478
 2716TIP3   OH229638   6.669   2.677   3.573  0.2636  0.4624 -0.7118
 2716TIP3    H129639   6.744   2.655   3.518  1.1638  2.9502 -0.6105
 2716TIP3    H229640   6.667   2.773   3.574 -1.6412  0.4797  1.0197
 2717TIP3   OH229641   5.718   1.583  12.291  0.2067 -0.2724 -0.2101
 2717TIP3    H129642   5.680   1.640  12.224  2.6233 -0.1254 -1.5675
 2717TIP3    H229643   5.695   1.626  12.374 -3.8895 -1.1165 -0.7455
 2718TIP3   OH229644   3.201   2.692  11.395  0.2718  0.0165  0.0344
 2718TIP3    H129645   3.267   2.663  11.459 -1.1592 -2.7145  0.4417
 2718TIP3    H229646   3.193   2.618  11.335  1.4535  2.4219 -3.3776
 2719TIP3   OH229647   3.155   3.134  13.164 -0.1607  0.1763 -0.0261
 2719TIP3    H129648   3.135   3.202  13.228  1.3961  0.1768  0.5086
 2719TIP3    H229649   3.091   3.065  13.182 -0.1744  0.4557  1.1076
 2720TIP3   OH229650   4.120   4.729  16.867 -0.1487 -0.2709  0.2628
 2720TIP3    H129651   4.205   4.767  16.845 -0.2686 -0.3820 -0.4342
 2720TIP3    H229652   4.140   4.638  16.890 -0.1739 -0.5843 -0.8762
 2721TIP3   OH229653   3.929   3.426   3.993  0.2661  0.5709 -0.4726
 2721TIP3    H129654   3.991   3.499   3.984 -0.0658  0.7875 -1.1031
 2721TIP3    H229655   3.973   3.365   4.052  1.1230  0.6824 -0.9697
 2722TIP3   OH229656   4.409   2.588   2.143  0.4722  0.0220 -0.0820
 2722TIP3    H129657   4.368   2.621   2.223 -0.7833  0.3414 -0.8273
 2722TIP3    H229658   4.502   2.607   2.154  0.0279  2.3075  0.2571
 2723TIP3   OH229659   6.396   1.490  13.425  0.4813  0.1631  0.2513
 2723TIP3    H129660   6.370   1.443  13.504  1.9493 -0.5811  0.3345
 2723TIP3    H229661   6.486   1.518  13.442 -0.0347  2.2864 -0.1493
 2724TIP3   OH229662   5.207   6.675  15.803  0.3776  0.1950 -0.2994
 2724TIP3    H129663   5.151   6.665  15.726  1.6538  1.7616 -1.5062
 2724TIP3    H229664   5.225   6.769  15.807  0.2284  0.1858  2.0322
 2725TIP3   OH229665   6.491   2.604   0.243  0.8845  0.2323  0.3022
 2725TIP3    H129666   6.532   2.539   0.300  2.1566  1.4526  0.8490
 2725TIP3    H229667   6.509   2.572   0.154  2.6090  0.4254  0.5294
 2726TIP3   OH229668   0.460   3.687   1.457 -0.2145 -0.3820  0.5518
 2726TIP3    H129669   0.375   3.662   1.491  0.3769 -1.2266  1.4841
 2726TIP3    H229670   0.503   3.732   1.529 -0.0528  0.5046 -0.0803
 2727TIP3   OH229671   4.142   2.312   0.459  0.1372 -0.2291  0.0961
 2727TIP3    H129672   4.053   2.342   0.477  0.8070  1.4026  0.8625
 2727TIP3    H229673   4.195   2.349   0.530  1.3559 -1.6291 -0.0324
 2728TIP3   OH229674   2.130   4.907  11.611  0.1937  0.3061 -0.2302
 2728TIP3    H129675   2.104   4.968  11.680 -0.0551 -1.2455  1.1078
 2728TIP3    H229676   2.083   4.937  11.533 -1.2236  0.8743  0.7908
 2729TIP3   OH229677   2.621   5.073  11.916 -0.3924  0.1995  0.7417
 2729TIP3    H129678   2.714   5.051  11.923 -0.4629 -0.2972  0.1996
 2729TIP3    H229679   2.611   5.152  11.969  0.2888  0.1142  1.0076
 2730TIP3   OH229680   2.976   3.356  16.111 -0.0053 -0.8319 -0.1333
 2730TIP3    H129681   3.063   3.338  16.146 -0.0778 -2.0547 -0.5219
 2730TIP3    H229682   2.936   3.269  16.102 -0.9436 -0.3475 -0.7567
 2731TIP3   OH229683   3.830   4.131   2.366  0.6116 -0.3891 -0.2451
 2731TIP3    H129684   3.899   4.083   2.412  3.3824  1.4785 -2.1317
 2731TIP3    H229685   3.871   4.160   2.285 -1.8501  2.4371 -0.6713
 2732TIP3   OH229686   1.469   6.321   4.068  0.2272 -0.3517 -0.1599
 2732TIP3    H129687   1.395   6.363   4.025  0.0552 -0.3387  0.1490
 2732TIP3    H229688   1.472   6.361   4.155 -0.1694 -1.2601  0.2770
 2733TIP3   OH229689   6.648   1.934   2.870  0.3131  0.0736 -0.8304
 2733TIP3    H129690   6.616   2.002   2.930  0.3726 -1.9516  1.6712
 2733TIP3    H229691   6.572   1.881   2.850  1.1090 -2.3755  1.8932
 2734TIP3   OH229692   0.685   2.911   3.868  0.0500 -0.3896 -0.3554
 2734TIP3    H129693   0.765   2.962   3.862 -0.9698  1.2363 -0.7303
 2734TIP3    H229694   0.675   2.890   3.961  0.1535  0.6499 -0.1086
 2735TIP3   OH229695   1.223   6.137  14.336  0.6617 -0.9357 -0.1572
 2735TIP3    H129696   1.145   6.182  14.305 -0.2348 -0.0976  2.9135
 2735TIP3    H229697   1.284   6.207  14.360  0.7681 -1.4203  1.0996
 2736TIP3   OH229698   1.174   1.869  16.958  0.2100 -0.2074  0.1576
 2736TIP3    H129699   1.106   1.813  16.996 -1.4805  1.2242 -0.5466
 2736TIP3    H229700   1.200   1.824  16.878 -2.2360  0.6041 -1.2175
 2737TIP3   OH229701   2.485   1.281  12.120 -0.3591  0.6779  0.0187
 2737TIP3    H129702   2.558   1.247  12.069  0.1135  0.4857  0.8123
 2737TIP3    H229703   2.432   1.329  12.057  0.4430  0.8113 -0.5623
 2738TIP3   OH229704   2.537   1.394  13.541  0.1570 -0.4274  0.8728
 2738TIP3    H129705   2.569   1.356  13.459  0.7982 -1.0313  1.3896
 2738TIP3    H229706   2.495   1.321  13.587 -3.6328  0.6460 -0.5115
 2739TIP3   OH229707   6.633   4.147  13.698 -0.2251 -0.2570  0.3654
 2739TIP3    H129708   6.647   4.190  13.614 -0.7101  2.6733  1.6545
 2739TIP3    H229709   6.587   4.066  13.677 -1.3794  0.9468 -2.1187
 2740TIP3   OH229710   4.085   2.374   1.485  0.3617 -0.6720  0.3972
 2740TIP3    H129711   4.057   2.414   1.403 -2.0660 -1.7850  0.5919
 2740TIP3    H229712   4.168   2.330   1.463  0.3159 -0.0470 -1.1557
 2741TIP3   OH229713   6.269   0.662  16.417 -0.0431  0.8981  0.4776
 2741TIP3    H129714   6.310   0.578  16.439 -1.3650 -0.0747 -0.6443
 2741TIP3    H229715   6.279   0.715  16.497 -1.5715 -1.2739  2.2433
 2742TIP3   OH229716   0.093   3.374   3.511  0.5018 -0.1354 -0.1668
 2742TIP3    H129717   0.176   3.408   3.543  0.5035 -1.8772  1.9031
 2742TIP3    H229718   0.029   3.443   3.532  1.1216  0.3913  0.0235
 2743TIP3   OH229719   1.432   5.820   5.478 -0.5651  0.3275  0.2509
 2743TIP3    H129720   1.417   5.781   5.392  1.0420  0.1425  0.0314
 2743TIP3    H229721   1.523   5.801   5.498 -1.0672 -0.1857  2.2889
 2744TIP3   OH229722   1.185   2.278  10.713  0.2984 -0.3040  0.1209
 2744TIP3    H129723   1.149   2.208  10.659 -0.7372 -0.7674  1.3333
 2744TIP3    H229724   1.245   2.325  10.656 -0.9233 -0.6111 -1.4924
 2745TIP3   OH229725   3.159   5.697  17.107 -0.9437  0.2554  0.2896
 2745TIP3    H129726   3.207   5.779  17.100 -0.6312  0.0969  0.5420
 2745TIP3    H229727   3.074   5.723  17.144 -0.2434  0.2812  2.0014
 2746TIP3   OH229728   0.347   1.855  15.412 -0.4086 -0.5767  0.0051
 2746TIP3    H129729   0.404   1.793  15.366 -0.3023 -0.6262  0.2050
 2746TIP3    H229730   0.309   1.804  15.483 -1.3525 -0.7855 -0.6133
 2747TIP3   OH229731   0.059   6.345  15.325 -0.0987  0.0964  0.0828
 2747TIP3    H129732  -0.008   6.380  15.266 -0.6471 -1.9353 -0.5841
 2747TIP3    H229733   0.097   6.422  15.367 -1.7999  1.4012 -0.6649
 2748TIP3   OH229734   6.268   5.202   2.490  0.5268  0.2347  0.0920
 2748TIP3    H129735   6.192   5.151   2.520  0.3934  0.6789  0.5162
 2748TIP3    H229736   6.233   5.258   2.421  0.7015 -0.3363 -0.4694
 2749TIP3   OH229737   5.711   3.444  14.174 -0.1624  0.0825 -0.3053
 2749TIP3    H129738   5.787   3.388  14.189  0.5304  0.7885 -1.0407
 2749TIP3    H229739   5.707   3.501  14.250  0.6260  0.6590 -0.6745
 2750TIP3   OH229740   3.012   4.918  11.682  0.2100 -0.4332 -0.1325
 2750TIP3    H129741   2.929   4.958  11.658 -0.0375 -1.1767 -0.5437
 2750TIP3    H229742   3.037   4.865  11.606 -1.2568 -3.9019  1.5626
 2751TIP3   OH229743   0.755   4.836  13.608  0.0691  0.1388  0.3265
 2751TIP3    H129744   0.685   4.815  13.546  0.0970 -0.4541  0.4916
 2751TIP3    H229745   0.833   4.849  13.553  0.0142 -0.0284  0.2092
 2752TIP3   OH229746   0.548   5.170   1.590  0.1188  0.0111  0.3077
 2752TIP3    H129747   0.471   5.134   1.635 -0.7263  0.2707 -0.8838
 2752TIP3    H229748   0.513   5.234   1.529  1.4650  1.6149  1.1293
 2753TIP3   OH229749   5.520   6.006  15.980 -0.1431 -0.3159  0.6552
 2753TIP3    H129750   5.450   5.949  16.012  0.9808 -1.6860  0.7784
 2753TIP3    H229751   5.547   6.055  16.058 -1.4710  0.8399  0.4375
 2754TIP3   OH229752   3.444   4.474  11.409  0.1710  0.1087 -0.1784
 2754TIP3    H129753   3.515   4.471  11.345  0.0678  1.4110 -0.3821
 2754TIP3    H229754   3.378   4.414  11.375 -0.2502  1.4104 -1.7854
 2755TIP3   OH229755   1.194   0.358  16.331  0.3797  0.1648  0.0297
 2755TIP3    H129756   1.116   0.390  16.376  0.4207  0.4991 -0.1317
 2755TIP3    H229757   1.186   0.263  16.334  0.5159  0.1798  0.9596
 2756TIP3   OH229758   2.964   3.994   4.021 -0.1310 -0.2111  0.1150
 2756TIP3    H129759   3.016   3.929   3.973 -0.2918  0.6217 -1.2305
 2756TIP3    H229760   2.968   3.965   4.112  0.3073 -1.7569 -0.3666
 2757TIP3   OH229761   1.832   4.195   2.827  1.1575 -0.5300  0.6497
 2757TIP3    H129762   1.890   4.164   2.757 -1.6267 -3.4107 -0.6326
 2757TIP3    H229763   1.856   4.142   2.903  1.5623 -0.1769  0.7783
 2758TIP3   OH229764   0.399   0.716   5.583  0.2283  0.1039  0.7398
 2758TIP3    H129765   0.335   0.685   5.647 -0.9198 -0.1015 -0.4536
 2758TIP3    H229766   0.463   0.645   5.579 -1.5889 -1.5901 -0.8753
 2759TIP3   OH229767   1.946   2.473  14.281  0.0558 -0.6336  0.1511
 2759TIP3    H129768   2.024   2.529  14.279 -0.4548  0.0905  0.1352
 2759TIP3    H229769   1.873   2.533  14.265 -0.6358 -1.0968  1.4824
 2760TIP3   OH229770   0.977   3.023  13.762 -0.0119 -0.1038 -0.2231
 2760TIP3    H129771   1.044   3.092  13.771 -0.0056  0.4303 -3.2541
 2760TIP3    H229772   0.894   3.070  13.769 -0.0490 -0.2302  0.2283
 2761TIP3   OH229773   5.060   6.119   0.495  0.4574 -0.1694 -0.4909
 2761TIP3    H129774   5.005   6.041   0.485  3.0384 -2.1102 -0.5423
 2761TIP3    H229775   5.044   6.170   0.415 -1.2922 -0.5934 -0.4503
 2762TIP3   OH229776   0.124   4.511  13.313 -0.6727 -0.2763 -0.6883
 2762TIP3    H129777   0.122   4.505  13.217 -1.4903  0.8949 -0.7682
 2762TIP3    H229778   0.182   4.586  13.330 -1.9222  0.6501 -0.3590
 2763TIP3   OH229779   0.517   5.693  11.390 -0.0124 -0.1674  0.6422
 2763TIP3    H129780   0.536   5.787  11.390 -0.2700 -0.1130  0.3408
 2763TIP3    H229781   0.600   5.652  11.413  0.4358  0.0800 -0.4544
 2764TIP3   OH229782   1.090   4.247  14.504  0.4124  0.2469 -0.2681
 2764TIP3    H129783   1.096   4.190  14.581  2.8573  0.3076 -0.3164
 2764TIP3    H229784   1.053   4.192  14.436  0.3424 -0.5132  0.3609
 2765TIP3   OH229785   0.764   4.592   2.867 -0.0202 -0.3927  0.4774
 2765TIP3    H129786   0.757   4.680   2.902  0.6354  0.0426 -0.4355
 2765TIP3    H229787   0.770   4.535   2.944 -0.8071  0.3162  1.0751
 2766TIP3   OH229788   2.449   5.115  14.454 -0.4015  0.0904  0.3057
 2766TIP3    H129789   2.442   5.105  14.359 -0.5290  0.1955  0.3042
 2766TIP3    H229790   2.445   5.209  14.469  1.5855  0.2195  0.2683
 2767TIP3   OH229791   2.097   4.919   3.136  0.0127  0.1053  0.1894
 2767TIP3    H129792   2.011   4.903   3.096 -1.2489  0.7104  2.4775
 2767TIP3    H229793   2.100   5.014   3.150  0.7217 -0.0113  0.8725
 2768TIP3   OH229794   1.877   6.247  12.820  1.6704  0.0787 -0.3311
 2768TIP3    H129795   1.821   6.224  12.746 -1.2082 -1.4407  2.0793
 2768TIP3    H229796   1.944   6.305  12.783 -0.2816  0.3709 -3.8410
 2769TIP3   OH229797   4.307   1.553   2.251  0.1881  0.2757 -0.2936
 2769TIP3    H129798   4.245   1.483   2.230 -0.2694  0.5683  0.0837
 2769TIP3    H229799   4.291   1.620   2.184 -0.5747  0.7674  0.3570
 2770TIP3   OH229800   5.428   6.748  15.537 -0.2773  0.0098 -1.0054
 2770TIP3    H129801   5.365   6.750  15.609  1.7902 -0.9554  0.9571
 2770TIP3    H229802   5.377   6.776  15.460 -2.4942  1.4741  0.8403
 2771TIP3   OH229803   4.407   3.806  16.019  0.4434 -0.2607  0.2282
 2771TIP3    H129804   4.447   3.772  15.939 -1.6314 -1.1917 -0.4857
 2771TIP3    H229805   4.313   3.804  16.001  0.0297  2.2819  1.6120
 2772TIP3   OH229806   2.735   1.171   2.504  0.0058 -1.0459  0.4926
 2772TIP3    H129807   2.658   1.227   2.516  0.4216 -0.4167  0.2551
 2772TIP3    H229808   2.710   1.088   2.545 -0.4403 -0.5395  1.2894
 2773TIP3   OH229809   6.213   4.365   0.213  0.1115  0.0438 -0.4417
 2773TIP3    H129810   6.150   4.436   0.206 -0.6572 -0.2673  2.4073
 2773TIP3    H229811   6.288   4.395   0.161  0.8670  4.1709  2.5614
 2774TIP3   OH229812   6.440   0.614  15.056  0.0761  0.0802  0.2478
 2774TIP3    H129813   6.522   0.572  15.031  0.1595  0.2340  0.2585
 2774TIP3    H229814   6.462   0.663  15.136  0.2217  0.9186 -0.2880
 2775TIP3   OH229815   5.867   4.443  17.129 -0.5772 -0.4536  0.2599
 2775TIP3    H129816   5.940   4.388  17.103  1.4728  1.5901  1.3311
 2775TIP3    H229817   5.799   4.382  17.159  1.4306 -2.3797  1.1168
 2776TIP3   OH229818   2.636   6.122  13.194  0.1460 -0.2896  0.0291
 2776TIP3    H129819   2.573   6.111  13.265 -0.2186 -0.5908 -0.3350
 2776TIP3    H229820   2.592   6.180  13.132  0.8314  0.7351  0.4759
 2777TIP3   OH229821   1.570   1.776  11.641  0.4302 -0.1144 -0.0601
 2777TIP3    H129822   1.592   1.867  11.625  1.1546 -0.4207 -0.8822
 2777TIP3    H229823   1.646   1.739  11.685  0.6013 -0.5815 -0.7226
 2778TIP3   OH229824   3.607   6.369   0.111 -0.0883  0.1838  0.9876
 2778TIP3    H129825   3.523   6.383   0.155  0.2922  0.1894  1.7412
 2778TIP3    H229826   3.663   6.331   0.179  0.0992 -1.1911  0.1040
 2779TIP3   OH229827   1.382   5.000  14.098  0.2777 -0.6539 -0.2194
 2779TIP3    H129828   1.429   5.063  14.152  1.1599 -2.4933  1.2897
 2779TIP3    H229829   1.291   5.005  14.128 -0.0392  0.9874 -1.2738
 2780TIP3   OH229830   2.000   1.958  16.288  0.6654  0.7103 -0.8049
 2780TIP3    H129831   1.921   2.002  16.255 -1.8119 -1.4922  1.6686
 2780TIP3    H229832   2.011   1.992  16.377 -1.1516 -3.0397  1.0782
 2781TIP3   OH229833   4.699   4.934  12.760  0.0580 -0.0689 -0.0513
 2781TIP3    H129834   4.625   4.979  12.719 -2.2452  0.3876  3.9926
 2781TIP3    H229835   4.776   4.984  12.731 -1.4815  1.2459 -2.2176
 2782TIP3   OH229836   1.381   5.272  12.937 -0.2238 -0.2070  0.3012
 2782TIP3    H129837   1.334   5.306  13.013  0.4934  0.5202  0.4399
 2782TIP3    H229838   1.339   5.316  12.863  1.4452  1.9928  0.5544
 2783TIP3   OH229839   3.703   6.024  15.757 -0.2582 -0.0223 -0.5436
 2783TIP3    H129840   3.670   6.018  15.846 -0.2332 -1.3403 -0.6032
 2783TIP3    H229841   3.687   5.938  15.719  3.4705 -0.9297 -0.4972
 2784TIP3   OH229842   2.082   5.058   2.127 -0.3047 -0.4370 -0.1674
 2784TIP3    H129843   2.142   5.030   2.058 -0.2935 -0.7561 -0.0310
 2784TIP3    H229844   2.135   5.116   2.182 -0.4419  0.1752 -0.6777
 2785TIP3   OH229845   3.320   0.259  13.974 -0.0957  0.1342 -0.4450
 2785TIP3    H129846   3.255   0.189  13.989 -0.3092 -0.1296 -2.4147
 2785TIP3    H229847   3.390   0.217  13.925  1.6873  0.4080  1.6942
 2786TIP3   OH229848   0.783   3.635  12.925  0.2391  0.4745 -0.3014
 2786TIP3    H129849   0.778   3.612  12.833  2.2293  0.7980 -0.5473
 2786TIP3    H229850   0.768   3.553  12.972 -2.1561  0.5514 -0.8166
 2787TIP3   OH229851   3.098   6.628  16.947  0.1060  0.2865 -0.2105
 2787TIP3    H129852   3.123   6.622  17.039  0.7877  0.7792 -0.3543
 2787TIP3    H229853   3.127   6.545  16.909 -0.0642  0.1339 -0.0063
 2788TIP3   OH229854   6.190   3.427   4.013  0.3146  0.0247  0.2960
 2788TIP3    H129855   6.180   3.359   4.080  0.0194  0.2144  0.4463
 2788TIP3    H229856   6.161   3.508   4.056  0.1650  0.1543 -0.0453
 2789TIP3   OH229857   6.175   1.136   6.236  0.3498 -0.1303  0.2643
 2789TIP3    H129858   6.214   1.161   6.320  1.0109  2.3438 -0.6922
 2789TIP3    H229859   6.102   1.196   6.225  0.4237 -0.2601 -1.0285
 2790TIP3   OH229860   6.375   3.543  12.383  0.2725 -0.5279 -0.1251
 2790TIP3    H129861   6.459   3.588  12.396  0.1611 -0.4992  0.5098
 2790TIP3    H229862   6.387   3.494  12.301  0.9285 -0.5685 -0.0129
 2791TIP3   OH229863   1.957   0.271  14.751  0.7590  0.0849  0.8478
 2791TIP3    H129864   1.992   0.355  14.780  0.1201  0.0052  1.9049
 2791TIP3    H229865   1.867   0.271  14.782 -0.1828  0.2372 -1.7237
 2792TIP3   OH229866   6.174   3.569  13.338 -0.0206 -0.5304 -0.2589
 2792TIP3    H129867   6.092   3.532  13.371 -0.8231  1.5956  0.2832
 2792TIP3    H229868   6.239   3.548  13.406 -1.0403  1.2720  1.3758
 2793TIP3   OH229869   5.815   1.900  12.220  0.5355 -0.2287 -0.1348
 2793TIP3    H129870   5.899   1.856  12.207  1.0212  0.6505 -0.0259
 2793TIP3    H229871   5.824   1.943  12.305  0.2344  0.4435 -0.4404
 2794TIP3   OH229872   6.454   5.982   2.901 -0.1096 -0.4844 -0.5015
 2794TIP3    H129873   6.393   5.945   2.837  0.5407 -2.6711  0.0404
 2794TIP3    H229874   6.538   5.942   2.879  0.7585  1.0201 -0.0769
 2795TIP3   OH229875   2.639   5.028  11.246 -0.3974 -0.1198 -0.2257
 2795TIP3    H129876   2.734   5.038  11.249 -0.3654 -0.6216  1.2881
 2795TIP3    H229877   2.623   4.963  11.178  0.4758 -1.2450  0.6211
 2796TIP3   OH229878   4.796   4.888  15.128  0.2126  0.5277 -0.6480
 2796TIP3    H129879   4.727   4.934  15.080 -0.5887  1.8985  1.6472
 2796TIP3    H229880   4.829   4.822  15.066 -1.5360  1.3769 -2.6043
 2797TIP3   OH229881   6.016   0.706  14.821 -0.1463 -0.0248  0.1208
 2797TIP3    H129882   6.044   0.615  14.834 -0.2970 -0.4462 -2.0408
 2797TIP3    H229883   6.092   0.758  14.843 -0.2526 -0.6020  2.0124
 2798TIP3   OH229884   5.114   1.627   3.290 -1.2961 -0.3305  0.5826
 2798TIP3    H129885   5.103   1.714   3.329 -0.5273  0.3213 -0.5845
 2798TIP3    H229886   5.026   1.589   3.293 -1.6156  0.4240  1.2646
 2799TIP3   OH229887   2.786   0.223  12.449 -0.9174  0.5864  0.0122
 2799TIP3    H129888   2.765   0.148  12.394 -1.1193  1.4031 -1.0523
 2799TIP3    H229889   2.723   0.218  12.521  0.5832 -1.5707  1.2727
 2800TIP3   OH229890   2.704   2.066   4.362 -0.4928  0.2772  0.0937
 2800TIP3    H129891   2.706   1.984   4.313  0.8934  0.5360 -0.3330
 2800TIP3    H229892   2.615   2.099   4.350 -0.2527  0.2664 -2.1829
 2801TIP3   OH229893   5.085   0.397  10.523  0.1038 -0.6276 -0.1478
 2801TIP3    H129894   5.004   0.357  10.492  0.1502 -0.7582 -0.1012
 2801TIP3    H229895   5.066   0.491  10.524  0.0080 -0.6447 -0.2929
 2802TIP3   OH229896   3.228   3.210  11.070 -0.3977 -0.0464  0.4456
 2802TIP3    H129897   3.291   3.281  11.083  0.9666 -0.8664 -1.1985
 2802TIP3    H229898   3.167   3.244  11.005 -0.4207  0.0270  0.5060
 2803TIP3   OH229899   3.122   2.274   4.885 -0.0121  0.0507 -0.4799
 2803TIP3    H129900   3.044   2.299   4.836 -0.4904  0.0050  0.2499
 2803TIP3    H229901   3.091   2.214   4.953  0.6328  0.1334 -0.0997
 2804TIP3   OH229902   4.935   4.539   1.406 -0.0985  0.6970  0.2077
 2804TIP3    H129903   4.959   4.601   1.337 -1.6173 -1.8028 -2.8002
 2804TIP3    H229904   4.980   4.458   1.382 -1.4005 -0.5152  1.6769
 2805TIP3   OH229905   2.887   2.048   1.743 -0.1971  0.1870 -0.1172
 2805TIP3    H129906   2.967   2.013   1.704  0.5810  2.1837 -0.4208
 2805TIP3    H229907   2.836   1.971   1.766  1.1315 -1.1173 -1.3280
 2806TIP3   OH229908   5.711   4.387   0.638  0.6213 -0.4700  0.7471
 2806TIP3    H129909   5.803   4.367   0.657  1.1592  0.7429 -0.4126
 2806TIP3    H229910   5.704   4.381   0.543  0.0894  1.6788  0.6029
 2807TIP3   OH229911   6.605   4.917  11.783  0.1041 -0.3137  0.0657
 2807TIP3    H129912   6.575   4.946  11.697  1.7173 -0.2557 -0.5142
 2807TIP3    H229913   6.631   4.997  11.828 -0.4495 -0.3761  0.5166
 2808TIP3   OH229914   6.112   2.241   2.044  0.0926  0.7274 -0.6192
 2808TIP3    H129915   6.042   2.214   1.985 -1.5334 -0.6214  1.7513
 2808TIP3    H229916   6.192   2.206   2.004 -1.1460 -1.6955 -1.1607
 2809TIP3   OH229917   1.594   4.532   0.845  0.5328 -0.2668  0.5294
 2809TIP3    H129918   1.639   4.616   0.856 -2.0096  1.6469 -2.0873
 2809TIP3    H229919   1.521   4.536   0.907  0.2948 -0.4364  0.2596
 2810TIP3   OH229920   5.624   3.423  11.539  0.6318  0.2475  0.4409
 2810TIP3    H129921   5.649   3.336  11.507  1.9376  0.8266 -0.1874
 2810TIP3    H229922   5.703   3.457  11.581 -0.0119  0.9447  1.1330
 2811TIP3   OH229923   3.765   0.181   0.917 -0.3669 -0.2253  0.0168
 2811TIP3    H129924   3.703   0.152   0.850 -0.2086  1.1419 -0.7567
 2811TIP3    H229925   3.737   0.270   0.939 -0.4727 -0.6827  1.8639
 2812TIP3   OH229926   2.612   2.809  16.908  0.5501 -0.0658 -0.3434
 2812TIP3    H129927   2.554   2.884  16.896  0.6226  0.0304 -0.1006
 2812TIP3    H229928   2.699   2.843  16.887  1.1790  0.9716  3.2841
 2813TIP3   OH229929   4.191   3.965  12.937 -0.5329  0.1728 -0.0873
 2813TIP3    H129930   4.156   3.897  12.879 -1.7299 -1.2126  2.0918
 2813TIP3    H229931   4.286   3.955  12.932 -0.6569 -0.8338 -0.7620
 2814TIP3   OH229932   0.077   0.426   3.387  0.1204  1.0696  0.1399
 2814TIP3    H129933  -0.015   0.421   3.360  0.7787 -2.2616 -2.1733
 2814TIP3    H229934   0.080   0.380   3.471 -0.2526  0.6216 -0.0879
 2815TIP3   OH229935   2.155   6.056   4.978 -0.4901 -0.5407 -0.2265
 2815TIP3    H129936   2.105   6.132   4.949  1.8196  0.7820 -0.9656
 2815TIP3    H229937   2.189   6.081   5.064 -2.3335 -2.0815  1.0479
 2816TIP3   OH229938   1.734   4.313   5.120  0.2569 -0.1668 -0.0129
 2816TIP3    H129939   1.705   4.222   5.120 -0.9191  0.1981  0.1492
 2816TIP3    H229940   1.654   4.365   5.130  1.1161  0.8156  2.6738
 2817TIP3   OH229941   0.657   0.137  15.668 -0.2147 -0.1294  0.0235
 2817TIP3    H129942   0.639   0.231  15.675  0.8769  0.1118 -0.2060
 2817TIP3    H229943   0.722   0.120  15.735  2.5019  0.1113 -2.3334
 2818TIP3   OH229944   5.668   3.068  16.787  0.3895 -0.1076 -0.1038
 2818TIP3    H129945   5.605   3.090  16.856 -0.5418  0.4640 -1.1011
 2818TIP3    H229946   5.639   3.119  16.711  0.1151 -2.2463 -1.5459
 2819TIP3   OH229947   2.682   0.272   4.215  0.1041 -0.1100 -0.3444
 2819TIP3    H129948   2.709   0.180   4.217 -2.0050 -0.8194 -1.2546
 2819TIP3    H229949   2.710   0.304   4.129  0.6721  0.0674 -0.1003
 2820TIP3   OH229950   1.947   3.238   3.640 -0.2540  0.2362  0.0267
 2820TIP3    H129951   1.923   3.322   3.679  1.5444  0.2568  1.2449
 2820TIP3    H229952   1.954   3.178   3.714 -1.3175 -0.9555 -0.8113
 2821TIP3   OH229953   0.392   5.149   4.066  0.3588  0.7170 -0.3829
 2821TIP3    H129954   0.462   5.085   4.079  0.6278  1.6397  4.3333
 2821TIP3    H229955   0.438   5.229   4.038  0.9757  0.7130  0.5592
 2822TIP3   OH229956   6.065   5.441   6.261 -0.4444  0.0091  0.3632
 2822TIP3    H129957   6.018   5.372   6.214  1.1176 -1.1006  0.3890
 2822TIP3    H229958   6.112   5.395   6.330 -0.8565  1.3456  1.5924
 2823TIP3   OH229959   1.059   2.244   0.985  0.0040  0.1828  0.0517
 2823TIP3    H129960   1.029   2.195   0.909 -0.5738 -0.5062  0.7096
 2823TIP3    H229961   0.991   2.310   0.998  2.3038  3.5174 -2.8381
 2824TIP3   OH229962   0.490   1.237  12.238 -0.6384  0.0008 -0.0579
 2824TIP3    H129963   0.560   1.277  12.186 -0.4297  0.1595  0.3412
 2824TIP3    H229964   0.520   1.245  12.329  0.7011 -3.4875 -0.0518
 2825TIP3   OH229965   4.542   6.703  13.663  0.2454  0.3996 -0.3282
 2825TIP3    H129966   4.585   6.781  13.629 -0.0697  0.5381 -0.4187
 2825TIP3    H229967   4.613   6.643  13.684  0.6266  1.5354  1.8817
 2826TIP3   OH229968   1.076   5.956  11.313 -0.1673  0.0923  0.1858
 2826TIP3    H129969   1.060   5.995  11.227 -0.7465 -0.3747  0.0733
 2826TIP3    H229970   1.171   5.954  11.321 -0.0577 -1.1401 -1.0621
 2827TIP3   OH229971   2.128   4.717   5.614  0.2402  0.0828 -0.0116
 2827TIP3    H129972   2.114   4.655   5.543  0.4746 -0.0215  0.0311
 2827TIP3    H229973   2.201   4.771   5.584 -1.0337  1.4286 -0.7796
 2828TIP3   OH229974   0.170   1.794  14.874 -0.2638 -0.2165 -0.1587
 2828TIP3    H129975   0.236   1.836  14.929 -0.2991 -0.5378  0.1260
 2828TIP3    H229976   0.111   1.751  14.935 -0.3071 -0.5700 -0.4457
 2829TIP3   OH229977   2.405   1.303   0.269 -0.1391  0.2057  0.4553
 2829TIP3    H129978   2.354   1.223   0.285 -0.0793 -0.0334 -0.4753
 2829TIP3    H229979   2.340   1.371   0.258 -0.2935 -0.0981 -0.7201
 2830TIP3   OH229980   3.935   0.647   4.062 -0.5347 -0.2027  0.2258
 2830TIP3    H129981   3.874   0.587   4.019 -1.9757 -0.2418  2.2080
 2830TIP3    H229982   3.897   0.662   4.149  1.5239  0.9565  0.9919
 2831TIP3   OH229983   0.426   4.080  12.744  0.0594  0.0533  0.3003
 2831TIP3    H129984   0.436   4.165  12.701 -0.9609  0.2668  0.4622
 2831TIP3    H229985   0.350   4.041  12.703  0.1023 -0.4850  0.7185
 2832TIP3   OH229986   4.251   5.649   5.339  1.0246 -0.3221  0.1215
 2832TIP3    H129987   4.276   5.598   5.262 -0.7276 -0.3797 -0.4607
 2832TIP3    H229988   4.217   5.584   5.400 -0.1732 -0.0263 -0.1851
 2833TIP3   OH229989   4.150   1.323   2.140  0.2127  0.1206 -0.5479
 2833TIP3    H129990   4.095   1.320   2.219 -1.2963 -1.3625 -1.5949
 2833TIP3    H229991   4.166   1.231   2.119  0.0898  0.4815 -2.3100
 2834TIP3   OH229992   0.315   5.474  12.885 -0.4343 -0.8759  0.3305
 2834TIP3    H129993   0.401   5.433  12.886  0.0824  0.1900  0.7127
 2834TIP3    H229994   0.261   5.417  12.941 -0.1844 -1.9197 -0.4489
 2835TIP3   OH229995   2.220   1.208   3.096 -0.4501 -0.9132  0.3501
 2835TIP3    H129996   2.312   1.208   3.069 -0.5507 -2.5818 -0.0933
 2835TIP3    H229997   2.172   1.219   3.014 -0.6635 -1.0517  0.4567
 2836TIP3   OH229998   0.483   0.546  16.719 -0.5855 -0.0742  0.7632
 2836TIP3    H129999   0.437   0.624  16.687 -0.2155  0.2509  1.0155
 2836TIP3    H230000   0.538   0.578  16.791 -1.3949 -0.7913  1.7349
 2837TIP3   OH230001   0.226   4.066  16.557  0.0366  0.2076  0.0139
 2837TIP3    H130002   0.243   3.998  16.492 -3.2864 -0.2726 -0.5691
 2837TIP3    H230003   0.209   4.145  16.506  0.2402  0.5461  0.4604
 2838TIP3   OH230004   1.115   6.364  17.215 -0.1833 -0.4275  0.2613
 2838TIP3    H130005   1.041   6.380  17.157  0.9027 -1.4990 -1.4976
 2838TIP3    H230006   1.189   6.405  17.171  0.4752 -0.3217  1.4430
 2839TIP3   OH230007   4.374   6.156  10.795  0.5948  0.3887 -0.6080
 2839TIP3    H130008   4.444   6.119  10.741  0.0732  1.3096 -1.9781
 2839TIP3    H230009   4.359   6.244  10.759 -0.4998  0.6416  0.3749
 2840TIP3   OH230010   1.973   4.484   5.146  0.6473 -0.0522 -0.4536
 2840TIP3    H130011   1.892   4.438   5.122  0.0765  1.1781 -0.9661
 2840TIP3    H230012   2.021   4.421   5.200 -0.4808 -0.9424 -0.4506
 2841TIP3   OH230013   1.997   5.500  15.496  0.0523  0.0337 -0.4303
 2841TIP3    H130014   1.970   5.504  15.404  0.3245 -1.7611 -0.6202
 2841TIP3    H230015   2.035   5.413  15.507  0.1725  0.2612  1.3532
 2842TIP3   OH230016   2.630   0.144   2.204 -0.1784  0.0153  0.5119
 2842TIP3    H130017   2.595   0.165   2.118  0.1854  1.0639  0.6068
 2842TIP3    H230018   2.591   0.059   2.226 -0.0285 -0.4240 -0.8108
 2843TIP3   OH230019   0.468   5.477   3.207 -0.3712  0.1474  0.1251
 2843TIP3    H130020   0.555   5.491   3.245  0.0673 -1.2983 -0.2784
 2843TIP3    H230021   0.465   5.537   3.132  0.4732 -0.1007 -0.1251
 2844TIP3   OH230022   6.067   1.820  12.144 -0.4941 -0.1179 -0.0284
 2844TIP3    H130023   6.064   1.876  12.066 -0.2982 -0.9318 -0.6314
 2844TIP3    H230024   6.144   1.851  12.192  1.6460 -1.9798 -2.0154
 2845TIP3   OH230025   2.199   6.727   5.244  0.2844  0.4786 -0.0028
 2845TIP3    H130026   2.239   6.807   5.211  1.0549 -0.3811 -1.2569
 2845TIP3    H230027   2.191   6.670   5.167 -1.9009 -0.0138  0.4930
 2846TIP3   OH230028   2.267   2.385   5.417  0.1847  0.1228  0.3430
 2846TIP3    H130029   2.235   2.345   5.336 -1.6429 -1.2791  1.6764
 2846TIP3    H230030   2.218   2.468   5.423  0.3447  0.2443  0.0177
 2847TIP3   OH230031   2.017   3.676  16.890 -0.0543  0.6395  0.4201
 2847TIP3    H130032   2.089   3.736  16.872 -0.3595  1.4481  1.7671
 2847TIP3    H230033   1.947   3.732  16.925 -0.7592 -0.3523  0.6403
 2848TIP3   OH230034   3.041   1.241   3.023 -0.3043 -0.1400  0.4334
 2848TIP3    H130035   3.109   1.205   3.080 -1.5736 -0.7161  1.6192
 2848TIP3    H230036   3.028   1.330   3.055  0.4674  0.2747 -0.3522
 2849TIP3   OH230037   2.991   0.946   3.040 -0.3053 -0.6717  0.4474
 2849TIP3    H130038   2.998   0.851   3.036 -0.4791 -0.7428  1.5116
 2849TIP3    H230039   3.033   0.970   3.124  0.5546  0.2705 -0.2150
 2850TIP3   OH230040   4.961   3.952  12.059  0.1194  0.6320 -0.5025
 2850TIP3    H130041   5.053   3.945  12.035  0.0965  3.3684 -1.8039
 2850TIP3    H230042   4.913   3.926  11.980 -0.1592  1.0303 -0.4691
 2851TIP3   OH230043   3.866   5.062  10.331 -0.0730  0.3466 -0.8975
 2851TIP3    H130044   3.858   5.071  10.426  2.3463 -0.8272 -0.5074
 2851TIP3    H230045   3.776   5.069  10.299 -1.4632 -2.4703  1.7743
 2852TIP3   OH230046   0.403   5.373  16.401 -0.1666  0.0082  0.0073
 2852TIP3    H130047   0.324   5.401  16.354  0.7558  1.2003 -0.8958
 2852TIP3    H230048   0.407   5.279  16.387 -2.0733 -0.2908  1.1109
 2853TIP3   OH230049   4.713   4.746  17.213  0.3352 -0.7719 -0.0769
 2853TIP3    H130050   4.704   4.651  17.214  0.0252 -0.8258 -2.6123
 2853TIP3    H230051   4.802   4.762  17.182  0.6500 -0.1948  1.0532
 2854TIP3   OH230052   5.337   0.327   4.600  0.2513  0.0548 -0.2635
 2854TIP3    H130053   5.318   0.353   4.690  0.7964  0.2428 -0.1958
 2854TIP3    H230054   5.310   0.235   4.596  1.7302 -0.4689  0.5884
 2855TIP3   OH230055   5.141   6.079   4.267  0.3418  0.0750 -0.1204
 2855TIP3    H130056   5.115   5.988   4.257  1.9832 -0.4567  0.0886
 2855TIP3    H230057   5.138   6.095   4.362  1.2109 -0.1626 -0.0377
 2856TIP3   OH230058   5.060   4.381   1.787  0.4559  0.6515 -0.1022
 2856TIP3    H130059   4.982   4.327   1.772  0.1412  1.0309  0.1803
 2856TIP3    H230060   5.106   4.337   1.858 -0.0041  0.9707  0.3987
 2857TIP3   OH230061   2.873   5.337   3.269  0.3605 -0.0197  0.2900
 2857TIP3    H130062   2.849   5.310   3.180  0.4273 -0.6990  0.4750
 2857TIP3    H230063   2.937   5.408   3.256 -0.7545  0.9256 -0.1984
 2858TIP3   OH230064   4.977   6.496   2.682  0.0691  0.3347 -0.4341
 2858TIP3    H130065   4.914   6.435   2.645  2.2952 -1.2400 -1.9270
 2858TIP3    H230066   5.035   6.442   2.735  1.6750  1.2227 -1.1849
 2859TIP3   OH230067   0.096   1.541  11.792 -0.3166 -0.1940  0.1864
 2859TIP3    H130068   0.151   1.508  11.863 -1.3916  1.0129  1.6657
 2859TIP3    H230069   0.152   1.601  11.743  0.0995 -0.0872  0.7873
 2860TIP3   OH230070   0.391   5.514   1.977  0.3487  0.3270  0.0157
 2860TIP3    H130071   0.417   5.546   1.891  1.2119 -1.2049 -0.3223
 2860TIP3    H230072   0.329   5.444   1.959  1.0250 -0.4406  0.5995
 2861TIP3   OH230073   5.271   1.368   3.040  0.0555 -0.5830 -0.1155
 2861TIP3    H130074   5.275   1.458   3.072  0.0168 -0.8606  0.6739
 2861TIP3    H230075   5.204   1.370   2.972 -0.3593 -0.1414  0.3036
 2862TIP3   OH230076   0.180   0.821  15.929 -0.8658 -0.2985  0.4552
 2862TIP3    H130077   0.196   0.812  15.835 -0.8945 -0.5320  0.4708
 2862TIP3    H230078   0.179   0.731  15.962  1.4783 -0.1460  1.0938
 2863TIP3   OH230079   0.048   6.809   5.786  0.3214  0.2616 -0.0371
 2863TIP3    H130080  -0.021   6.832   5.724  0.9907  0.7178 -0.6369
 2863TIP3    H230081   0.052   6.883   5.847  0.6637  0.5030 -0.3494
 2864TIP3   OH230082   6.128   2.838  13.300 -0.4334 -0.8618  0.0153
 2864TIP3    H130083   6.185   2.893  13.354 -0.8859 -1.9370  1.6707
 2864TIP3    H230084   6.040   2.851  13.337 -1.1141 -0.0732 -1.7945
 2865TIP3   OH230085   0.505   4.950   2.101 -0.4413 -0.8917  1.0067
 2865TIP3    H130086   0.546   5.036   2.093 -1.5281 -0.4542 -0.2486
 2865TIP3    H230087   0.474   4.930   2.012 -2.8082 -1.2397  1.8441
 2866TIP3   OH230088   6.440   3.784   2.873  0.0366  0.4201 -0.1268
 2866TIP3    H130089   6.444   3.878   2.852 -1.3305  0.9203  1.6091
 2866TIP3    H230090   6.353   3.757   2.842  0.3656 -0.2530 -0.4828
 2867TIP3   OH230091   4.502   5.543   4.462 -0.1505  0.3023 -0.0840
 2867TIP3    H130092   4.531   5.455   4.436  1.0487  0.8928 -0.8124
 2867TIP3    H230093   4.406   5.538   4.459 -0.1042 -0.4293 -2.1297
 2868TIP3   OH230094   2.255   1.660  14.208 -0.1342  0.0629  0.1932
 2868TIP3    H130095   2.161   1.681  14.214 -0.2647 -0.8834  2.3185
 2868TIP3    H230096   2.260   1.600  14.133 -0.8572  1.6723 -1.2401
 2869TIP3   OH230097   1.073   0.196   4.143 -0.0135 -0.2630  0.2104
 2869TIP3    H130098   0.988   0.166   4.111  0.3784 -0.5651 -0.5692
 2869TIP3    H230099   1.124   0.213   4.064 -0.0757  2.1369  0.6008
 2870TIP3   OH230100   0.397   0.021   4.514  0.1659  0.5641 -0.0520
 2870TIP3    H130101   0.416   0.104   4.556  0.7596 -0.4527  1.8097
 2870TIP3    H230102   0.308   0.031   4.479  0.1356  1.8867  0.3621
 2871TIP3   OH230103   0.275   4.506   5.537 -0.3109  0.3819 -0.5529
 2871TIP3    H130104   0.313   4.425   5.570 -1.5153  0.4613  1.1534
 2871TIP3    H230105   0.300   4.572   5.602 -1.5162  0.8507 -0.5355
 2872TIP3   OH230106   1.539   5.822   4.184 -0.0792  0.5208  0.0048
 2872TIP3    H130107   1.581   5.752   4.134  1.2988  1.4095 -0.1392
 2872TIP3    H230108   1.503   5.778   4.261 -1.5605 -0.7465 -1.3388
 2873TIP3   OH230109   3.469   2.852  17.195  0.8252  0.2195  0.1283
 2873TIP3    H130110   3.500   2.762  17.206 -0.1424 -0.3451 -1.4487
 2873TIP3    H230111   3.491   2.894  17.278  0.5502 -1.6850  1.2427
 2874TIP3   OH230112   4.245   1.093   2.056  0.1160 -0.2130 -0.7324
 2874TIP3    H130113   4.206   1.093   1.969  1.1690 -2.7231 -1.3001
 2874TIP3    H230114   4.254   1.000   2.078  1.9222  0.3270  1.1109
 2875TIP3   OH230115   3.908   5.573  11.325  0.2187 -0.2984  0.2190
 2875TIP3    H130116   3.829   5.617  11.354  0.0512 -0.7640  0.4735
 2875TIP3    H230117   3.885   5.480  11.322  0.7840 -0.4497  0.3874
 2876TIP3   OH230118   0.321   2.425   5.270 -0.1606 -0.0137  0.5499
 2876TIP3    H130119   0.296   2.431   5.362  0.5597  1.3844  0.6778
 2876TIP3    H230120   0.248   2.465   5.223 -0.5506 -0.7709  0.4848
 2877TIP3   OH230121   2.739   3.631   0.964 -0.0701 -0.2715  1.3662
 2877TIP3    H130122   2.730   3.674   1.050 -0.8870  0.8135  0.7676
 2877TIP3    H230123   2.650   3.607   0.940  0.1237 -0.3388  0.7018
 2878TIP3   OH230124   6.237   4.468   1.173  0.2530  0.1819 -0.2172
 2878TIP3    H130125   6.191   4.499   1.095 -1.2364  1.5842  1.1429
 2878TIP3    H230126   6.265   4.548   1.217 -0.0087 -0.5337  1.2959
 2879TIP3   OH230127   4.592   0.505  13.138  0.4005  0.0522 -0.3289
 2879TIP3    H130128   4.552   0.564  13.074 -0.3538  0.5036  0.5327
 2879TIP3    H230129   4.652   0.451  13.087 -1.2717 -0.6211 -1.6862
 2880TIP3   OH230130   4.351   6.055   3.678  0.6549 -0.4267  0.5415
 2880TIP3    H130131   4.365   5.999   3.754  0.0521 -1.3706 -0.0298
 2880TIP3    H230132   4.322   6.139   3.716 -0.5672 -1.1603  1.3397
 2881TIP3   OH230133   6.594   6.341   3.135  0.4467  0.4552  0.1354
 2881TIP3    H130134   6.507   6.303   3.127  0.9048 -0.5029 -0.5215
 2881TIP3    H230135   6.617   6.329   3.227 -0.5157  1.6551  0.5503
 2882TIP3   OH230136   6.564   4.672   2.927  0.2136 -0.4663  0.0142
 2882TIP3    H130137   6.572   4.613   3.001  1.1817  0.6332  0.8343
 2882TIP3    H230138   6.583   4.617   2.850  1.3436 -1.1796  0.7695
 2883TIP3   OH230139   0.744   0.166   1.432  0.1462  0.3041 -0.3250
 2883TIP3    H130140   0.740   0.076   1.465 -0.5457 -0.3526 -2.0620
 2883TIP3    H230141   0.764   0.219   1.509  1.4110 -1.4049  0.5977
 2884TIP3   OH230142   1.977   1.626  14.291 -0.3495  0.1264  0.5792
 2884TIP3    H130143   1.917   1.630  14.217 -1.3626 -0.8554  1.3230
 2884TIP3    H230144   1.922   1.645  14.367  0.4512  0.0341  1.1903
 2885TIP3   OH230145   1.827   4.122  12.154  0.3983 -0.3025  0.1630
 2885TIP3    H130146   1.881   4.163  12.086 -1.1592  0.5618 -0.6010
 2885TIP3    H230147   1.823   4.187  12.224  1.9860 -1.1847  1.1354
 2886TIP3   OH230148   2.597   3.412  11.689  0.0929 -0.1040 -0.1878
 2886TIP3    H130149   2.526   3.372  11.740 -1.1803 -0.1200 -1.8722
 2886TIP3    H230150   2.657   3.340  11.670  0.5314 -0.1192  1.1325
 2887TIP3   OH230151   5.012   0.980  12.535 -0.0910 -0.1504 -0.1927
 2887TIP3    H130152   5.016   0.888  12.561 -0.3997  0.4556  2.2097
 2887TIP3    H230153   5.067   0.985  12.456  2.1378 -1.9319  1.1069
 2888TIP3   OH230154   2.787   1.623   3.603 -0.0703 -0.3198  0.0197
 2888TIP3    H130155   2.813   1.565   3.675  1.5092 -1.4364 -1.3791
 2888TIP3    H230156   2.776   1.564   3.528 -0.3148  0.9804 -0.9901
 2889TIP3   OH230157   1.519   0.536   4.941 -0.7081  0.2898 -0.1982
 2889TIP3    H130158   1.569   0.468   4.897 -0.2155  0.5408 -0.0290
 2889TIP3    H230159   1.430   0.500   4.946 -0.6137 -0.0354 -0.7519
 2890TIP3   OH230160   2.854   6.016   2.537 -0.4351 -0.3242 -0.3809
 2890TIP3    H130161   2.929   6.074   2.519 -0.1168 -0.8552 -0.8209
 2890TIP3    H230162   2.781   6.076   2.551  0.0428  0.2033 -0.0845
 2891TIP3   OH230163   3.744   4.639  13.401  0.2245 -0.2945  0.3550
 2891TIP3    H130164   3.780   4.668  13.318 -1.2370  1.6811  0.3574
 2891TIP3    H230165   3.733   4.718  13.453 -2.8109 -0.8829  0.8317
 2892TIP3   OH230166   0.108   1.102  12.780 -0.5846  0.0585  0.1179
 2892TIP3    H130167   0.075   1.092  12.691 -0.7471 -0.8764  0.2739
 2892TIP3    H230168   0.115   1.012  12.813 -1.6650  0.4396  1.4583
 2893TIP3   OH230169   6.006   2.712   3.040  0.5229 -0.1225  0.7654
 2893TIP3    H130170   6.069   2.651   3.002 -0.5246 -0.4282 -0.5680
 2893TIP3    H230171   5.995   2.779   2.973 -0.6948 -0.1737  0.8961
 2894TIP3   OH230172   1.869   2.220  14.890 -0.1784  0.5652  0.2054
 2894TIP3    H130173   1.918   2.262  14.961  0.4447  0.8231 -0.3608
 2894TIP3    H230174   1.915   2.248  14.811  1.0405 -2.1782 -0.1489
 2895TIP3   OH230175   2.987   3.927  11.024  0.9274  0.2394  0.1469
 2895TIP3    H130176   3.049   3.998  11.040  0.9276  0.7839 -1.9282
 2895TIP3    H230177   3.024   3.879  10.950 -0.9753  0.4752 -1.0339
 2896TIP3   OH230178   0.648   1.542   4.676  0.5879  0.1655 -0.1701
 2896TIP3    H130179   0.682   1.581   4.595  1.1825 -0.2318 -0.1190
 2896TIP3    H230180   0.714   1.478   4.701  0.1709 -0.0604  0.3705
 2897TIP3   OH230181   5.192   4.816  17.164 -0.0688 -0.3002  0.0371
 2897TIP3    H130182   5.244   4.759  17.107  0.1036  0.6471 -0.7745
 2897TIP3    H230183   5.257   4.857  17.221  0.0735  0.6887 -0.8053
 2898TIP3   OH230184   5.060   6.513  16.587  0.2182  0.3513 -0.0503
 2898TIP3    H130185   4.966   6.507  16.567  0.3765 -1.3537 -0.4978
 2898TIP3    H230186   5.096   6.565  16.516  0.0568 -1.7743 -1.8235
 2899TIP3   OH230187   3.820   3.796  15.023 -0.0452 -0.3331  0.5384
 2899TIP3    H130188   3.909   3.802  14.989 -0.5590  1.3654 -0.6548
 2899TIP3    H230189   3.828   3.810  15.117  1.1441 -2.5099  0.8317
 2900TIP3   OH230190   0.255   1.728   0.466  0.0712 -0.3937 -0.4311
 2900TIP3    H130191   0.192   1.795   0.440  0.3862 -0.5703 -1.7048
 2900TIP3    H230192   0.296   1.763   0.545 -0.8385  0.2237 -0.2188
 2901TIP3   OH230193   2.470   4.848  11.828  0.0349 -0.0508  0.5923
 2901TIP3    H130194   2.516   4.931  11.835 -1.9485  1.2877 -1.0585
 2901TIP3    H230195   2.399   4.854  11.892 -0.1511 -0.4314  0.4260
 2902TIP3   OH230196   3.791   3.880  15.864 -0.2453  0.0168 -0.1129
 2902TIP3    H130197   3.810   3.942  15.934 -0.2142 -0.4547  0.3054
 2902TIP3    H230198   3.856   3.810  15.876 -2.5760 -1.9994  1.7887
 2903TIP3   OH230199   2.829   4.853  15.650  0.1870  0.1990  0.1597
 2903TIP3    H130200   2.834   4.896  15.735 -1.8613  1.4870 -0.3011
 2903TIP3    H230201   2.869   4.767  15.664 -0.0990  0.3767  2.4153
 2904TIP3   OH230202   1.061   6.037  11.846  0.1257  0.1716 -0.0817
 2904TIP3    H130203   1.137   6.073  11.800 -0.9067  2.3059 -0.2829
 2904TIP3    H230204   1.023   5.974  11.784  1.4832 -0.6386 -0.1273
 2905TIP3   OH230205   4.622   0.749   3.101 -0.3024 -0.5496 -0.4758
 2905TIP3    H130206   4.623   0.742   3.005  1.8165 -0.8037 -0.4875
 2905TIP3    H230207   4.713   0.736   3.126 -0.7060  0.2379  1.5455
 2906TIP3   OH230208   2.907   6.591   3.691 -0.0552  0.4775  0.0981
 2906TIP3    H130209   2.848   6.664   3.709 -1.1698 -0.1274 -0.9753
 2906TIP3    H230210   2.853   6.527   3.644  0.7868 -1.2008  1.3043
 2907TIP3   OH230211   5.204   2.292  16.712 -0.1688  0.2912  0.4264
 2907TIP3    H130212   5.267   2.361  16.733 -1.5008  1.7892 -0.3545
 2907TIP3    H230213   5.199   2.292  16.617 -0.8968 -0.2275  0.4568
 2908TIP3   OH230214   0.745   2.128  13.579 -0.3388 -0.1596 -0.3824
 2908TIP3    H130215   0.694   2.208  13.586  0.1798  0.1129  0.5159
 2908TIP3    H230216   0.684   2.063  13.544 -0.4326  0.9043 -2.3238
 2909TIP3   OH230217   5.492   3.912   3.192 -0.1162  0.1966 -0.2275
 2909TIP3    H130218   5.524   3.822   3.195  0.8040  0.5353  1.3046
 2909TIP3    H230219   5.571   3.965   3.181 -0.5455  0.8575 -0.1895
 2910TIP3   OH230220   2.869   0.497  12.519 -0.2908 -0.4440 -0.4124
 2910TIP3    H130221   2.869   0.407  12.553  2.7505 -0.4531 -0.1196
 2910TIP3    H230222   2.920   0.492  12.438 -2.2944  0.6370 -1.8344
 2911TIP3   OH230223   6.399   3.607  16.960  0.5036 -0.2604 -0.3004
 2911TIP3    H130224   6.339   3.536  16.939  2.5218 -1.6780 -1.6145
 2911TIP3    H230225   6.359   3.685  16.921 -0.3867 -1.1831 -1.2837
 2912TIP3   OH230226   1.018   1.252  16.162  0.1358  0.4484 -0.0566
 2912TIP3    H130227   1.085   1.222  16.100  0.2823 -1.5263  0.9910
 2912TIP3    H230228   0.938   1.256  16.110  0.4008 -0.4770 -0.5602
 2913TIP3   OH230229   4.380   6.234   0.596  0.1986 -0.5208  0.3981
 2913TIP3    H130230   4.391   6.285   0.516 -3.5060  0.3197  0.2164
 2913TIP3    H230231   4.383   6.299   0.666 -0.7916 -0.5782  0.5105
 2914TIP3   OH230232   4.593   0.637  13.738 -0.0515 -0.0966 -0.2658
 2914TIP3    H130233   4.560   0.691  13.810 -1.8374  0.3527 -1.3649
 2914TIP3    H230234   4.606   0.699  13.666  1.8421 -0.5142 -0.3333
 2915TIP3   OH230235   1.589   4.797   6.112 -0.6269 -0.3549  0.7974
 2915TIP3    H130236   1.577   4.887   6.143 -1.5659 -0.1403 -0.1060
 2915TIP3    H230237   1.638   4.754   6.181  1.0631  1.2084  0.6585
 2916TIP3   OH230238   3.929   6.615  12.138  0.1265  0.0131  0.7324
 2916TIP3    H130239   3.950   6.644  12.049 -2.3236 -0.4320 -0.0633
 2916TIP3    H230240   3.857   6.554  12.127  1.8911 -2.6724  2.8045
 2917TIP3   OH230241   0.966   5.964   2.004  0.2806  0.4775  0.0878
 2917TIP3    H130242   0.936   5.935   1.917  0.0762  2.6591 -0.6387
 2917TIP3    H230243   1.024   5.894   2.034  0.6198 -0.1998 -1.9648
 2918TIP3   OH230244   2.258   5.504  15.774  0.8288  0.1474 -0.0596
 2918TIP3    H130245   2.250   5.532  15.682  1.5484 -1.4889 -0.6724
 2918TIP3    H230246   2.320   5.565  15.813  1.0320  0.4608 -0.8481
 2919TIP3   OH230247   0.720   1.938  14.767 -0.1882  0.4183 -0.5100
 2919TIP3    H130248   0.669   1.986  14.832 -0.4270  0.6102 -0.8380
 2919TIP3    H230249   0.658   1.875  14.730 -0.6414  1.6969 -2.0241
 2920TIP3   OH230250   1.712   3.680   2.038 -0.3888 -0.3492  0.2757
 2920TIP3    H130251   1.776   3.631   1.986 -0.6507 -2.1735  1.5931
 2920TIP3    H230252   1.699   3.627   2.116 -2.8261  0.4448  0.4687
 2921TIP3   OH230253   6.791   4.234   2.460 -0.2498  0.3755  0.3447
 2921TIP3    H130254   6.828   4.322   2.467 -0.3028  0.5222 -1.0012
 2921TIP3    H230255   6.698   4.248   2.444  0.0100  0.1399 -1.5708
 2922TIP3   OH230256   4.393   6.331  13.017 -0.5904 -0.1547  0.3700
 2922TIP3    H130257   4.426   6.414  12.982  1.2062 -1.1881 -0.5166
 2922TIP3    H230258   4.365   6.353  13.106  1.0045  1.1696  0.6016
 2923TIP3   OH230259   5.810   2.147   5.807 -0.1044 -0.2829 -0.1545
 2923TIP3    H130260   5.756   2.197   5.869  0.1021  1.9304 -1.6327
 2923TIP3    H230261   5.761   2.152   5.724  0.4523 -1.6835 -0.5925
 2924TIP3   OH230262   4.326   5.743   3.049 -0.1802 -0.2608  0.3765
 2924TIP3    H130263   4.253   5.801   3.027 -3.1900 -3.3988  1.1830
 2924TIP3    H230264   4.338   5.755   3.143  0.5433  0.3884  0.2130
 2925TIP3   OH230265   1.065   5.450   6.255 -0.1738 -0.3702 -0.4742
 2925TIP3    H130266   1.152   5.488   6.248 -0.7510  1.9468  2.6343
 2925TIP3    H230267   1.081   5.358   6.276  1.5622  0.0776  0.3765
 2926TIP3   OH230268   4.093   6.047  16.350 -0.4816  0.3936  0.0375
 2926TIP3    H130269   3.998   6.045  16.360 -0.5689 -0.2707 -0.8400
 2926TIP3    H230270   4.108   6.043  16.256  0.4446 -1.0146  0.2163
 2927TIP3   OH230271   6.768   1.358   3.038  0.2887  0.4855 -0.1580
 2927TIP3    H130272   6.727   1.294   2.981 -1.7411  1.9526 -0.4457
 2927TIP3    H230273   6.779   1.312   3.122  0.4445 -0.7248 -0.8182
 2928TIP3   OH230274   4.182   3.061   0.892  0.1507  0.2848 -0.7405
 2928TIP3    H130275   4.267   3.083   0.932 -0.3016  2.0753 -0.6729
 2928TIP3    H230276   4.154   2.982   0.937  1.8851 -0.4796 -0.9228
 2929TIP3   OH230277   6.580   3.429   2.373 -0.3551 -0.2359  0.3775
 2929TIP3    H130278   6.579   3.350   2.428  0.0672  0.3395  1.2366
 2929TIP3    H230279   6.668   3.464   2.384 -0.8432  0.8871  0.7772
 2930TIP3   OH230280   5.144   0.113  17.087 -0.1611 -0.6581  0.0854
 2930TIP3    H130281   5.113   0.148  17.003  0.7112  0.5885  0.2577
 2930TIP3    H230282   5.190   0.187  17.128  1.9548 -2.0602  0.3827
 2931TIP3   OH230283   5.807   2.563   6.399 -0.3703 -0.2584 -0.4640
 2931TIP3    H130284   5.749   2.511   6.455 -0.3663 -0.9474 -1.0703
 2931TIP3    H230285   5.812   2.512   6.318  0.4625  0.1830 -0.6995
 2932TIP3   OH230286   0.773   3.419  12.511  0.5631 -0.3588  0.2888
 2932TIP3    H130287   0.784   3.332  12.549  0.1215  0.0240  1.3381
 2932TIP3    H230288   0.829   3.419  12.433  2.1076 -0.9143  1.3586
 2933TIP3   OH230289   3.471   5.521   1.473  0.5022  0.2482 -0.4717
 2933TIP3    H130290   3.516   5.444   1.509  0.8903  1.0483  0.8188
 2933TIP3    H230291   3.380   5.494   1.465  0.1403  0.3594  2.2791
 2934TIP3   OH230292   0.621   1.167  11.917 -0.2656 -0.1407 -0.1259
 2934TIP3    H130293   0.641   1.224  11.991  1.1938 -0.7738  0.0041
 2934TIP3    H230294   0.580   1.224  11.852  3.1545  1.6249 -0.9102
 2935TIP3   OH230295   0.087   0.144  12.069 -0.1254  0.3646 -0.3904
 2935TIP3    H130296   0.111   0.074  12.130  0.1415  1.1121  0.3708
 2935TIP3    H230297   0.071   0.220  12.124 -2.1848  0.4713 -1.0368
 2936TIP3   OH230298   3.820   0.783  10.729  0.7242  0.2551 -0.3394
 2936TIP3    H130299   3.823   0.702  10.679 -0.2834  0.8147 -1.3268
 2936TIP3    H230300   3.909   0.818  10.724  1.4115 -1.1994  0.8501
 2937TIP3   OH230301   6.245   4.970  12.181  0.5823 -0.0844  0.3001
 2937TIP3    H130302   6.175   5.035  12.193  0.4801 -0.0795 -0.3116
 2937TIP3    H230303   6.325   5.017  12.203  0.3539 -0.2595  1.6088
 2938TIP3   OH230304   5.654   0.975   4.503 -0.3046 -0.0246  0.6292
 2938TIP3    H130305   5.584   1.035   4.478 -1.4853 -1.7546 -0.4071
 2938TIP3    H230306   5.662   0.986   4.598 -0.8038  1.3982  0.5329
 2939TIP3   OH230307   5.044   2.287  11.732 -0.2908  0.5782  0.4397
 2939TIP3    H130308   4.966   2.233  11.747 -0.1948  0.4567  0.5006
 2939TIP3    H230309   5.020   2.342  11.658 -0.4012  0.4729  0.3957
 2940TIP3   OH230310   0.871   2.008  10.572  0.1559  0.4254  0.1426
 2940TIP3    H130311   0.958   2.048  10.575  0.3671 -0.0584  0.5622
 2940TIP3    H230312   0.889   1.914  10.564 -0.3334  0.3539 -0.1268
 2941TIP3   OH230313   3.205   2.342   0.022  0.2222  0.1371 -0.4282
 2941TIP3    H130314   3.191   2.402   0.095 -1.0032 -0.4633 -0.1375
 2941TIP3    H230315   3.141   2.272   0.036 -0.0077 -0.0193 -2.0337
 2942TIP3   OH230316   6.442   2.234   1.282  0.3205 -0.1843 -0.3009
 2942TIP3    H130317   6.469   2.260   1.370 -1.2894 -0.4664  0.3214
 2942TIP3    H230318   6.372   2.170   1.296 -0.1271 -0.0729 -1.7787
 2943TIP3   OH230319   0.422   0.651   0.682  0.2196  0.0240 -0.0990
 2943TIP3    H130320   0.474   0.630   0.760 -0.8852  0.9412  0.9187
 2943TIP3    H230321   0.357   0.714   0.713 -1.2636 -0.8015 -1.4213
 2944TIP3   OH230322   0.902   5.659  14.751  0.2865 -0.1184  0.2289
 2944TIP3    H130323   0.923   5.750  14.770 -1.1009 -0.1435  2.1884
 2944TIP3    H230324   0.960   5.608  14.809 -0.6494 -0.3760  0.9584
 2945TIP3   OH230325   5.321   0.907   1.635 -0.3930  0.0837  0.1507
 2945TIP3    H130326   5.282   0.964   1.569 -0.1405 -0.3237 -0.3461
 2945TIP3    H230327   5.313   0.957   1.717 -3.0796 -0.4771  0.3231
 2946TIP3   OH230328   3.608   5.919   1.991  0.1329 -0.0317 -0.5306
 2946TIP3    H130329   3.657   5.971   1.928  0.0553 -1.0695 -1.4579
 2946TIP3    H230330   3.571   5.847   1.940 -1.4107  0.0839  0.3455
 2947TIP3   OH230331   3.453   6.080  14.141  0.3279  0.0422 -0.6354
 2947TIP3    H130332   3.388   6.146  14.165  0.0219 -0.4981  0.0532
 2947TIP3    H230333   3.497   6.117  14.064  0.0543  0.9664 -0.3626
 2948TIP3   OH230334   1.852   4.695  15.930  0.3083  0.5324  0.1317
 2948TIP3    H130335   1.801   4.769  15.961  0.2690  0.0885  1.1782
 2948TIP3    H230336   1.799   4.618  15.952  0.7800  0.1440 -0.0612
 2949TIP3   OH230337   3.424   4.314   1.222 -0.0820  0.5968  0.5307
 2949TIP3    H130338   3.488   4.381   1.198 -0.0532  0.8938  1.4220
 2949TIP3    H230339   3.474   4.232   1.220  0.1811  0.7520  0.6485
 2950TIP3   OH230340   0.970   1.706  14.181 -0.1200  0.3741  0.0275
 2950TIP3    H130341   0.993   1.768  14.111 -1.0025 -0.3358 -0.9271
 2950TIP3    H230342   0.901   1.751  14.230  1.3332  1.3795  1.2306
 2951TIP3   OH230343   6.015   3.056  12.706  0.3998 -0.2526 -0.0660
 2951TIP3    H130344   6.102   3.024  12.731 -0.0520 -0.6161  1.1361
 2951TIP3    H230345   6.031   3.120  12.637  1.6420 -0.1436  0.3034
 2952TIP3   OH230346   6.486   6.169  14.007 -0.0470  0.1760 -0.2892
 2952TIP3    H130347   6.438   6.098  14.051 -1.9225  0.7295 -1.3231
 2952TIP3    H230348   6.430   6.193  13.933  0.6722  2.5660 -0.1222
 2953TIP3   OH230349   3.046   1.645   1.028 -0.2845  0.1521  0.8004
 2953TIP3    H130350   3.004   1.574   0.980 -1.6292  0.4683  1.4584
 2953TIP3    H230351   2.996   1.723   1.005  1.7515  1.1091 -0.6603
 2954TIP3   OH230352   3.865   2.624  17.081  0.0845 -0.7048 -0.4279
 2954TIP3    H130353   3.943   2.570  17.088  1.0147  0.5507 -0.8607
 2954TIP3    H230354   3.845   2.649  17.171  0.8002 -0.1886 -0.4037
 2955TIP3   OH230355   4.269   0.387  11.920 -0.1983 -0.2477 -0.0599
 2955TIP3    H130356   4.353   0.348  11.942 -0.0027  1.2825  2.3192
 2955TIP3    H230357   4.273   0.402  11.825  2.1019 -0.4322 -0.0370
 2956TIP3   OH230358   6.163   1.501   1.487  0.5432 -0.1056 -0.3717
 2956TIP3    H130359   6.200   1.538   1.407 -0.4347  0.6191 -0.5054
 2956TIP3    H230360   6.237   1.460   1.531  2.1401  3.5930  0.7348
 2957TIP3   OH230361   4.362   4.137   3.114  0.0679  0.1326  0.0778
 2957TIP3    H130362   4.376   4.042   3.114  1.5928  0.2760 -2.1909
 2957TIP3    H230363   4.283   4.149   3.061  1.1006  0.1783 -1.5335
 2958TIP3   OH230364   3.672   6.019  16.030 -0.4435  0.2202  0.3346
 2958TIP3    H130365   3.610   6.005  16.102  0.2237 -0.8725  0.7217
 2958TIP3    H230366   3.757   5.995  16.067 -0.3981 -3.3564 -1.5966
 2959TIP3   OH230367   0.878   2.724   5.481  0.0610 -0.1329  0.0826
 2959TIP3    H130368   0.799   2.684   5.445  0.3151  0.3524 -1.0396
 2959TIP3    H230369   0.869   2.817   5.461  0.9782 -0.0952 -0.1669
 2960TIP3   OH230370   2.436   5.833  10.789  0.2259 -0.0196 -0.6229
 2960TIP3    H130371   2.344   5.861  10.796  0.3331  0.1770  0.0390
 2960TIP3    H230372   2.430   5.741  10.764 -0.1667 -0.1903  0.0649
 2961TIP3   OH230373   6.216   4.664   0.618  0.4666 -0.5078 -0.2085
 2961TIP3    H130374   6.224   4.705   0.704  0.2749  0.1111 -0.4858
 2961TIP3    H230375   6.147   4.712   0.574  2.2037  0.8214 -1.6360
 2962TIP3   OH230376   1.369   3.060  15.908 -0.4143 -0.0499 -0.2938
 2962TIP3    H130377   1.309   3.135  15.901 -0.1348  0.1105 -1.0233
 2962TIP3    H230378   1.407   3.068  15.995 -0.6167  0.4814 -0.2497
 2963TIP3   OH230379   1.454   4.589  10.923  0.1273 -0.4202  0.7518
 2963TIP3    H130380   1.513   4.557  10.855  0.8888  0.5086  0.9498
 2963TIP3    H230381   1.376   4.619  10.875  0.7857  0.5239  0.2418
 2964TIP3   OH230382   5.225   0.419  11.743  0.0406 -0.1425 -0.5002
 2964TIP3    H130383   5.315   0.421  11.776  0.0751 -0.7284 -0.5404
 2964TIP3    H230384   5.229   0.466  11.660  0.5892 -1.2384 -1.1235
 2965TIP3   OH230385   4.639   4.375   1.981  0.1794  0.5307  0.0640
 2965TIP3    H130386   4.693   4.454   1.968  0.2374  0.1888 -2.2024
 2965TIP3    H230387   4.697   4.315   2.028 -0.3413  2.2511  3.1874
 2966TIP3   OH230388   3.468   4.493  13.847 -0.1973  0.4459  0.0484
 2966TIP3    H130389   3.463   4.445  13.930 -0.6943 -0.8847 -0.7179
 2966TIP3    H230390   3.383   4.480  13.806 -0.2416  1.7773 -0.3269
 2967TIP3   OH230391   2.603   1.204  14.509  0.1597 -0.0216  0.6137
 2967TIP3    H130392   2.607   1.269  14.439  2.8629 -0.4772  0.2186
 2967TIP3    H230393   2.695   1.180  14.525 -0.6463 -4.0953  0.3567
 2968TIP3   OH230394   5.745   3.002  14.925  0.1012  0.6091 -0.0535
 2968TIP3    H130395   5.690   3.065  14.972 -1.0050 -0.4757  0.1667
 2968TIP3    H230396   5.752   3.038  14.836 -1.8923  0.2755 -0.4044
 2969TIP3   OH230397   3.160   1.421  16.315 -0.1542  0.4362 -0.3498
 2969TIP3    H130398   3.148   1.434  16.221 -1.2255 -0.5068 -0.3716
 2969TIP3    H230399   3.199   1.502  16.346 -2.0480  1.7524 -1.2279
 2970TIP3   OH230400   6.179   2.540   0.768  0.2563 -0.0482  0.2461
 2970TIP3    H130401   6.195   2.633   0.750 -2.6438  0.1427 -1.9319
 2970TIP3    H230402   6.095   2.538   0.813  0.3657 -1.6408  0.4450
 2971TIP3   OH230403   4.331   5.260  16.997  0.2191  0.3707 -0.4027
 2971TIP3    H130404   4.253   5.208  16.979 -0.7273  1.4112  0.5391
 2971TIP3    H230405   4.359   5.232  17.084 -0.4984  1.6204  0.2630
 2972TIP3   OH230406   0.287   0.150  12.615 -0.6029  0.3274 -0.0333
 2972TIP3    H130407   0.337   0.214  12.666  0.1707  0.5042 -0.9738
 2972TIP3    H230408   0.197   0.158  12.646 -0.1882  0.5662  1.1474
 2973TIP3   OH230409   4.549   2.272   1.682 -0.3700  0.1572  0.3992
 2973TIP3    H130410   4.550   2.184   1.647  0.6996  0.8907 -1.5747
 2973TIP3    H230411   4.637   2.306   1.664 -0.7052  1.5731  1.2483
 2974TIP3   OH230412   3.811   5.725  11.047 -0.3522  0.3605  0.0344
 2974TIP3    H130413   3.894   5.736  11.092  0.0431 -0.6474 -0.4038
 2974TIP3    H230414   3.815   5.636  11.012 -1.9988 -0.0573  0.7966
 2975TIP3   OH230415   4.098   3.858  15.348  0.2720 -0.1620  0.1988
 2975TIP3    H130416   4.118   3.838  15.440  0.8261  1.1647  0.3962
 2975TIP3    H230417   4.131   3.947  15.336 -3.4758  1.3752 -0.1250
 2976TIP3   OH230418   2.503   1.023  12.311  0.2307 -0.5063  0.5192
 2976TIP3    H130419   2.466   0.962  12.247  3.3115 -1.4722 -0.5068
 2976TIP3    H230420   2.506   1.107  12.266 -3.5328  0.5018  1.7590
 2977TIP3   OH230421   6.202   2.681  12.265 -0.3226  0.0606  0.2022
 2977TIP3    H130422   6.142   2.613  12.234  0.6586  0.1644 -2.0881
 2977TIP3    H230423   6.144   2.751  12.295 -1.3307 -0.9017  0.6058
 2978TIP3   OH230424   1.799   3.252   0.014 -0.2196  0.1186  0.1466
 2978TIP3    H130425   1.844   3.168   0.014  0.3878  0.4390 -0.2680
 2978TIP3    H230426   1.749   3.253  -0.067 -0.1107  0.2210  0.0811
 2979TIP3   OH230427   2.701   2.846  16.165 -0.3409  0.0640 -0.1764
 2979TIP3    H130428   2.740   2.866  16.080  0.4887  0.5606  0.3128
 2979TIP3    H230429   2.698   2.930  16.211  3.0179 -0.7287  1.8345
 2980TIP3   OH230430   3.703   1.824  10.591  0.3649  0.4730 -0.3328
 2980TIP3    H130431   3.782   1.871  10.565  0.7654 -0.1977 -0.3687
 2980TIP3    H230432   3.633   1.888  10.585  0.7980  0.8890 -0.9943
 2981TIP3   OH230433   2.291   1.451  15.935  0.0198  0.0744  0.0196
 2981TIP3    H130434   2.275   1.418  16.023  0.4801 -3.4767 -1.0592
 2981TIP3    H230435   2.294   1.373  15.880  2.7113  1.8457 -2.7222
 2982TIP3   OH230436   0.688   3.701  16.390  0.0945 -0.1198  0.6355
 2982TIP3    H130437   0.764   3.724  16.443  0.2561 -0.0385  0.3669
 2982TIP3    H230438   0.696   3.754  16.311  0.7601 -1.4983 -0.2484
 2983TIP3   OH230439   5.945   5.016  11.555  0.0892 -0.0724 -0.5225
 2983TIP3    H130440   6.023   4.990  11.505  1.7841  2.3766  0.6372
 2983TIP3    H230441   5.973   5.014  11.646 -1.6988 -0.5580  0.0545
 2984TIP3   OH230442   4.427   1.985  14.059  0.0840  0.0240  0.1874
 2984TIP3    H130443   4.346   1.963  14.106  0.5737 -3.8502 -0.3806
 2984TIP3    H230444   4.398   2.002  13.969 -0.1717 -3.0805 -0.4524
 2985TIP3   OH230445   1.415   3.145   0.598 -0.0995  0.3536 -0.0031
 2985TIP3    H130446   1.458   3.229   0.580  1.7391 -0.9549 -2.2104
 2985TIP3    H230447   1.477   3.099   0.655 -1.5141  0.7401  1.9731
 2986TIP3   OH230448   1.324   5.792  15.093 -0.1514  0.3956 -0.4279
 2986TIP3    H130449   1.380   5.776  15.169 -0.9659  1.2837  0.3824
 2986TIP3    H230450   1.373   5.855  15.040 -0.9889  2.3968  1.0508
 2987TIP3   OH230451   0.956   4.716  11.041 -0.3163 -0.2294 -0.5683
 2987TIP3    H130452   0.874   4.712  11.091 -1.2982 -0.2532 -2.1247
 2987TIP3    H230453   0.997   4.631  11.057 -0.0687  0.1516  1.0234
 2988TIP3   OH230454   4.210   1.089  14.093 -0.4912 -0.1122  0.0062
 2988TIP3    H130455   4.124   1.047  14.086  0.0418 -1.2516  0.0377
 2988TIP3    H230456   4.222   1.134  14.009 -1.7288  1.3212  0.5501
 2989TIP3   OH230457   0.334   5.144  16.082 -0.1118  0.1913  0.5430
 2989TIP3    H130458   0.399   5.214  16.092 -0.0049  0.2026 -0.1815
 2989TIP3    H230459   0.296   5.158  15.995  2.1144 -2.4471 -1.0473
 2990TIP3   OH230460   2.323   2.426   5.980  0.0664 -0.1522  0.1718
 2990TIP3    H130461   2.323   2.430   5.884  2.3773 -0.9070  0.0732
 2990TIP3    H230462   2.270   2.500   6.007 -2.6497 -1.2818 -1.6653
 2991TIP3   OH230463   2.696   3.592  12.405  0.0142  0.5443 -0.4821
 2991TIP3    H130464   2.662   3.597  12.316 -2.9002  0.0071  0.4750
 2991TIP3    H230465   2.717   3.499  12.417 -2.2904  0.0245  0.1647
 2992TIP3   OH230466   2.634   1.670  11.219  0.5387  0.3724  0.3448
 2992TIP3    H130467   2.614   1.586  11.177  1.3453  0.7777 -0.9026
 2992TIP3    H230468   2.729   1.679  11.210  0.1882  2.6175 -1.9334
 2993TIP3   OH230469   5.998   0.748   5.797 -0.0540  0.1280 -0.4437
 2993TIP3    H130470   6.055   0.825   5.788  0.7347 -0.3964 -0.0192
 2993TIP3    H230471   5.939   0.771   5.870  0.7570 -0.0096  0.2691
 2994TIP3   OH230472   5.420   1.790   6.206  0.5394 -0.6138  0.0071
 2994TIP3    H130473   5.500   1.796   6.258 -1.1367 -1.0089  2.8806
 2994TIP3    H230474   5.390   1.880   6.195  0.2152 -0.5908  0.9824
 2995TIP3   OH230475   5.175   4.439  16.523 -0.0547  0.1119 -0.1770
 2995TIP3    H130476   5.175   4.534  16.538 -0.1146 -0.2718  2.9045
 2995TIP3    H230477   5.263   4.421  16.491  0.4871  1.0746  0.6684
 2996TIP3   OH230478   5.580   0.559   1.232 -0.1923  0.2565  0.6109
 2996TIP3    H130479   5.656   0.539   1.178  0.0207  0.1643  0.9437
 2996TIP3    H230480   5.616   0.588   1.316 -0.5175 -1.0737  1.2349
 2997TIP3   OH230481   3.747   5.383  12.174  0.0779 -0.1635 -0.1410
 2997TIP3    H130482   3.673   5.414  12.121 -0.5518 -0.5825  0.4775
 2997TIP3    H230483   3.816   5.447  12.159 -0.1457 -0.1819 -1.3349
 2998TIP3   OH230484   1.823   4.461   2.917  0.4819 -0.0164 -0.1616
 2998TIP3    H130485   1.836   4.373   2.883 -0.4831 -0.1209 -0.2799
 2998TIP3    H230486   1.839   4.453   3.011 -1.8679 -0.8631  0.2451
 2999TIP3   OH230487   2.602   0.436  15.545  0.4495  0.2929 -0.0632
 2999TIP3    H130488   2.646   0.516  15.572 -0.4603  0.8697 -0.2448
 2999TIP3    H230489   2.536   0.421  15.613  1.2205 -0.8448  0.4831
 3000TIP3   OH230490   0.479   4.411   0.171 -0.2632  0.8580 -0.6153
 3000TIP3    H130491   0.511   4.490   0.215 -0.6025  0.5548  0.1908
 3000TIP3    H230492   0.459   4.350   0.242 -0.4955  0.2289 -1.2070
 3001TIP3   OH230493   6.142   6.666   6.452 -0.2440 -0.3446 -0.0893
 3001TIP3    H130494   6.086   6.601   6.493 -0.6963 -0.0764 -0.2786
 3001TIP3    H230495   6.125   6.747   6.500  0.3728 -0.3807  0.1938
 3002TIP3   OH230496   1.407   3.026   5.985  0.3275  0.1934 -0.2175
 3002TIP3    H130497   1.488   2.986   6.015  0.1944 -0.3431 -0.5629
 3002TIP3    H230498   1.398   3.105   6.038  0.8948  0.0725  0.0613
 3003TIP3   OH230499   3.934   6.604  11.494 -0.3937 -0.5216 -0.4650
 3003TIP3    H130500   4.017   6.556  11.498 -0.6609 -1.0657 -1.1499
 3003TIP3    H230501   3.890   6.568  11.417 -0.6998  0.6827 -0.8702
 3004TIP3   OH230502   0.369   1.396   4.918  0.2848  0.0538 -0.2412
 3004TIP3    H130503   0.434   1.403   4.988  0.7648  0.4676 -0.7111
 3004TIP3    H230504   0.288   1.372   4.962  0.4206  0.9657  0.5389
 3005TIP3   OH230505   0.232   2.387   3.533 -0.0026 -0.2714  0.2892
 3005TIP3    H130506   0.288   2.419   3.462 -0.3138 -0.2356  0.0573
 3005TIP3    H230507   0.291   2.374   3.606  0.3850 -0.6673 -0.0893
 3006TIP3   OH230508   0.678   1.811  13.123 -0.4816 -0.6833 -0.0612
 3006TIP3    H130509   0.602   1.776  13.170 -0.5276  0.6817  0.9565
 3006TIP3    H230510   0.698   1.893  13.169  1.0319 -0.5565 -0.9014
 3007TIP3   OH230511   2.043   3.242  15.151 -0.3429 -0.3849 -0.2887
 3007TIP3    H130512   2.035   3.148  15.172  0.2154 -0.9417 -2.3551
 3007TIP3    H230513   2.098   3.277  15.221 -1.1189 -1.4308  0.9036
 3008TIP3   OH230514   5.991   6.407  14.437 -0.0452 -0.6256  0.5372
 3008TIP3    H130515   5.941   6.326  14.428 -2.2153  0.6335  0.7413
 3008TIP3    H230516   6.005   6.417  14.531 -1.1664  0.0171  0.6468
 3009TIP3   OH230517   0.087   4.233  10.406  0.5431 -0.3853 -0.2795
 3009TIP3    H130518   0.169   4.184  10.398 -0.0039 -1.1307 -1.6029
 3009TIP3    H230519   0.110   4.310  10.459  2.5567  0.4104 -2.1580
 3010TIP3   OH230520   5.504   2.096   2.557  0.1895  0.1754 -0.6430
 3010TIP3    H130521   5.425   2.043   2.565  0.9713 -0.9744 -0.2086
 3010TIP3    H230522   5.575   2.032   2.547  1.0493  1.1776 -1.1947
 3011TIP3   OH230523   1.631   2.711   0.944  0.0692 -0.6643 -1.0471
 3011TIP3    H130524   1.583   2.651   1.001 -0.8447 -0.8125 -1.9481
 3011TIP3    H230525   1.710   2.663   0.920 -0.0778 -1.0401 -0.7913
 3012TIP3   OH230526   6.080   4.541   3.144  0.0002  0.1856 -0.5364
 3012TIP3    H130527   6.077   4.470   3.207 -3.2370  1.1771  0.6386
 3012TIP3    H230528   6.104   4.618   3.195 -1.5183  0.7894 -0.6550
 3013TIP3   OH230529   5.145   0.005   2.103 -0.4211 -0.1071  0.0925
 3013TIP3    H130530   5.157   0.087   2.055  0.9754  1.2886  2.6598
 3013TIP3    H230531   5.204  -0.056   2.059 -1.0252  0.3824 -1.4817
 3014TIP3   OH230532   5.233   2.127  14.750  0.4493 -0.1678  0.2636
 3014TIP3    H130533   5.234   2.134  14.846 -0.4827  0.2325  0.2507
 3014TIP3    H230534   5.311   2.075  14.729  2.1415  1.9093  1.0624
 3015TIP3   OH230535   1.429   1.784  14.526 -0.1550 -0.2607 -0.4265
 3015TIP3    H130536   1.392   1.864  14.563  1.0215  0.0066  0.2150
 3015TIP3    H230537   1.381   1.713  14.569 -0.4348  0.0810 -0.1703
 3016TIP3   OH230538   0.374   2.096  13.924 -0.0101  0.0070 -0.7174
 3016TIP3    H130539   0.359   2.105  14.018 -1.3255  0.6542 -0.9674
 3016TIP3    H230540   0.406   2.182  13.897  0.6428 -0.2619 -0.8334
 3017TIP3   OH230541   2.137   4.561   5.369  0.0999  0.0433 -1.1041
 3017TIP3    H130542   2.207   4.509   5.407  1.6407  1.8838 -1.2541
 3017TIP3    H230543   2.177   4.602   5.292 -1.3609  0.6020 -1.6030
 3018TIP3   OH230544   1.215   6.798   5.140 -0.7089 -0.4598  0.1245
 3018TIP3    H130545   1.240   6.887   5.161 -2.0507 -0.2467  0.9162
 3018TIP3    H230546   1.175   6.804   5.053 -0.4564 -0.3621  0.0140
 3019TIP3   OH230547   0.610   2.203  10.644 -0.3913 -0.3876  0.2721
 3019TIP3    H130548   0.675   2.264  10.677  0.1552 -1.0224  0.3658
 3019TIP3    H230549   0.659   2.125  10.619 -0.9286 -0.3758 -0.9298
 3020TIP3   OH230550   3.210   3.575   1.367 -0.5905 -0.3134  0.1917
 3020TIP3    H130551   3.162   3.578   1.450 -1.0119  0.9532 -0.0769
 3020TIP3    H230552   3.142   3.572   1.300 -0.2578 -0.4529 -0.1462
 3021TIP3   OH230553   3.252   4.714  10.157 -0.4570 -0.1187  0.0458
 3021TIP3    H130554   3.331   4.744  10.202 -1.1204  1.2893  0.3036
 3021TIP3    H230555   3.229   4.632  10.201 -0.3719  0.5824  1.4300
 3022TIP3   OH230556   5.338   4.121  16.287 -0.3651  0.2808 -0.8114
 3022TIP3    H130557   5.424   4.162  16.277  0.9013 -1.3042  2.0384
 3022TIP3    H230558   5.357   4.035  16.325 -3.2331 -0.0737  0.0867
 3023TIP3   OH230559   6.372   5.108  11.195  0.3222  0.4812 -0.3599
 3023TIP3    H130560   6.304   5.158  11.150 -0.6209 -2.8610 -3.1323
 3023TIP3    H230561   6.454   5.136  11.153  0.2635  1.9340  0.4417
 3024TIP3   OH230562   2.496   0.774  16.615  0.0929  0.0585 -0.3198
 3024TIP3    H130563   2.556   0.815  16.552  0.5238  0.6578  0.4527
 3024TIP3    H230564   2.445   0.847  16.650  1.2886  0.0938  1.5227
 3025TIP3   OH230565   4.248   2.999  12.617  0.2119 -0.0836  0.3045
 3025TIP3    H130566   4.276   2.909  12.600  1.6535  0.7613 -2.4641
 3025TIP3    H230567   4.325   3.041  12.657  0.5956  0.5468 -1.0125
 3026TIP3   OH230568   5.186   6.421   5.048 -0.0682  0.0871  0.1655
 3026TIP3    H130569   5.260   6.369   5.018 -0.9300 -2.0942  1.5702
 3026TIP3    H230570   5.108   6.374   5.017 -0.9180  1.8470 -0.5249
 3027TIP3   OH230571   1.976   1.424   3.926 -0.0984  0.0264  0.3523
 3027TIP3    H130572   1.955   1.516   3.915 -0.1180  0.2292  1.9570
 3027TIP3    H230573   2.053   1.423   3.982 -0.4540 -0.9455  0.8523
 3028TIP3   OH230574   1.770   0.210  10.659 -0.2899 -0.0247  0.2718
 3028TIP3    H130575   1.840   0.200  10.594 -0.5299 -3.2249  0.3742
 3028TIP3    H230576   1.815   0.201  10.744 -0.6058 -0.4607  0.3939
 3029TIP3   OH230577   0.559   2.124   6.447  0.8251 -0.6402 -0.3973
 3029TIP3    H130578   0.548   2.061   6.519  2.3601 -0.0349  0.3990
 3029TIP3    H230579   0.604   2.074   6.379  0.4696 -0.8650 -0.4772
 3030TIP3   OH230580   3.392   2.539  12.573  0.4924  0.4282 -0.2003
 3030TIP3    H130581   3.374   2.457  12.618  0.3107  0.0220 -0.9938
 3030TIP3    H230582   3.327   2.600  12.608  0.5181  0.1928  0.2675
 3031TIP3   OH230583   2.531   0.971   5.997 -0.2392 -0.0276  0.1329
 3031TIP3    H130584   2.537   1.004   5.907  0.1038 -0.6299 -0.0709
 3031TIP3    H230585   2.601   0.906   6.004  0.4001  0.7485  1.1563
 3032TIP3   OH230586   5.899   2.017  12.446  0.7667  0.0328  0.5236
 3032TIP3    H130587   5.992   2.040  12.451  0.4254  1.1724  2.9402
 3032TIP3    H230588   5.864   2.040  12.531 -1.7257 -0.5865 -0.2528
 3033TIP3   OH230589   4.073   4.245   6.284 -0.6522 -0.2723  0.0338
 3033TIP3    H130590   4.097   4.333   6.314 -0.4432  0.1720 -1.3421
 3033TIP3    H230591   4.157   4.202   6.266 -0.7443 -0.8588  0.9369
 3034TIP3   OH230592   2.417   0.695  14.984  0.3833 -0.1334  0.0068
 3034TIP3    H130593   2.447   0.637  14.913  0.9820 -2.0621  1.7467
 3034TIP3    H230594   2.382   0.636  15.050  1.2394  1.4666  1.9927
 3035TIP3   OH230595   0.159   4.746   0.829 -0.4778 -0.1539 -0.0188
 3035TIP3    H130596   0.222   4.702   0.887 -1.4146 -0.9947  0.3940
 3035TIP3    H230597   0.089   4.682   0.818 -0.7829  0.3838 -1.2973
 3036TIP3   OH230598   6.403   5.662  15.381 -0.4172 -0.4404  0.0470
 3036TIP3    H130599   6.468   5.730  15.400 -2.0794  0.6897  2.2189
 3036TIP3    H230600   6.422   5.635  15.292  2.1602  0.7915  0.1229
 3037TIP3   OH230601   2.226   0.078  11.251  0.3232 -0.2671 -0.2051
 3037TIP3    H130602   2.191   0.167  11.251  0.5155 -0.1892  0.5857
 3037TIP3    H230603   2.203   0.043  11.337 -0.4864 -1.2762 -0.7976
 3038TIP3   OH230604   6.141   5.749  13.478 -0.1425 -0.0146  0.0032
 3038TIP3    H130605   6.094   5.675  13.442 -0.8363  1.4176 -2.2351
 3038TIP3    H230606   6.076   5.796  13.531 -0.4203  0.3665 -0.6711
 3039TIP3   OH230607   0.584   1.867   3.177 -0.2679 -0.4261  0.3807
 3039TIP3    H130608   0.530   1.858   3.099  1.1026  2.0495 -0.9590
 3039TIP3    H230609   0.663   1.816   3.158 -0.4772 -0.8858  0.7206
 3040TIP3   OH230610   4.130   0.230  13.498  0.1328  0.2177 -0.1134
 3040TIP3    H130611   4.085   0.313  13.489  1.7307  0.9438 -2.2311
 3040TIP3    H230612   4.062   0.164  13.486 -0.6557  1.2553 -1.6722
 3041TIP3   OH230613   4.605   3.104  16.131 -0.1711  0.4749 -0.6847
 3041TIP3    H130614   4.645   3.190  16.124 -0.0482  0.4895  0.0639
 3041TIP3    H230615   4.542   3.113  16.203  0.4316 -0.2733 -0.0462
 3042TIP3   OH230616   1.385   0.733  13.951  0.3412 -0.1109  0.0810
 3042TIP3    H130617   1.403   0.827  13.948 -1.6426  0.3191 -0.1190
 3042TIP3    H230618   1.413   0.700  13.866 -0.2523  0.5907 -0.4032
 3043TIP3   OH230619   4.773   2.717  12.573  0.3791  0.2873 -0.3710
 3043TIP3    H130620   4.817   2.785  12.524  0.6785 -0.4526 -1.1503
 3043TIP3    H230621   4.820   2.713  12.657  0.6715  0.6882 -0.5150
 3044TIP3   OH230622   3.868   3.159   0.576  0.3024 -0.1927 -0.2970
 3044TIP3    H130623   3.873   3.093   0.645 -2.2021 -0.8396 -0.6640
 3044TIP3    H230624   3.775   3.167   0.556  0.4295  3.5413 -0.2081
 3045TIP3   OH230625   4.878   5.326   2.537  0.4233  0.4049 -0.2062
 3045TIP3    H130626   4.960   5.342   2.489  1.3478 -1.3791  0.7037
 3045TIP3    H230627   4.904   5.323   2.629  0.0067 -3.4473 -0.0721
 3046TIP3   OH230628   1.126   5.567  15.218 -0.1181  0.0238 -0.4419
 3046TIP3    H130629   1.161   5.641  15.267 -0.2663  0.3604 -0.8398
 3046TIP3    H230630   1.043   5.599  15.182 -1.6309 -1.2082  1.7135
 3047TIP3   OH230631   2.938   4.828  12.220  0.5681 -0.4098 -0.2359
 3047TIP3    H130632   2.982   4.832  12.135  1.6758 -0.3733  0.3150
 3047TIP3    H230633   2.952   4.738  12.249 -0.0166 -0.4880 -0.1933
 3048TIP3   OH230634   2.419   6.009  13.677 -0.3764 -0.1791 -0.3925
 3048TIP3    H130635   2.331   6.042  13.659 -0.5804 -0.6956 -0.3656
 3048TIP3    H230636   2.449   6.061  13.751  0.0063  1.1519 -1.4593
 3049TIP3   OH230637   1.313   1.877  11.901  0.4290  0.5264  0.5459
 3049TIP3    H130638   1.223   1.910  11.899  0.2935  0.1426  0.1280
 3049TIP3    H230639   1.345   1.887  11.811  0.3567 -0.5461  0.3897
 3050TIP3   OH230640   0.358   1.667  14.617 -0.3324 -0.2334 -0.0836
 3050TIP3    H130641   0.287   1.725  14.645  0.5207  0.5391  0.5170
 3050TIP3    H230642   0.436   1.703  14.658  0.6963 -0.0782 -2.0707
 3051TIP3   OH230643   5.351   0.838  13.436  0.0867 -0.7012  0.5910
 3051TIP3    H130644   5.442   0.867  13.426 -0.0414 -0.2308  0.7499
 3051TIP3    H230645   5.299   0.916  13.418 -0.2611 -0.7958  1.1708
 3052TIP3   OH230646   2.374   5.155  14.181  0.1316  0.1604  0.2832
 3052TIP3    H130647   2.452   5.158  14.125 -0.6553  1.1830 -0.8167
 3052TIP3    H230648   2.308   5.204  14.132 -1.1571 -0.5369  1.2738
 3053TIP3   OH230649   2.736   6.612   4.516  0.3578 -0.4477  0.4077
 3053TIP3    H130650   2.753   6.522   4.489  0.6246 -0.2549 -0.0751
 3053TIP3    H230651   2.696   6.653   4.439  0.3207 -0.1267  0.5957
 3054TIP3   OH230652   5.607   4.166   5.493  0.1045 -0.1451 -0.5224
 3054TIP3    H130653   5.640   4.184   5.581  1.9906 -0.6547 -1.0817
 3054TIP3    H230654   5.669   4.211   5.435  1.4698 -3.2945 -1.7193
 3055TIP3   OH230655   0.262   4.857  12.315 -0.4112  0.1072 -0.0459
 3055TIP3    H130656   0.221   4.942  12.304  0.1890  0.1795 -2.1192
 3055TIP3    H230657   0.356   4.876  12.322 -0.1972 -0.3938 -1.2941
 3056TIP3   OH230658   4.797   6.088  12.478 -0.1431  0.0296 -0.2606
 3056TIP3    H130659   4.831   6.071  12.390  0.1103 -0.0518 -0.1493
 3056TIP3    H230660   4.861   6.147  12.517 -0.7009  0.7584 -0.4249
 3057TIP3   OH230661   0.669   4.994  11.659 -0.5478  0.1677  0.6037
 3057TIP3    H130662   0.740   4.933  11.679 -1.8406 -0.9164  2.1449
 3057TIP3    H230663   0.691   5.073  11.709  0.7955  0.7989 -0.8909
 3058TIP3   OH230664   5.308   2.262   3.037  0.3260 -0.8781 -0.1425
 3058TIP3    H130665   5.311   2.326   3.108  0.1867 -1.0394  0.0087
 3058TIP3    H230666   5.398   2.230   3.030  1.4273  2.2107 -2.8699
 3059TIP3   OH230667   2.292   5.668   5.837  0.0084  0.3290  0.8814
 3059TIP3    H130668   2.262   5.714   5.759 -1.2630 -0.2608  0.9964
 3059TIP3    H230669   2.381   5.640   5.816 -0.0805  0.7571 -0.0994
 3060TIP3   OH230670   3.907   6.737  13.526  0.3432  0.0233  0.4555
 3060TIP3    H130671   3.938   6.660  13.480  0.2766  0.8177 -0.9762
 3060TIP3    H230672   3.824   6.710  13.566  0.4890 -0.7320  0.2581
 3061TIP3   OH230673   5.237   1.679  15.011 -0.2801  0.1291  0.4385
 3061TIP3    H130674   5.152   1.665  14.969  0.0834 -0.0287 -0.2577
 3061TIP3    H230675   5.255   1.596  15.055 -1.0930  0.6006  1.7214
 3062TIP3   OH230676   6.443   0.137   2.821  0.0114 -0.2689 -0.1001
 3062TIP3    H130677   6.481   0.212   2.867 -2.9576  2.2015 -1.2624
 3062TIP3    H230678   6.421   0.171   2.734 -1.5094 -2.4759 -0.6674
 3063TIP3   OH230679   5.749   5.949  11.380 -0.4189 -0.3936  0.2204
 3063TIP3    H130680   5.800   6.019  11.422  0.1591 -1.5833  1.6264
 3063TIP3    H230681   5.711   5.990  11.303  2.3183  0.7140 -0.6804
 3064TIP3   OH230682   1.266   5.278   1.555  0.3481  0.1224  0.5638
 3064TIP3    H130683   1.240   5.266   1.463 -0.1774  1.2568  0.5492
 3064TIP3    H230684   1.239   5.197   1.598 -0.2418 -0.0510 -0.1087
 3065TIP3   OH230685   4.574   5.835  13.272  0.0448  0.0339 -0.3281
 3065TIP3    H130686   4.489   5.814  13.312  0.2456  1.3616  0.8833
 3065TIP3    H230687   4.580   5.930  13.279  1.2958  0.0337 -1.1428
 3066TIP3   OH230688   2.495   0.730   4.451  0.7028  0.1108  0.0963
 3066TIP3    H130689   2.541   0.670   4.392 -0.6188 -1.3044  0.4654
 3066TIP3    H230690   2.531   0.710   4.538 -0.8207 -1.2839  0.4464
 3067TIP3   OH230691   2.041   2.213  14.247 -0.3693 -0.6645 -0.1195
 3067TIP3    H130692   2.002   2.181  14.328  1.5223 -0.4693  0.9296
 3067TIP3    H230693   2.027   2.308  14.249  1.2612 -0.3954  0.9659
 3068TIP3   OH230694   1.201   5.450   5.877  0.2521  0.1915  0.4703
 3068TIP3    H130695   1.223   5.529   5.925  1.5071  0.9726 -1.2641
 3068TIP3    H230696   1.281   5.397   5.880 -0.5751 -1.0485  1.6214
 3069TIP3   OH230697   4.712   6.494  12.362  0.0932 -0.4263  0.3514
 3069TIP3    H130698   4.784   6.430  12.362  1.6360  1.2284  0.3539
 3069TIP3    H230699   4.662   6.473  12.441  0.6953 -1.4710  0.4812
 3070TIP3   OH230700   2.905   4.199   3.346  0.2547  0.4794  0.3402
 3070TIP3    H130701   2.906   4.233   3.257  0.2327 -1.3372 -0.4125
 3070TIP3    H230702   2.986   4.231   3.385  0.8638  0.3105 -0.7455
 3071TIP3   OH230703   6.535   3.636   5.878  0.4537 -0.2514 -0.0159
 3071TIP3    H130704   6.483   3.562   5.909  1.1283  0.5341  3.2756
 3071TIP3    H230705   6.626   3.609   5.891  0.7983  0.1875 -1.3202
 3072TIP3   OH230706   5.439   4.766   4.583  0.0024 -0.1402  0.0677
 3072TIP3    H130707   5.497   4.749   4.508 -0.2082 -0.1992 -0.0807
 3072TIP3    H230708   5.377   4.694   4.583 -0.4995  0.2835 -0.1877
 3073TIP3   OH230709   5.037   5.302   2.770 -0.5225  0.2208  0.0564
 3073TIP3    H130710   5.112   5.300   2.711 -1.2396  0.2726 -0.8715
 3073TIP3    H230711   5.054   5.231   2.832 -0.2650 -0.5106 -0.8325
 3074TIP3   OH230712   1.482   5.577   1.184  0.0383  0.2789  0.1642
 3074TIP3    H130713   1.443   5.538   1.106  2.0384 -2.8390  0.5923
 3074TIP3    H230714   1.469   5.513   1.253  1.3395  1.4378  1.5756
 3075TIP3   OH230715   0.168   4.347  11.733  0.2761  0.3360  0.8894
 3075TIP3    H130716   0.251   4.392  11.751  0.5023  0.8241 -1.0717
 3075TIP3    H230717   0.106   4.382  11.797  1.1743  1.2416  1.2834
 3076TIP3   OH230718   4.246   2.845   5.504  0.1790 -0.0280  0.0340
 3076TIP3    H130719   4.234   2.925   5.453  0.9194 -0.2404 -0.4759
 3076TIP3    H230720   4.299   2.873   5.579 -0.5834  0.2022  0.5008
 3077TIP3   OH230721   0.453   1.751   3.936 -0.4743 -0.5849  0.3325
 3077TIP3    H130722   0.537   1.719   3.904  0.3329  0.3544  1.4588
 3077TIP3    H230723   0.431   1.823   3.876  0.3016  0.1809  0.9380
 3078TIP3   OH230724   1.296   6.804  12.687 -0.1038 -0.3209  0.0277
 3078TIP3    H130725   1.237   6.861  12.737  0.7142 -0.3729  1.0986
 3078TIP3    H230726   1.326   6.858  12.615 -1.3186 -0.2420 -0.4426
 3079TIP3   OH230727   0.983   2.450  13.148  0.1538 -0.9600  0.4762
 3079TIP3    H130728   1.068   2.415  13.121 -0.1629 -0.7786 -0.8356
 3079TIP3    H230729   0.997   2.545  13.154  0.1347 -0.9657  0.6108
 3080TIP3   OH230730   6.634   1.747  16.665 -0.1669  0.2424  0.2062
 3080TIP3    H130731   6.683   1.800  16.728 -0.8663  1.4246 -0.2289
 3080TIP3    H230732   6.549   1.789  16.658 -0.6523 -0.7951 -0.3492
 3081TIP3   OH230733   2.077   4.298  16.485 -0.1449 -0.1706 -0.1976
 3081TIP3    H130734   2.032   4.338  16.412 -0.5344  0.0874  0.1773
 3081TIP3    H230735   2.024   4.221  16.506 -0.8211  0.5101  0.6859
 3082TIP3   OH230736   1.080   1.388  16.687  0.0903  0.1599 -0.3862
 3082TIP3    H130737   1.120   1.458  16.739  0.6341 -0.2569 -0.2347
 3082TIP3    H230738   1.112   1.403  16.598  2.3535 -1.4093  0.0918
 3083TIP3   OH230739   6.296   0.024   1.156 -0.0769 -0.4343  0.8576
 3083TIP3    H130740   6.295  -0.042   1.225 -0.5653 -1.3192  0.0252
 3083TIP3    H230741   6.358  -0.010   1.091 -0.2201 -0.0068  0.4874
 3084TIP3   OH230742   3.450   6.143  12.551  0.0114  0.3014  0.7029
 3084TIP3    H130743   3.465   6.136  12.457 -1.0632 -0.0144  0.5377
 3084TIP3    H230744   3.372   6.089  12.567  0.5966 -0.2446  1.8867
 3085TIP3   OH230745   0.232   2.842   6.567 -0.1381  0.2759  0.0223
 3085TIP3    H130746   0.193   2.823   6.482 -0.1419  0.2189  0.0362
 3085TIP3    H230747   0.157   2.852   6.626 -0.1176 -0.7529  0.2411
 3086TIP3   OH230748   2.418   3.288   4.985 -0.7480  0.4795  0.3117
 3086TIP3    H130749   2.357   3.299   5.057 -1.7938 -0.3565 -0.4153
 3086TIP3    H230750   2.397   3.202   4.948  1.2570 -0.0759  0.3874
 3087TIP3   OH230751   6.288   3.881  13.345 -0.2123 -0.0877  0.2207
 3087TIP3    H130752   6.339   3.800  13.342 -0.9682 -0.6085  1.0050
 3087TIP3    H230753   6.200   3.855  13.317 -0.3396  0.5601  0.0084
 3088TIP3   OH230754   6.397   1.027  13.041  0.3665  0.6850 -0.1728
 3088TIP3    H130755   6.456   1.048  12.969 -1.0854  0.5687 -1.4306
 3088TIP3    H230756   6.368   1.112  13.074 -0.2846  0.7404 -0.8597
 3089TIP3   OH230757   5.920   0.750  13.821 -0.0152 -0.0866  0.4230
 3089TIP3    H130758   5.891   0.788  13.904 -0.0789 -0.8035  0.7332
 3089TIP3    H230759   5.960   0.666  13.845  3.4617  1.3270  0.1836
 3090TIP3   OH230760   0.779   2.323   2.220  0.6393  0.1327 -0.5754
 3090TIP3    H130761   0.721   2.394   2.194 -1.5345 -1.1398  0.4690
 3090TIP3    H230762   0.737   2.244   2.186  1.0165 -0.9608  1.3534
 3091TIP3   OH230763   4.246   3.989   3.977  0.0322  0.1201  0.2013
 3091TIP3    H130764   4.262   3.914   3.920  2.2289 -0.0271  0.9032
 3091TIP3    H230765   4.220   4.060   3.918 -0.2794 -0.7082 -0.6713
 3092TIP3   OH230766   0.382   4.191  17.244  0.1128 -0.2345  0.3228
 3092TIP3    H130767   0.382   4.266  17.305  0.1792  0.6070 -0.6817
 3092TIP3    H230768   0.313   4.213  17.181 -0.3647 -1.3815  0.4321
 3093TIP3   OH230769   0.106   1.931   0.383  0.2217  0.1194 -0.6738
 3093TIP3    H130770   0.038   1.985   0.423  0.3832  0.1611 -0.4564
 3093TIP3    H230771   0.059   1.881   0.316  0.1752  0.9628 -1.2942
 3094TIP3   OH230772   0.179   5.661   6.382  0.7222  0.1121 -0.5283
 3094TIP3    H130773   0.127   5.592   6.341  1.4611 -0.5992 -0.2870
 3094TIP3    H230774   0.214   5.712   6.309 -1.1696  1.2716 -0.6841
 3095TIP3   OH230775   4.305   1.889  11.215  0.3218  0.3048 -0.1586
 3095TIP3    H130776   4.272   1.803  11.241  1.6323 -0.8015 -1.9017
 3095TIP3    H230777   4.239   1.950  11.246 -0.6336 -1.3132  1.1861
 3096TIP3   OH230778   1.867   5.636   2.112  0.4070 -0.0115 -0.3585
 3096TIP3    H130779   1.823   5.567   2.163  0.9604 -0.7008 -0.7859
 3096TIP3    H230780   1.927   5.676   2.174  1.3946 -1.1391 -0.5490
 3097TIP3   OH230781   3.362   5.345  14.582 -0.2275 -0.4809 -0.1966
 3097TIP3    H130782   3.350   5.303  14.667 -0.0634  1.0021  0.6001
 3097TIP3    H230783   3.409   5.280  14.529  0.6205 -1.0448  1.1996
 3098TIP3   OH230784   6.810   1.062   6.176 -0.0969  0.2079 -0.2377
 3098TIP3    H130785   6.866   1.040   6.250  1.0833  1.7699 -0.6213
 3098TIP3    H230786   6.721   1.046   6.208  0.4331  0.0066  1.2041
 3099TIP3   OH230787   5.147   3.606  11.819  0.4215  0.8409  0.2633
 3099TIP3    H130788   5.224   3.568  11.777 -0.1104  0.4124 -0.3520
 3099TIP3    H230789   5.110   3.664  11.752  0.1544  0.9704  0.5195
 3100TIP3   OH230790   5.935   0.610  16.796 -0.2342 -0.7028  0.1444
 3100TIP3    H130791   5.911   0.521  16.823 -0.6588 -1.3474 -2.1719
 3100TIP3    H230792   5.868   0.666  16.835 -0.0299 -1.3675  1.5303
 3101TIP3   OH230793   0.618   1.016   0.055 -0.3378  0.1224 -0.6439
 3101TIP3    H130794   0.690   0.973   0.102  1.2659  0.2566 -2.8473
 3101TIP3    H230795   0.653   1.101   0.031 -1.8481  0.8509 -0.3964
 3102TIP3   OH230796   4.762   6.164   0.272  0.1016  0.8347 -0.3497
 3102TIP3    H130797   4.746   6.221   0.347  1.0952  2.3059 -1.2025
 3102TIP3    H230798   4.854   6.177   0.251 -0.3610  1.1588 -2.3747
 3103TIP3   OH230799   1.932   1.146  15.895 -0.3636  0.2672  0.2874
 3103TIP3    H130800   2.020   1.119  15.919 -0.3566 -1.0382 -1.0762
 3103TIP3    H230801   1.944   1.225  15.842 -0.0035  0.0377  0.0249
 3104TIP3   OH230802   6.710   0.600  14.703  0.1675  0.1995  0.0389
 3104TIP3    H130803   6.701   0.589  14.798  0.8914 -0.5287  0.0337
 3104TIP3    H230804   6.693   0.693  14.688  1.4173  0.6167  1.0519
 3105TIP3   OH230805   4.073   0.127  12.046 -1.0255 -0.2848  0.8457
 3105TIP3    H130806   4.054   0.192  11.978 -0.4725 -1.1987 -0.2074
 3105TIP3    H230807   4.025   0.158  12.122 -2.4138  0.2792 -0.2189
 3106TIP3   OH230808   3.304   4.163   3.298 -0.2964 -0.2677 -0.0171
 3106TIP3    H130809   3.331   4.245   3.257  0.6521 -0.0465  1.0049
 3106TIP3    H230810   3.304   4.182   3.392 -1.6900 -0.9737  0.1502
 3107TIP3   OH230811   4.348   4.401   1.975 -0.1232  0.2552 -0.4229
 3107TIP3    H130812   4.439   4.400   2.002  0.2583 -2.0574 -1.5454
 3107TIP3    H230813   4.350   4.437   1.886 -0.4381  1.1022 -0.0922
 3108TIP3   OH230814   0.195   5.773   2.381 -0.0644  0.4652  0.4090
 3108TIP3    H130815   0.143   5.853   2.372  0.3254  0.5529 -1.4047
 3108TIP3    H230816   0.204   5.740   2.292 -1.3411 -2.3773  1.2331
 3109TIP3   OH230817   4.854   5.826  14.760  0.5565  0.3493 -0.0180
 3109TIP3    H130818   4.812   5.910  14.778  1.6365  1.0359 -0.5591
 3109TIP3    H230819   4.899   5.840  14.677  1.4769 -0.4823  0.3251
 3110TIP3   OH230820   1.291   0.529   5.969 -0.4556 -0.0887 -0.2211
 3110TIP3    H130821   1.235   0.606   5.984  1.3417  1.0994  0.7784
 3110TIP3    H230822   1.277   0.474   6.046  0.4870  0.7172  0.5579
 3111TIP3   OH230823   5.990   5.827   2.132 -0.6068  0.2926 -0.2462
 3111TIP3    H130824   6.085   5.826   2.141 -0.4966 -1.7642 -0.8837
 3111TIP3    H230825   5.974   5.854   2.041 -0.5533 -0.3122 -0.4434
 3112TIP3   OH230826   5.999   0.031  14.370 -0.5405 -0.3614 -0.4469
 3112TIP3    H130827   5.984   0.085  14.292  2.9057 -0.9593 -1.6885
 3112TIP3    H230828   5.975   0.088  14.443 -0.5166  1.5391 -1.8349
 3113TIP3   OH230829   3.547   5.569   5.825 -0.2341  0.6345  0.0086
 3113TIP3    H130830   3.536   5.491   5.769  0.9893 -0.6608  1.4916
 3113TIP3    H230831   3.617   5.545   5.885 -0.0382  2.8122  0.7059
 3114TIP3   OH230832   0.191   2.077   3.288  0.5141  0.7808  0.0450
 3114TIP3    H130833   0.254   2.148   3.298  1.1471  0.2160  0.1476
 3114TIP3    H230834   0.211   2.017   3.360  0.2812  0.2742 -0.3097
 3115TIP3   OH230835   0.228   6.171  15.203  0.2362 -0.1743 -0.1886
 3115TIP3    H130836   0.248   6.250  15.153  1.3211  0.2428  0.8417
 3115TIP3    H230837   0.165   6.200  15.269  0.8949 -0.0606  0.4096
 3116TIP3   OH230838   5.699   5.596   4.260  0.1609  0.1646  0.0913
 3116TIP3    H130839   5.794   5.590   4.273  0.6758 -0.0369 -2.8926
 3116TIP3    H230840   5.687   5.673   4.204 -0.9976 -1.5395 -2.1945
 3117TIP3   OH230841   2.636   0.281  14.721  0.4396 -0.3013  0.1367
 3117TIP3    H130842   2.576   0.207  14.727  0.9006 -0.8189 -1.2421
 3117TIP3    H230843   2.667   0.280  14.631 -0.0477  1.9932 -0.1173
 3118TIP3   OH230844   1.185   1.502   2.323  0.3024  0.3249  0.5138
 3118TIP3    H130845   1.142   1.417   2.335 -0.4880  0.6208 -0.0955
 3118TIP3    H230846   1.243   1.510   2.398 -0.9941  0.0553  1.5904
 3119TIP3   OH230847   4.404   2.039  14.357 -0.1226  0.0385  0.1077
 3119TIP3    H130848   4.326   2.044  14.300 -0.5938 -1.2201  0.6293
 3119TIP3    H230849   4.430   2.131  14.367 -0.9627  0.4177 -0.8545
 3120TIP3   OH230850   3.855   2.071   4.687 -0.1195 -0.1261 -0.8944
 3120TIP3    H130851   3.926   2.061   4.750 -2.1939  0.2574  1.6891
 3120TIP3    H230852   3.793   2.001   4.709 -1.0369  0.1583 -2.3911
 3121TIP3   OH230853   2.712   3.540  10.523  0.1336 -0.1685 -0.8856
 3121TIP3    H130854   2.624   3.577  10.518 -0.9911 -2.4727  0.2119
 3121TIP3    H230855   2.710   3.483  10.600  2.3222 -0.9679 -1.3302
 3122TIP3   OH230856   0.681   5.843   0.117 -0.4924  0.0716 -0.1018
 3122TIP3    H130857   0.710   5.848   0.026 -0.1516 -0.6843 -0.0439
 3122TIP3    H230858   0.592   5.806   0.111 -0.0019 -1.1583 -0.0696
 3123TIP3   OH230859   5.136   0.384  14.637 -1.2387 -0.4450 -0.1465
 3123TIP3    H130860   5.185   0.307  14.607 -0.1806 -0.3134  1.1814
 3123TIP3    H230861   5.121   0.435  14.557  2.0196  0.1955 -0.4824
 3124TIP3   OH230862   3.210   1.662   2.712  0.1149 -0.3289 -0.0977
 3124TIP3    H130863   3.207   1.757   2.727 -1.1182 -0.1797 -1.1098
 3124TIP3    H230864   3.276   1.651   2.644  0.7441 -0.2737  0.4986
 3125TIP3   OH230865   5.239   2.213  16.449  0.3943  0.1996  0.6300
 3125TIP3    H130866   5.193   2.135  16.417  1.8648 -0.7357  0.6638
 3125TIP3    H230867   5.322   2.213  16.400  0.9410  1.0480  1.5162
 3126TIP3   OH230868   3.029   3.745  14.457  0.1304 -0.0617 -0.6649
 3126TIP3    H130869   3.081   3.808  14.507 -1.2946  0.8551 -0.2796
 3126TIP3    H230870   2.971   3.705  14.522  1.2586 -2.1067 -0.8218
 3127TIP3   OH230871   4.243   3.417  13.050 -0.8882  0.2468 -0.6863
 3127TIP3    H130872   4.177   3.353  13.075 -1.3062  1.0205  0.2759
 3127TIP3    H230873   4.214   3.451  12.966 -0.9693 -0.3993 -0.9240
 3128TIP3   OH230874   3.793   6.804  12.295 -0.2572 -0.0158 -0.2433
 3128TIP3    H130875   3.821   6.890  12.263 -0.6612  0.5302  0.8216
 3128TIP3    H230876   3.868   6.747  12.277  0.5653  0.8601  0.2810
 3129TIP3   OH230877   4.206   2.657   5.970  0.2378  0.7453 -0.0738
 3129TIP3    H130878   4.257   2.622   5.897 -0.6408  0.6231 -0.6417
 3129TIP3    H230879   4.115   2.638   5.947 -0.1053  1.4235  0.6759
 3130TIP3   OH230880   3.350   0.198   5.303 -0.1957 -0.3170  0.2823
 3130TIP3    H130881   3.298   0.121   5.281 -2.1412  1.6153 -2.6256
 3130TIP3    H230882   3.408   0.209   5.227  0.5218  0.7093  0.9621
 3131TIP3   OH230883   0.683   1.687   6.160 -0.3213  0.2079  0.0825
 3131TIP3    H130884   0.618   1.743   6.116  0.3979  0.3930 -0.7654
 3131TIP3    H230885   0.690   1.724   6.248  0.0297  1.3696 -0.4131
 3132TIP3   OH230886   1.170   4.020   3.332  0.5248  0.9880  0.1449
 3132TIP3    H130887   1.170   3.942   3.388  0.0285  2.7934  2.8231
 3132TIP3    H230888   1.153   3.986   3.244  0.5812 -1.9282  1.1631
 3133TIP3   OH230889   5.132   3.719  15.208 -0.2773  0.2000  0.2868
 3133TIP3    H130890   5.198   3.679  15.264  0.0485  0.6424  0.2247
 3133TIP3    H230891   5.140   3.813  15.224 -0.7309  0.2756  0.1003
 3134TIP3   OH230892   3.500   3.738  14.575 -0.3274 -0.6525  0.5771
 3134TIP3    H130893   3.578   3.756  14.522 -0.8384 -1.7595 -0.5978
 3134TIP3    H230894   3.534   3.696  14.654  0.2329 -1.9234 -0.3040
 3135TIP3   OH230895   3.637   1.915  17.182 -0.1312 -0.1078  0.1676
 3135TIP3    H130896   3.642   1.984  17.248  0.2439 -0.2277  0.2711
 3135TIP3    H230897   3.608   1.838  17.231 -1.8198  0.2746 -0.1892
 3136TIP3   OH230898   6.687   4.066  14.709  0.1051 -0.3577 -0.2542
 3136TIP3    H130899   6.679   4.060  14.614 -0.4158  1.1155 -0.3388
 3136TIP3    H230900   6.648   4.151  14.731 -0.1686 -0.8448  1.3191
 3137TIP3   OH230901   0.380   6.059   4.041  0.1618 -0.3718  0.3115
 3137TIP3    H130902   0.303   6.106   4.007  0.7082  0.8198  0.6915
 3137TIP3    H230903   0.387   5.982   3.984 -0.1518  0.5200 -0.9822
 3138TIP3   OH230904   6.788   4.664  15.242  0.9413  0.6316 -0.4515
 3138TIP3    H130905   6.720   4.706  15.189  2.3252  1.1674 -1.8750
 3138TIP3    H230906   6.814   4.731  15.304 -0.6036  0.0395  0.9198
 3139TIP3   OH230907   4.163   4.694   5.825  0.2333  0.0399  0.2715
 3139TIP3    H130908   4.233   4.679   5.762  0.0250  0.0005  0.0449
 3139TIP3    H230909   4.191   4.648   5.904  1.2998  1.5115  0.7884
 3140TIP3   OH230910   1.824   0.864  16.577  0.3203 -0.7440 -0.3329
 3140TIP3    H130911   1.815   0.959  16.583 -0.4927 -0.8164 -0.1784
 3140TIP3    H230912   1.735   0.833  16.557  0.5809 -1.4653 -0.4054
 3141TIP3   OH230913   2.582   1.344  13.987 -0.7252 -0.5114 -0.1113
 3141TIP3    H130914   2.500   1.331  13.939 -0.0471  0.1681 -1.5082
 3141TIP3    H230915   2.650   1.308  13.929  0.2193  1.1574 -0.0943
 3142TIP3   OH230916   4.105   1.352  16.787 -0.6479 -0.0089 -0.4491
 3142TIP3    H130917   4.081   1.356  16.695  0.9183 -2.1757 -1.0241
 3142TIP3    H230918   4.114   1.443  16.814 -0.6745  0.6575 -2.5553
 3143TIP3   OH230919   5.885   3.960  11.603  0.2092 -0.6389  0.9144
 3143TIP3    H130920   5.925   3.983  11.687  1.3564  1.1854 -0.0577
 3143TIP3    H230921   5.809   4.018  11.596  2.0195  1.7019 -0.7072
 3144TIP3   OH230922   3.907   1.447  15.830  0.1785 -0.2328  0.1029
 3144TIP3    H130923   3.850   1.371  15.824  0.6330 -0.8363  2.3269
 3144TIP3    H230924   3.947   1.454  15.743 -1.5434 -1.1539 -0.8110
 3145TIP3   OH230925   2.895   5.793  17.042 -0.2071  0.3509 -0.2718
 3145TIP3    H130926   2.926   5.879  17.014  2.1564 -0.4696 -0.4159
 3145TIP3    H230927   2.914   5.790  17.136  3.1839 -1.2292 -0.8540
 3146TIP3   OH230928   4.617   3.566   4.359 -0.0066 -0.2698 -0.0396
 3146TIP3    H130929   4.604   3.556   4.264 -1.4673 -1.7489  0.2620
 3146TIP3    H230930   4.540   3.615   4.388 -0.0169 -0.5915  0.4915
 3147TIP3   OH230931   4.789   3.760  16.988  0.9022  0.4862  0.2264
 3147TIP3    H130932   4.756   3.850  16.992 -2.5571 -0.5645 -0.8337
 3147TIP3    H230933   4.841   3.758  16.908  0.2335  1.3663 -0.2567
 3148TIP3   OH230934   4.067   3.265  13.680  0.4059 -0.0534 -0.4977
 3148TIP3    H130935   4.016   3.225  13.609  2.4375 -2.6657 -0.6263
 3148TIP3    H230936   4.117   3.334  13.638  0.7244 -0.8136 -1.3959
 3149TIP3   OH230937   5.044   5.312  15.179 -0.4242  0.2915  0.0882
 3149TIP3    H130938   4.979   5.248  15.209  1.1917 -0.9262  1.1300
 3149TIP3    H230939   5.030   5.318  15.085  1.6735 -4.4930 -0.8519
 3150TIP3   OH230940   3.258   1.783   4.032  0.3718 -0.4287 -0.5548
 3150TIP3    H130941   3.275   1.871   3.997 -2.1675  1.0506  1.5257
 3150TIP3    H230942   3.280   1.790   4.125  1.1246 -2.3618 -0.5466
 3151TIP3   OH230943   2.980   4.563  12.241  0.5371 -0.2676 -0.0657
 3151TIP3    H130944   2.942   4.478  12.222 -0.8379  0.1039  0.9119
 3151TIP3    H230945   3.058   4.543  12.293  0.2989 -0.9241  0.0469
 3152TIP3   OH230946   3.214   3.081   3.708  0.2982 -0.4405 -0.4206
 3152TIP3    H130947   3.294   3.070   3.760 -0.3111 -2.7448  0.1332
 3152TIP3    H230948   3.239   3.142   3.638  2.3955 -0.7420  0.0075
 3153TIP3   OH230949   0.102   1.412  12.512 -0.2560 -0.3961  0.1576
 3153TIP3    H130950   0.083   1.365  12.593 -2.0002  2.3321  1.4638
 3153TIP3    H230951   0.029   1.391  12.454  0.1826 -1.1032 -0.1523
 3154TIP3   OH230952   5.523   5.845  11.222  0.5393  0.4721  0.2839
 3154TIP3    H130953   5.442   5.812  11.183  0.5050 -1.1234  1.6333
 3154TIP3    H230954   5.517   5.940  11.212 -0.2496  0.2462 -1.9929
 3155TIP3   OH230955   4.467   0.075   5.988 -0.0296 -0.3276  0.0670
 3155TIP3    H130956   4.485   0.139   5.919 -0.7910 -0.0114  0.1446
 3155TIP3    H230957   4.528   0.098   6.058  1.6979 -1.4937 -0.9796
 3156TIP3   OH230958   5.991   5.685  12.726 -0.0362 -0.2782  0.3539
 3156TIP3    H130959   5.917   5.700  12.668 -0.1334  1.8848  0.9623
 3156TIP3    H230960   6.064   5.666  12.668 -0.5536 -0.0668 -0.3752
 3157TIP3   OH230961   5.498   5.353   0.668 -0.0703  0.0221 -0.7052
 3157TIP3    H130962   5.509   5.331   0.576 -0.7667 -1.1192 -0.5434
 3157TIP3    H230963   5.431   5.292   0.699  0.1438  0.3952  0.5510
 3158TIP3   OH230964   6.666   1.487  11.617  0.3565 -0.1824 -0.1310
 3158TIP3    H130965   6.632   1.423  11.679 -0.7665  2.0023  1.6926
 3158TIP3    H230966   6.751   1.513  11.653  1.9028 -2.1181 -2.0744
 3159TIP3   OH230967   1.988   5.180   0.458  0.1859  0.1327  0.0049
 3159TIP3    H130968   2.071   5.221   0.480  0.4703  0.6483 -1.8455
 3159TIP3    H230969   2.010   5.088   0.444  0.2346  0.0568  0.5523
 3160TIP3   OH230970   5.992   6.135  11.125 -0.0798 -0.7389  0.1209
 3160TIP3    H130971   5.964   6.049  11.092 -1.0115 -0.6249  0.5838
 3160TIP3    H230972   6.031   6.117  11.210 -2.3547 -0.5029  1.3001
 3161TIP3   OH230973   1.456   6.299  17.098  0.4641 -0.2501  0.1899
 3161TIP3    H130974   1.511   6.281  17.174  0.3340 -1.4428  0.0134
 3161TIP3    H230975   1.453   6.395  17.093  2.3090 -0.1565  0.3358
 3162TIP3   OH230976   3.360   2.475  13.835 -0.9381  0.4697 -0.4718
 3162TIP3    H130977   3.419   2.496  13.763  0.3386 -0.5586  0.2569
 3162TIP3    H230978   3.349   2.558  13.882 -1.6765  1.1151 -1.7360
 3163TIP3   OH230979   5.214   4.882  12.876 -0.1851  0.4198 -0.6371
 3163TIP3    H130980   5.157   4.813  12.912  0.0302  0.7037  0.2896
 3163TIP3    H230981   5.166   4.915  12.800 -0.9262  0.1646 -0.3007
 3164TIP3   OH230982   1.975   1.827  11.955 -0.4528  0.4391 -0.1717
 3164TIP3    H130983   2.064   1.821  11.988  0.0688 -0.4606 -1.6513
 3164TIP3    H230984   1.929   1.755  11.998 -0.1811  0.2087 -0.2694
 3165TIP3   OH230985   3.652   2.750   5.725  0.1195 -0.1347  0.4819
 3165TIP3    H130986   3.625   2.710   5.807  0.3197  0.7870  1.0130
 3165TIP3    H230987   3.621   2.841   5.731  0.7649  0.1371 -0.1447
 3166TIP3   OH230988   0.553   0.330   2.803  0.0924 -0.1075 -0.2018
 3166TIP3    H130989   0.517   0.272   2.871 -0.8441  2.2631  1.4600
 3166TIP3    H230990   0.648   0.325   2.815 -0.0256 -0.3985  0.6899
 3167TIP3   OH230991   5.624   5.923  16.485 -0.5485 -0.5936 -0.5777
 3167TIP3    H130992   5.638   5.998  16.543 -0.1483 -1.5636  0.6247
 3167TIP3    H230993   5.578   5.959  16.410 -0.3726  0.8558 -0.0186
 3168TIP3   OH230994   1.155   2.089   1.749 -0.2621  0.0933  0.7645
 3168TIP3    H130995   1.199   2.118   1.830  1.2995  0.3521 -0.1299
 3168TIP3    H230996   1.207   2.128   1.679 -2.4181  1.0627 -0.3853
 3169TIP3   OH230997   4.219   3.439  13.533 -0.5953  0.0449  0.0641
 3169TIP3    H130998   4.170   3.521  13.543  0.7651  0.7765  1.1848
 3169TIP3    H230999   4.308   3.461  13.560 -0.1829 -1.8119  0.3787
 3170TIP3   OH231000   5.202   1.918   5.706 -0.2461 -0.0702 -0.0156
 3170TIP3    H131001   5.247   1.999   5.682 -2.6278  1.1309 -0.7590
 3170TIP3    H231002   5.238   1.895   5.792  3.8371 -0.8942 -1.7289
 3171TIP3   OH231003   3.435   1.429  13.568 -0.1166  0.1722 -0.1025
 3171TIP3    H131004   3.349   1.454  13.533  0.5070  0.3278 -1.5711
 3171TIP3    H231005   3.453   1.343  13.529  0.7548  0.5147 -0.4776
 3172TIP3   OH231006   5.897   2.250  11.819 -0.3466 -0.3313 -0.5265
 3172TIP3    H131007   5.971   2.217  11.871  1.2253  1.1349 -1.7026
 3172TIP3    H231008   5.820   2.214  11.862  1.0079 -1.4628  1.1192
 3173TIP3   OH231009   3.199   1.530  15.834  0.6859  0.3871  0.1673
 3173TIP3    H131010   3.191   1.487  15.749  1.5476 -0.2400  0.3945
 3173TIP3    H231011   3.153   1.471  15.894  0.2174  0.7483  0.1662
 3174TIP3   OH231012   4.713   5.018  11.301 -0.0105 -0.9499  0.1638
 3174TIP3    H131013   4.796   5.006  11.347  0.2162  0.8572  0.2828
 3174TIP3    H231014   4.704   4.938  11.248  2.5407 -0.6115 -0.9767
 3175TIP3   OH231015   1.321   5.827  15.732  0.5645  0.3323 -0.1152
 3175TIP3    H131016   1.333   5.920  15.749  2.9640  0.4001 -1.7315
 3175TIP3    H231017   1.399   5.785  15.769 -0.3445 -1.0318  0.3402
 3176TIP3   OH231018   2.294   1.720   1.285  0.1601  0.6378  0.6551
 3176TIP3    H131019   2.296   1.644   1.227 -0.0034  0.3949  0.9665
 3176TIP3    H231020   2.383   1.729   1.318  0.1247  0.4419  0.8011
 3177TIP3   OH231021   4.248   4.374  11.634  0.2128  0.4758 -0.0017
 3177TIP3    H131022   4.244   4.400  11.542 -0.8954  0.6143  0.0742
 3177TIP3    H231023   4.295   4.444  11.677 -2.9055  2.6112  0.2435
 3178TIP3   OH231024   4.464   2.839  12.038  0.5789  0.3080 -0.0170
 3178TIP3    H131025   4.412   2.893  12.097  0.6626 -0.9407  1.2258
 3178TIP3    H231026   4.548   2.828  12.083  0.5036 -0.9851 -0.1650
 3179TIP3   OH231027   1.171   3.731   4.688  0.6591  0.1188 -0.0045
 3179TIP3    H131028   1.161   3.752   4.595  0.2082  0.1673  0.0534
 3179TIP3    H231029   1.215   3.807   4.725 -1.3909  1.2295  0.2969
 3180TIP3   OH231030   4.406   5.099  12.215 -0.7215 -0.3247 -0.6070
 3180TIP3    H131031   4.497   5.128  12.213 -0.9263  0.4425  0.4648
 3180TIP3    H231032   4.406   5.023  12.274 -0.8818  0.1045 -0.0463
 3181TIP3   OH231033   2.577   1.070   5.737  0.1662  0.1213 -0.1115
 3181TIP3    H131034   2.605   1.044   5.650  0.9428  0.8708 -0.1029
 3181TIP3    H231035   2.659   1.088   5.784 -0.1371 -1.5731  1.2161
 3182TIP3   OH231036   0.634   5.543  15.391 -0.5199  0.3417 -0.3007
 3182TIP3    H131037   0.649   5.557  15.297 -1.8057  1.9661 -0.3124
 3182TIP3    H231038   0.673   5.457  15.409  0.1848  0.2107 -2.2082
 3183TIP3   OH231039   1.814   4.751  11.681  0.3159 -0.0756  0.1158
 3183TIP3    H131040   1.867   4.674  11.704  0.4534  0.0486  0.2167
 3183TIP3    H231041   1.831   4.764  11.588  0.3586 -0.1183  0.1169
 3184TIP3   OH231042   5.047   0.189  12.337 -0.3776  0.5037 -0.6820
 3184TIP3    H131043   4.984   0.148  12.278  0.6014 -1.0626 -0.7053
 3184TIP3    H231044   5.116   0.222  12.280  0.8828 -1.5684 -0.4682
 3185TIP3   OH231045   0.445   4.979  14.367  0.6276  0.0560 -0.6796
 3185TIP3    H131046   0.375   4.914  14.371  0.3921  0.3391 -0.1251
 3185TIP3    H231047   0.510   4.940  14.309  1.0281 -1.2113  0.5607
 3186TIP3   OH231048   4.250   2.330  11.583 -0.1606  0.1586  0.3083
 3186TIP3    H131049   4.278   2.419  11.605  1.8669 -0.0416 -1.1164
 3186TIP3    H231050   4.304   2.307  11.507 -0.1216 -2.5654  1.0820
 3187TIP3   OH231051   2.090   4.347  12.309 -0.3951 -0.9806  0.4070
 3187TIP3    H131052   1.998   4.356  12.332 -1.1350 -0.1413 -2.4130
 3187TIP3    H231053   2.091   4.279  12.242  1.2849 -2.0304  1.4452
 3188TIP3   OH231054   1.735   4.782   0.828 -0.9358 -0.0436 -0.0081
 3188TIP3    H131055   1.702   4.832   0.753 -0.7781  0.5383  0.3155
 3188TIP3    H231056   1.829   4.774   0.812 -1.2338 -2.0711 -1.1531
 3189TIP3   OH231057   1.230   6.317   5.778  0.0739 -0.4132  0.1275
 3189TIP3    H131058   1.242   6.379   5.707 -2.5488 -0.0595 -0.1319
 3189TIP3    H231059   1.228   6.231   5.735 -0.9995 -0.2423 -0.1939
 3190TIP3   OH231060   4.019   0.176   5.794  0.7897  0.3390  0.6070
 3190TIP3    H131061   4.014   0.087   5.827 -2.1386  0.3414  0.4276
 3190TIP3    H231062   4.067   0.169   5.712  0.5527 -1.0928  0.5687
 3191TIP3   OH231063   6.312   2.415   3.572  0.0462  0.2271 -0.0265
 3191TIP3    H131064   6.272   2.347   3.627 -1.6652  1.0289 -0.2031
 3191TIP3    H231065   6.320   2.375   3.486  0.7552 -0.3395  0.2970
 3192TIP3   OH231066   0.145   2.836   1.141 -0.0249  0.1989 -0.2391
 3192TIP3    H131067   0.143   2.780   1.063 -0.3011  2.5294 -2.0054
 3192TIP3    H231068   0.059   2.877   1.145  0.1336  0.4693  1.0490
 3193TIP3   OH231069   4.692   3.235   1.796 -0.2497  0.7559 -0.6762
 3193TIP3    H131070   4.787   3.247   1.806 -0.2210  0.4964 -0.6297
 3193TIP3    H231071   4.656   3.261   1.881 -0.1646  0.2742 -0.4894
 3194TIP3   OH231072   0.645   4.611   0.345 -0.0780 -0.1565  0.0628
 3194TIP3    H131073   0.704   4.586   0.417 -0.4944 -0.4936  0.2879
 3194TIP3    H231074   0.695   4.676   0.296  0.6771 -0.7703 -0.0192
 3195TIP3   OH231075   6.148   4.796   0.306  0.4650 -0.2699  0.1743
 3195TIP3    H131076   6.095   4.877   0.307  0.1755 -0.4560  1.3666
 3195TIP3    H231077   6.145   4.767   0.215  2.9183  2.5597 -0.9876
 3196TIP3   OH231078   3.236   4.381  15.267  0.4091  0.6105 -0.1514
 3196TIP3    H131079   3.306   4.436  15.304 -0.6618 -0.0490  3.2241
 3196TIP3    H231080   3.155   4.421  15.299 -0.5806 -0.6712 -0.9838
 3197TIP3   OH231081   3.182   6.399  16.399  0.3529 -0.2514 -0.2737
 3197TIP3    H131082   3.266   6.417  16.441  0.0974 -0.2041  0.2135
 3197TIP3    H231083   3.128   6.474  16.420  1.2091  1.4166 -3.3915
 3198TIP3   OH231084   6.720   3.788  16.992  0.2673  0.2593  0.2354
 3198TIP3    H131085   6.802   3.794  17.042  0.3335  0.3358  0.1165
 3198TIP3    H231086   6.657   3.840  17.043 -0.1891 -1.2323  1.2829
 3199TIP3   OH231087   3.962   4.633   0.045  0.2580  0.4391  0.2138
 3199TIP3    H131088   4.045   4.677   0.063  0.4828  0.0430  0.1484
 3199TIP3    H231089   3.959   4.624  -0.050  1.5984 -2.2975  0.3354
 3200TIP3   OH231090   2.912   6.598   0.545  0.4769 -0.1424 -0.0746
 3200TIP3    H131091   2.939   6.557   0.463  2.1207  0.5392  0.0856
 3200TIP3    H231092   2.992   6.602   0.598  0.3480  2.8027  0.0952
 3201TIP3   OH231093   2.044   6.118  15.038 -0.1604 -0.7101 -0.0466
 3201TIP3    H131094   2.051   6.201  15.086  1.6508 -1.4604  1.1036
 3201TIP3    H231095   1.978   6.069  15.086  2.9882 -2.2445  3.1894
 3202TIP3   OH231096   1.925   0.079   0.556  0.7841  0.2203 -0.0229
 3202TIP3    H131097   1.848   0.101   0.504 -1.4163 -0.9561  2.5214
 3202TIP3    H231098   1.981   0.157   0.549 -1.6892  2.1116 -0.1244
 3203TIP3   OH231099   5.188   0.864   0.600 -0.1418  0.2799  0.6422
 3203TIP3    H131100   5.226   0.822   0.677  1.6188  0.9114  0.1642
 3203TIP3    H231101   5.099   0.886   0.627  0.7459  1.4975  2.9472
 3204TIP3   OH231102   1.669   6.195   1.510 -0.2875 -1.0348  0.1617
 3204TIP3    H131103   1.658   6.111   1.464 -0.2331 -0.5437 -0.7638
 3204TIP3    H231104   1.744   6.236   1.467  0.3370 -0.9546  1.3014
 3205TIP3   OH231105   4.824   1.383   1.934 -0.1628 -0.7171 -0.3494
 3205TIP3    H131106   4.853   1.413   2.020 -2.8431 -0.5434  0.5755
 3205TIP3    H231107   4.866   1.298   1.923 -1.7088 -1.9921  2.3758
 3206TIP3   OH231108   2.726   5.883  11.957 -0.7116  0.0662  0.0672
 3206TIP3    H131109   2.787   5.819  11.922 -0.9323  0.1645 -0.5127
 3206TIP3    H231110   2.663   5.831  12.008 -0.6626 -0.1361 -0.0786
 3207TIP3   OH231111   0.372   6.407  13.192  0.0845 -0.7964 -0.0881
 3207TIP3    H131112   0.295   6.354  13.172 -0.2405 -1.5807  2.8252
 3207TIP3    H231113   0.341   6.497  13.187 -0.3739 -0.9981 -1.2361
 3208TIP3   OH231114   1.974   3.106   3.889 -0.1446 -0.0952  0.9900
 3208TIP3    H131115   1.980   3.131   3.981 -0.4049  0.0775  0.9602
 3208TIP3    H231116   1.960   3.011   3.891 -1.2268  0.0460  1.1693
 3209TIP3   OH231117   2.635   4.017  11.491 -0.0716 -0.0585  0.7598
 3209TIP3    H131118   2.580   3.957  11.442  1.4406 -0.1744 -0.9060
 3209TIP3    H231119   2.574   4.075  11.536 -1.5345 -1.4278  0.6127
 3210TIP3   OH231120   0.547   6.798   2.431 -0.0562 -0.1510 -0.7281
 3210TIP3    H131121   0.534   6.723   2.373  1.6178 -1.4308  0.4785
 3210TIP3    H231122   0.595   6.763   2.506 -0.1519  1.9232  0.3719
 3211TIP3   OH231123   3.643   6.092  12.762 -0.1856 -0.0204 -0.3418
 3211TIP3    H131124   3.597   6.095  12.678 -0.8559 -1.0554 -0.0353
 3211TIP3    H231125   3.579   6.123  12.826 -0.3224 -1.0068  0.0237
 3212TIP3   OH231126   2.801   3.250  16.544  0.2079  0.3752  0.1782
 3212TIP3    H131127   2.780   3.211  16.629 -0.6827 -2.4672 -1.2154
 3212TIP3    H231128   2.897   3.248  16.539  0.2181 -1.3113  0.3812
 3213TIP3   OH231129   1.328   5.362  14.906  0.2378 -0.5966  0.3428
 3213TIP3    H131130   1.245   5.409  14.908  0.0814 -0.8158 -0.3954
 3213TIP3    H231131   1.370   5.392  14.825  1.0028 -0.2790  0.8540
 3214TIP3   OH231132   4.044   4.578   5.562 -0.8447 -0.2002  0.0440
 3214TIP3    H131133   4.122   4.619   5.524 -0.5283  0.2206  1.1289
 3214TIP3    H231134   3.977   4.646   5.560 -0.6251  0.0442  0.8738
 3215TIP3   OH231135   2.273   2.386  13.786  0.1858 -0.4174  0.7607
 3215TIP3    H131136   2.296   2.476  13.764 -0.8214 -0.1942  0.5854
 3215TIP3    H231137   2.278   2.382  13.881 -1.5269  0.3506  0.9274
 3216TIP3   OH231138   3.099   1.582   4.271 -0.1079  0.1571  0.0039
 3216TIP3    H131139   3.188   1.592   4.238 -0.2137  0.0424 -0.3144
 3216TIP3    H231140   3.103   1.616   4.360  0.6049 -1.1836  0.5243
 3217TIP3   OH231141   4.585   5.578  16.699 -0.4500  0.0391  0.1146
 3217TIP3    H131142   4.546   5.542  16.779 -0.6318  0.0102  0.0114
 3217TIP3    H231143   4.592   5.672  16.716 -2.2487  0.3328 -0.5661
 3218TIP3   OH231144   5.181   5.409   4.827 -0.3703  0.1558 -0.1245
 3218TIP3    H131145   5.254   5.470   4.830 -0.2194 -0.0003 -0.5228
 3218TIP3    H231146   5.103   5.463   4.842 -0.1934  0.3604  0.0504
 3219TIP3   OH231147   2.866   6.422   2.646  0.3155 -0.4582  0.5943
 3219TIP3    H131148   2.809   6.488   2.606  0.2231 -1.1826 -0.4893
 3219TIP3    H231149   2.814   6.342   2.645  1.1307 -0.9836  0.1705
 3220TIP3   OH231150   3.586   4.853   6.357  0.4459  0.0523  0.1931
 3220TIP3    H131151   3.597   4.855   6.262 -0.4122 -0.6694  0.0555
 3220TIP3    H231152   3.635   4.776   6.385  1.0630  0.5169  0.3938
 3221TIP3   OH231153   3.040   0.572   0.593  0.2584  0.1790  0.3389
 3221TIP3    H131154   3.110   0.564   0.528  0.7310 -0.1162  0.8702
 3221TIP3    H231155   3.084   0.608   0.671 -0.5479  1.7630  0.0974
 3222TIP3   OH231156   0.501   6.097  16.171 -0.4857  0.3463 -0.0222
 3222TIP3    H131157   0.469   6.148  16.245 -0.6858 -0.3890  0.4048
 3222TIP3    H231158   0.438   6.026  16.162  0.9923 -1.1224  0.8098
 3223TIP3   OH231159   1.672   1.468   1.085 -0.1316 -0.3736 -0.4755
 3223TIP3    H131160   1.699   1.419   1.163  0.5435 -1.4580 -1.3638
 3223TIP3    H231161   1.592   1.425   1.057 -0.9039  0.6187  0.1360
 3224TIP3   OH231162   6.329   0.220  11.696 -0.1421  0.3547 -0.5716
 3224TIP3    H131163   6.291   0.283  11.634 -1.3516 -0.7115 -0.9660
 3224TIP3    H231164   6.304   0.254  11.782 -1.0102  0.3034 -0.7864
 3225TIP3   OH231165   1.499   0.964  14.270 -0.4935  0.3643 -0.3233
 3225TIP3    H131166   1.528   1.046  14.229 -0.5289  1.0884  1.0613
 3225TIP3    H231167   1.406   0.977  14.288 -0.2731  0.4235  0.8208
 3226TIP3   OH231168   6.675   0.142  16.323 -0.1844  0.5626  0.2807
 3226TIP3    H131169   6.640   0.064  16.279 -1.8086  1.7334 -0.6284
 3226TIP3    H231170   6.607   0.167  16.386 -0.8156  2.5137 -1.0562
 3227TIP3   OH231171   4.111   6.762   4.845  0.0207  0.5478 -0.4787
 3227TIP3    H131172   4.100   6.749   4.751 -0.2546  0.8981 -0.4963
 3227TIP3    H231173   4.029   6.802   4.873  0.9630  2.5989 -0.4963
 3228TIP3   OH231174   2.848   1.774   6.109 -0.5052 -0.1748  0.2958
 3228TIP3    H131175   2.936   1.743   6.130  0.2781  0.2590 -2.0044
 3228TIP3    H231176   2.822   1.826   6.185  0.1912 -2.2563  2.0554
 3229TIP3   OH231177   0.420   2.626  12.324 -0.1089 -0.2105  0.3411
 3229TIP3    H131178   0.352   2.596  12.264  0.6426  0.4866 -0.8980
 3229TIP3    H231179   0.502   2.615  12.275  0.4635  1.0449  0.9619
 3230TIP3   OH231180   5.713   6.319  15.496 -0.0954 -0.2531  0.5437
 3230TIP3    H131181   5.690   6.411  15.512 -0.1367 -0.3046  0.7898
 3230TIP3    H231182   5.759   6.292  15.575  1.6445  0.1001 -0.3040
 3231TIP3   OH231183   4.406   6.578   0.345  0.0428 -0.1789 -0.2046
 3231TIP3    H131184   4.399   6.484   0.359 -1.2577  0.2189  2.7325
 3231TIP3    H231185   4.452   6.610   0.423 -2.0251  1.8366  0.2955
 3232TIP3   OH231186   4.898   0.522  12.581 -0.4856  0.0820  0.5357
 3232TIP3    H131187   4.827   0.507  12.518 -0.2056 -0.0517  0.2467
 3232TIP3    H231188   4.943   0.437  12.585  0.3840  0.4929 -0.1922
 3233TIP3   OH231189   6.110   2.690  14.589  0.5162 -0.1616 -0.1815
 3233TIP3    H131190   6.171   2.720  14.657  0.3856  0.8662 -0.5174
 3233TIP3    H231191   6.024   2.719  14.619  0.0156 -2.3280  0.7218
 3234TIP3   OH231192   4.290   1.571   0.069 -0.5833  0.3271  0.0952
 3234TIP3    H131193   4.300   1.643   0.006 -0.2506  0.8541  0.7416
 3234TIP3    H231194   4.315   1.493   0.020  1.3307  0.9327  0.0320
 3235TIP3   OH231195   3.216   6.392   4.242 -0.1040  0.7024 -0.2523
 3235TIP3    H131196   3.310   6.407   4.232  0.6858 -3.2686 -0.6237
 3235TIP3    H231197   3.186   6.367   4.154 -1.2246  0.5778  0.1426
 3236TIP3   OH231198   4.994   0.989  13.265 -0.1355  0.3964  0.0374
 3236TIP3    H131199   4.979   1.082  13.244 -4.7064 -0.0331  0.2188
 3236TIP3    H231200   4.992   0.944  13.181  0.9677  0.3243  0.0378
 3237TIP3   OH231201   3.775   1.827   1.677 -0.2168 -0.1224 -0.2576
 3237TIP3    H131202   3.760   1.877   1.757 -0.9708  0.1723 -0.5643
 3237TIP3    H231203   3.689   1.824   1.634  0.5898  1.6574 -2.1660
 3238TIP3   OH231204   4.544   2.310   2.925 -0.0679 -0.1605  0.4787
 3238TIP3    H131205   4.497   2.391   2.943  0.3501  0.3391 -0.5625
 3238TIP3    H231206   4.489   2.264   2.861  0.0577 -0.3528  0.5065
 3239TIP3   OH231207   3.005   1.850  15.432  0.1529 -0.5272  0.0654
 3239TIP3    H131208   2.989   1.821  15.343 -1.0906 -0.3568  0.2120
 3239TIP3    H231209   3.085   1.804  15.459  0.2756 -0.9317 -0.9656
 3240TIP3   OH231210   1.401   1.057   1.696 -0.0517  0.1156 -0.6113
 3240TIP3    H131211   1.415   1.038   1.603 -2.1914  0.0788 -0.9737
 3240TIP3    H231212   1.467   1.124   1.717 -1.1000  1.9921 -2.8493
 3241TIP3   OH231213   2.725   0.425   6.517 -0.6660  0.7945 -1.2776
 3241TIP3    H131214   2.729   0.514   6.553 -1.5461  0.4736 -0.3504
 3241TIP3    H231215   2.808   0.385   6.542 -1.7010  0.1776  1.5532
 3242TIP3   OH231216   4.809   1.706  16.540  0.5969  0.0800  0.3982
 3242TIP3    H131217   4.897   1.721  16.506  0.7432 -0.5523  0.4737
 3242TIP3    H231218   4.785   1.620  16.505  0.0626  0.1865  0.4948
 3243TIP3   OH231219   5.398   1.530   1.183  0.0406  0.4305 -0.0388
 3243TIP3    H131220   5.413   1.585   1.259 -1.8357  1.9555 -0.6903
 3243TIP3    H231221   5.303   1.521   1.178  0.1305  0.0354 -1.9620
 3244TIP3   OH231222   6.528   6.430  11.090  0.2141  0.1318 -0.6131
 3244TIP3    H131223   6.481   6.500  11.135  0.0398  1.5014 -2.7645
 3244TIP3    H231224   6.461   6.364  11.071  0.1057 -0.0183  0.2354
 3245TIP3   OH231225   0.231   1.343   4.633 -0.0366 -0.8495 -0.0908
 3245TIP3    H131226   0.172   1.286   4.682 -0.8669 -0.6790 -0.8586
 3245TIP3    H231227   0.182   1.365   4.553  1.2411 -1.0860 -0.9746
 3246TIP3   OH231228   0.654   0.186   3.801  0.3109 -0.3609 -0.5250
 3246TIP3    H131229   0.658   0.111   3.741  2.6643 -1.0930  0.4271
 3246TIP3    H231230   0.698   0.155   3.880  0.4647  1.7280  0.2582
 3247TIP3   OH231231   4.314   5.795  11.226 -0.5106 -0.0375 -0.2982
 3247TIP3    H131232   4.232   5.757  11.194 -0.0001 -0.4539 -1.1338
 3247TIP3    H231233   4.309   5.887  11.200 -0.9565  0.0769  0.1622
 3248TIP3   OH231234   6.323   3.745  14.239 -0.1093 -0.1290 -0.1732
 3248TIP3    H131235   6.308   3.693  14.160  2.8678 -1.2556 -0.1256
 3248TIP3    H231236   6.323   3.681  14.311  0.9147  0.2843  0.2222
 3249TIP3   OH231237   4.133   4.525   0.898 -0.6122  0.4119 -0.4843
 3249TIP3    H131238   4.150   4.567   0.982  0.1028  0.4430 -0.6378
 3249TIP3    H231239   4.057   4.572   0.863 -0.4605  0.8863 -0.1883
 3250TIP3   OH231240   6.319   0.284   0.053  0.4905  0.5312  0.3011
 3250TIP3    H131241   6.234   0.254   0.085  0.6637 -1.2546 -0.8021
 3250TIP3    H231242   6.326   0.248  -0.035  2.3400  0.7423  0.3218
 3251TIP3   OH231243   2.148   0.913  13.321 -0.3586  0.3122  0.2705
 3251TIP3    H131244   2.114   0.921  13.410 -0.6766 -0.2284  0.1988
 3251TIP3    H231245   2.096   0.843  13.281 -0.8996  1.2078 -0.6558
 3252TIP3   OH231246   3.713   0.844   4.988  0.3749  0.1749 -0.2318
 3252TIP3    H131247   3.683   0.795   5.064  0.1880  2.8939  1.5744
 3252TIP3    H231248   3.806   0.862   5.005  0.1871  1.3122 -0.3178
 3253TIP3   OH231249   5.583   0.173   4.082  0.4477 -0.0932  0.0257
 3253TIP3    H131250   5.526   0.140   4.151 -0.0116 -0.8787 -0.7088
 3253TIP3    H231251   5.663   0.121   4.089 -1.0111 -2.9891 -2.4075
 3254TIP3   OH231252   4.747   4.861  15.408 -0.5330 -0.0278  0.2060
 3254TIP3    H131253   4.766   4.878  15.315 -2.7940 -0.3057 -0.3690
 3254TIP3    H231254   4.802   4.786  15.430  0.2415  0.2152 -0.8414
 3255TIP3   OH231255   3.313   4.270  16.538  0.8056  0.2146 -0.1830
 3255TIP3    H131256   3.303   4.366  16.535  1.0648  0.3313  1.6801
 3255TIP3    H231257   3.394   4.254  16.489  1.9379  1.1989  1.2656
 3256TIP3   OH231258   5.682   0.745   1.794  0.5079  0.0913 -0.6110
 3256TIP3    H131259   5.607   0.736   1.853 -0.3099 -1.2162 -1.8196
 3256TIP3    H231260   5.648   0.793   1.719  1.3141  0.9096 -0.4809
 3257TIP3   OH231261   6.652   4.000   4.992 -0.1501  0.1759 -0.1311
 3257TIP3    H131262   6.696   4.065   5.047 -0.0109  0.9705 -1.1663
 3257TIP3    H231263   6.631   4.046   4.911 -1.5843 -0.5987 -0.2373
 3258TIP3   OH231264   3.790   1.212  16.743  0.3630 -0.0766 -0.1850
 3258TIP3    H131265   3.712   1.244  16.697  0.4633  0.0722 -0.2521
 3258TIP3    H231266   3.837   1.290  16.770 -0.7156 -0.1150  1.9728
 3259TIP3   OH231267   4.031   3.246   3.284 -0.0064 -0.6824 -0.3172
 3259TIP3    H131268   4.104   3.283   3.335 -0.1946 -0.5451 -0.1471
 3259TIP3    H231269   4.006   3.167   3.331 -1.3931  0.4021  0.8611
 3260TIP3   OH231270   4.086   1.213   3.704 -0.3103 -0.3662  0.7697
 3260TIP3    H131271   3.996   1.226   3.733 -0.6586 -1.8947  0.4918
 3260TIP3    H231272   4.096   1.271   3.628 -1.2004 -0.4848  0.5484
 3261TIP3   OH231273   6.372   5.935  17.230  0.3413  0.3093 -0.2564
 3261TIP3    H131274   6.337   5.850  17.204  0.1240  0.5035 -0.6114
 3261TIP3    H231275   6.335   5.951  17.317  0.9279 -0.2628  0.1087
 3262TIP3   OH231276   3.009   6.279   6.312 -0.1279  0.1374  0.2690
 3262TIP3    H131277   3.053   6.295   6.396  0.4132  1.8006 -0.2764
 3262TIP3    H231278   3.073   6.307   6.246 -1.3025  0.8174 -0.6098
 3263TIP3   OH231279   0.576   4.245   3.124 -0.6625 -0.1613 -0.6623
 3263TIP3    H131280   0.555   4.161   3.084  1.8091 -1.0859 -0.1970
 3263TIP3    H231281   0.646   4.281   3.070  1.1521 -0.3723  1.4327
 3264TIP3   OH231282   1.650   3.835  12.629  0.0733 -0.3993 -0.3595
 3264TIP3    H131283   1.664   3.908  12.570 -0.9276  0.4478  0.4110
 3264TIP3    H231284   1.738   3.808  12.656  0.4466  2.3613  1.5424
 3265TIP3   OH231285   4.158   3.049   6.249  0.2311 -0.2156 -0.3535
 3265TIP3    H131286   4.205   3.128   6.278 -1.2197  0.8145 -0.6712
 3265TIP3    H231287   4.097   3.031   6.321  1.3249 -1.7601  0.2295
 3266TIP3   OH231288   5.195   6.396  15.772 -0.0122 -0.6385  0.1903
 3266TIP3    H131289   5.244   6.365  15.696 -0.6863  0.3152 -0.6512
 3266TIP3    H231290   5.217   6.488  15.780  0.4588 -0.8412  1.4920
 3267TIP3   OH231291   6.750   1.594   5.230  0.1347 -0.4440  0.2054
 3267TIP3    H131292   6.747   1.655   5.304 -0.1932  0.0587 -0.2171
 3267TIP3    H231293   6.793   1.644   5.160 -0.0038 -0.7479 -0.0983
 3268TIP3   OH231294   5.783   3.868  15.529  0.6012 -0.1442  0.0182
 3268TIP3    H131295   5.708   3.915  15.491 -0.2132  0.8465  2.6631
 3268TIP3    H231296   5.757   3.775  15.523 -1.5415  0.2307  2.0923
 3269TIP3   OH231297   1.005   3.354   4.698 -0.0207 -0.0514 -0.2241
 3269TIP3    H131298   1.088   3.386   4.734 -0.1151  1.0214 -0.9216
 3269TIP3    H231299   1.020   3.260   4.682  0.7396 -0.0685  0.5226
 3270TIP3   OH231300   3.610   2.314   5.578 -0.2212  0.3308 -0.0220
 3270TIP3    H131301   3.686   2.372   5.586  0.0537 -0.1432  0.9557
 3270TIP3    H231302   3.637   2.233   5.622 -0.6804 -0.4747 -1.1454
 3271TIP3   OH231303   2.340   6.414  15.515  0.3956 -0.2390  0.4816
 3271TIP3    H131304   2.259   6.376  15.549  0.7078 -2.4406 -0.9834
 3271TIP3    H231305   2.334   6.400  15.420  1.2228  2.2375 -0.0252
 3272TIP3   OH231306   5.345   6.782   2.962  0.2544 -0.2445 -0.5977
 3272TIP3    H131307   5.266   6.737   2.993 -0.5872  0.4619 -1.6275
 3272TIP3    H231308   5.317   6.827   2.882  0.8230  2.7571  0.7538
 3273TIP3   OH231309   2.718   6.614   0.725  0.4607 -0.1415  0.2690
 3273TIP3    H131310   2.792   6.586   0.672  1.0981 -0.6559  1.4026
 3273TIP3    H231311   2.757   6.661   0.799 -0.4668  1.5543 -0.2460
 3274TIP3   OH231312   6.391   5.613   2.754 -0.3402 -0.1062  0.2861
 3274TIP3    H131313   6.428   5.527   2.734 -0.3213 -0.2639  0.9549
 3274TIP3    H231314   6.443   5.674   2.703  2.3412 -0.1000  2.7442
 3275TIP3   OH231315   6.658   2.590   2.314  0.4459 -0.6722 -0.9174
 3275TIP3    H131316   6.614   2.563   2.233 -0.8174 -1.8014  0.1123
 3275TIP3    H231317   6.751   2.574   2.297  0.0576 -2.3307 -1.6254
 3276TIP3   OH231318   0.369   1.569   5.944  0.3533  0.1914  0.4391
 3276TIP3    H131319   0.436   1.632   5.918  0.0950  0.4308  0.3462
 3276TIP3    H231320   0.291   1.622   5.960  0.6643  0.1410  2.3636
 3277TIP3   OH231321   2.151   6.764  13.339  0.0750  0.0364  0.6651
 3277TIP3    H131322   2.059   6.738  13.343 -0.0377  0.1939 -0.6246
 3277TIP3    H231323   2.199   6.681  13.331 -0.2432  0.0660 -2.7779
 3278TIP3   OH231324   4.269   5.239   6.412 -0.8311  0.5636  0.1228
 3278TIP3    H131325   4.216   5.246   6.492 -2.6468  2.2351 -1.1326
 3278TIP3    H231326   4.295   5.329   6.393  0.1522  0.0962 -0.8041
 3279TIP3   OH231327   2.017   1.604  16.841 -0.3415  0.2868 -0.2533
 3279TIP3    H131328   2.019   1.540  16.913  0.0859  0.5406 -0.0367
 3279TIP3    H231329   2.107   1.608  16.810 -0.3204  0.9415 -0.1213
 3280TIP3   OH231330   3.301   3.709  14.235  0.0560  0.0542 -0.1369
 3280TIP3    H131331   3.268   3.753  14.156  0.0840 -0.8315 -0.6614
 3280TIP3    H231332   3.223   3.669  14.274  0.1439 -0.0656 -0.0857
 3281TIP3   OH231333   2.724   0.816  12.697 -0.7313  0.6629 -0.0375
 3281TIP3    H131334   2.660   0.788  12.633 -1.2476  0.3297  0.6104
 3281TIP3    H231335   2.761   0.897  12.662  2.3644 -1.7881 -3.0649
 3282TIP3   OH231336   3.389   6.700  15.128 -0.0515  0.2452 -0.2256
 3282TIP3    H131337   3.439   6.732  15.203 -1.0143 -2.1281  1.5784
 3282TIP3    H231338   3.425   6.612  15.111 -1.4223 -0.2047 -0.9846
 3283TIP3   OH231339   0.829   1.343   2.481  0.2159 -0.0556  0.2164
 3283TIP3    H131340   0.890   1.321   2.410  0.0742 -2.6211  0.8256
 3283TIP3    H231341   0.805   1.434   2.463  0.4728 -0.4631 -2.8365
 3284TIP3   OH231342   3.562   4.687   5.679 -0.0722  0.3022 -0.3778
 3284TIP3    H131343   3.560   4.679   5.774  1.6755  1.3155 -0.2008
 3284TIP3    H231344   3.598   4.603   5.649  0.6275  0.4679 -0.0266
 3285TIP3   OH231345   1.190   0.759   0.577 -0.7447 -0.3208  0.4022
 3285TIP3    H131346   1.225   0.820   0.512 -2.0751 -0.3363 -0.3653
 3285TIP3    H231347   1.164   0.682   0.526 -2.2075 -0.1578  0.8804
 3286TIP3   OH231348   4.615   0.535   3.449 -0.0256 -0.4733 -0.2675
 3286TIP3    H131349   4.616   0.496   3.536  1.2116  0.5526  0.2159
 3286TIP3    H231350   4.708   0.548   3.428 -0.3657  2.1688 -0.4045
 3287TIP3   OH231351   4.733   0.389   2.182  0.0880  0.1555  0.0895
 3287TIP3    H131352   4.764   0.354   2.098 -0.5746  1.3137 -0.6603
 3287TIP3    H231353   4.721   0.483   2.166  1.9761  0.8109  2.0839
 3288TIP3   OH231354   3.206   0.926  13.426 -0.0435  0.1446 -0.3829
 3288TIP3    H131355   3.201   1.017  13.456 -1.7864 -0.2055  0.5102
 3288TIP3    H231356   3.163   0.926  13.341 -2.6212 -0.2642  0.8246
 3289TIP3   OH231357   4.465   0.625   2.693  0.9109  0.2656 -0.2932
 3289TIP3    H131358   4.425   0.706   2.723  1.0866  0.7105 -1.2247
 3289TIP3    H231359   4.504   0.587   2.772  0.1914  0.7040  0.2903
 3290TIP3   OH231360   3.495   5.072   5.447 -0.1330 -0.0259 -0.4777
 3290TIP3    H131361   3.561   5.044   5.383 -1.9096  0.4776 -2.6412
 3290TIP3    H231362   3.545   5.124   5.510  1.4417  1.2986 -2.6437
 3291TIP3   OH231363   0.242   1.888   4.260 -0.1986  0.4285 -0.3857
 3291TIP3    H131364   0.303   1.928   4.198 -0.4791  1.5296  0.0200
 3291TIP3    H231365   0.182   1.838   4.205  1.0708 -0.7175 -0.7864
 3292TIP3   OH231366   5.156   1.372  16.921  0.0853 -0.2291  0.0741
 3292TIP3    H131367   5.250   1.359  16.912  0.6471  0.2791  3.8640
 3292TIP3    H231368   5.121   1.285  16.939 -0.1300 -0.3065 -0.6539
 3293TIP3   OH231369   4.636   1.502  14.614 -0.6589  0.0616  0.3408
 3293TIP3    H131370   4.550   1.517  14.577 -1.1124 -2.3978  0.1959
 3293TIP3    H231371   4.689   1.469  14.541  0.3139  1.1767  0.5099
 3294TIP3   OH231372   4.622   1.802  12.577 -0.3423 -0.0149 -0.4737
 3294TIP3    H131373   4.605   1.774  12.668  2.0776 -2.6828 -0.7206
 3294TIP3    H231374   4.545   1.772  12.529 -0.4057 -1.1342  0.2756
 3295TIP3   OH231375   4.883   2.852   1.205 -1.0639  0.1683 -0.1305
 3295TIP3    H131376   4.897   2.846   1.300 -0.3430  0.2159 -0.2231
 3295TIP3    H231377   4.969   2.831   1.167 -0.5189  2.9088 -0.6800
 3296TIP3   OH231378   6.431   2.096   2.661  0.1161  0.0050 -0.7355
 3296TIP3    H131379   6.480   2.064   2.585  0.8725 -0.0424 -0.2327
 3296TIP3    H231380   6.379   2.020   2.689  1.4610 -0.6505  0.0914
 3297TIP3   OH231381   2.358   5.472  13.348  0.2256  0.0171 -0.0306
 3297TIP3    H131382   2.354   5.401  13.285  0.8075  0.7249 -0.8850
 3297TIP3    H231383   2.354   5.552  13.295 -2.7607  0.7123  1.0045
 3298TIP3   OH231384   1.480   3.993  13.302 -0.4498 -0.3358  0.3698
 3298TIP3    H131385   1.531   3.959  13.375 -1.3245 -0.3592  0.9768
 3298TIP3    H231386   1.395   4.013  13.339 -1.8990 -3.0118 -1.1517
 3299TIP3   OH231387   5.089   6.060  16.673  0.4929 -0.1656 -0.1916
 3299TIP3    H131388   5.029   6.067  16.599 -0.0257 -1.3528  0.0875
 3299TIP3    H231389   5.171   6.028  16.635  0.2961 -0.5621 -0.2881
 3300TIP3   OH231390   2.664   0.045  14.114  0.1435 -0.0346  0.5368
 3300TIP3    H131391   2.637  -0.046  14.103 -1.2445  0.2850  1.1407
 3300TIP3    H231392   2.615   0.093  14.047 -0.7272  0.5347  1.5426
 3301TIP3   OH231393   2.969   6.263  15.350  0.1681  0.3546  0.2791
 3301TIP3    H131394   2.895   6.209  15.380  0.7283  0.0925  1.2151
 3301TIP3    H231395   3.040   6.243  15.411  1.1789  0.2296 -0.8979
 3302TIP3   OH231396   5.302   5.822  13.930 -0.3074 -0.3535 -0.2130
 3302TIP3    H131397   5.354   5.802  13.852  1.2690 -0.2745  0.7699
 3302TIP3    H231398   5.212   5.826  13.898  0.0961 -1.9918 -1.7258
 3303TIP3   OH231399   3.619   2.094   3.398  0.0611 -0.1114  0.3912
 3303TIP3    H131400   3.644   2.164   3.459 -0.7751 -1.6696  2.5943
 3303TIP3    H231401   3.703   2.065   3.361  0.5429  1.1005  0.4525
 3304TIP3   OH231402   6.717   6.218  11.765  0.8043 -0.0873  0.2511
 3304TIP3    H131403   6.684   6.130  11.781  1.5174 -0.7879 -1.7994
 3304TIP3    H231404   6.698   6.234  11.673  1.6381  1.4904  0.3287
 3305TIP3   OH231405   3.984   0.423  14.517  0.5240  0.5353  0.6465
 3305TIP3    H131406   4.049   0.410  14.586 -0.2313 -0.3289  1.2072
 3305TIP3    H231407   3.912   0.365  14.540 -0.3328  1.2626 -0.1327
 3306TIP3   OH231408   1.948   3.095  16.799  0.8937  0.0238 -0.3363
 3306TIP3    H131409   1.916   3.183  16.817  2.5291  0.5295  0.2538
 3306TIP3    H231410   2.007   3.075  16.872  0.6943 -1.4897 -0.5580
 3307TIP3   OH231411   2.975   2.829  12.510 -0.4094  0.1690 -0.4750
 3307TIP3    H131412   2.965   2.734  12.512  4.0404 -0.4679  0.1913
 3307TIP3    H231413   3.007   2.849  12.422 -0.1550  0.9102 -0.2224
 3308TIP3   OH231414   6.299   2.059   2.980 -0.9407 -0.3572  0.8291
 3308TIP3    H131415   6.386   2.088   3.005  0.2918  0.4238 -3.4747
 3308TIP3    H231416   6.255   2.138   2.950 -1.5868 -1.2485 -0.7409
 3309TIP3   OH231417   1.199   3.251  12.511 -0.3075  0.6807 -0.4884
 3309TIP3    H131418   1.169   3.168  12.476 -0.4379  0.3219  0.4512
 3309TIP3    H231419   1.134   3.315  12.481 -0.9669  0.2177 -0.0482
 3310TIP3   OH231420   6.600   5.224  15.644 -0.3525 -0.2029  0.1472
 3310TIP3    H131421   6.572   5.204  15.733  1.5190 -0.6045  0.6774
 3310TIP3    H231422   6.562   5.154  15.591 -0.5102 -0.6230  0.8019
 3311TIP3   OH231423   4.752   2.585  14.774 -0.1597 -0.1071  0.4120
 3311TIP3    H131424   4.782   2.638  14.700  0.9619 -0.1282  0.8250
 3311TIP3    H231425   4.673   2.541  14.742 -0.5154  0.9863 -0.2851
 3312TIP3   OH231426   2.236   3.048   4.380  0.0853  0.7547 -0.0277
 3312TIP3    H131427   2.144   3.051   4.353  0.5198  0.8447 -1.5516
 3312TIP3    H231428   2.243   2.967   4.431 -0.0099 -1.4847 -3.2644
 3313TIP3   OH231429   1.439   0.581  16.648 -0.4742  0.7878  0.4101
 3313TIP3    H131430   1.456   0.621  16.563  1.2637 -0.4590  0.1071
 3313TIP3    H231431   1.432   0.654  16.709 -1.9816  1.7100 -0.8218
 3314TIP3   OH231432   5.971   2.516  15.134 -0.1354  0.1019 -0.5726
 3314TIP3    H131433   5.996   2.559  15.052 -1.1905  1.2794 -0.3160
 3314TIP3    H231434   6.020   2.563  15.202 -0.0181 -0.2130 -0.4372
 3315TIP3   OH231435   4.189   1.346  10.633 -0.2117  0.7400 -0.0430
 3315TIP3    H131436   4.096   1.344  10.611  0.1505  1.2125 -1.7866
 3315TIP3    H231437   4.199   1.425  10.687 -1.2317 -0.7917  2.5885
 3316TIP3   OH231438   3.407   6.113  13.335  0.5268  0.0726 -0.6080
 3316TIP3    H131439   3.392   6.101  13.428 -0.4022  0.2696 -0.7232
 3316TIP3    H231440   3.498   6.086  13.321  0.8734  0.6676  0.4500
 3317TIP3   OH231441   4.377   5.073   1.542 -0.0051  0.2982 -0.0461
 3317TIP3    H131442   4.456   5.086   1.489 -0.1121  0.5437 -0.1490
 3317TIP3    H231443   4.348   4.985   1.520 -0.9005  0.9336 -1.5543
 3318TIP3   OH231444   6.395   3.696  15.954  0.3680 -0.8877  0.5602
 3318TIP3    H131445   6.315   3.749  15.955 -0.4315 -2.0336  0.2785
 3318TIP3    H231446   6.413   3.682  15.861  1.3060 -0.0522  0.6121
 3319TIP3   OH231447   6.731   4.682   4.562  0.4970 -0.4825 -0.2786
 3319TIP3    H131448   6.707   4.766   4.601  0.7415 -0.3454 -0.4235
 3319TIP3    H231449   6.652   4.629   4.568  0.1744 -0.0510 -0.7066
 3320TIP3   OH231450   1.283   0.700   3.456 -0.0256 -0.1380 -0.5130
 3320TIP3    H131451   1.344   0.660   3.518 -0.7058  0.4334  0.5710
 3320TIP3    H231452   1.328   0.698   3.372  1.1868 -0.3555  0.1258
 3321TIP3   OH231453   2.215   6.204   4.639 -0.1910 -1.0234 -0.1113
 3321TIP3    H131454   2.181   6.148   4.570 -0.3435 -1.2969  0.1795
 3321TIP3    H231455   2.172   6.288   4.626 -2.3154 -1.8093  1.2290
 3322TIP3   OH231456   4.773   5.318   3.016  0.3985  0.0350  0.2736
 3322TIP3    H131457   4.741   5.405   3.040 -1.0382 -0.4737  0.2928
 3322TIP3    H231458   4.775   5.319   2.921 -1.0982 -0.3784  0.2063
 3323TIP3   OH231459   3.438   6.189   5.923  0.6131  0.6518 -0.2856
 3323TIP3    H131460   3.382   6.112   5.908 -1.0302  1.5304  0.9520
 3323TIP3    H231461   3.481   6.172   6.007  0.5693  0.8757 -0.2151
 3324TIP3   OH231462   1.486   2.669  12.484  0.3625  0.0508  0.2967
 3324TIP3    H131463   1.421   2.723  12.439 -1.2035  0.4517  2.8655
 3324TIP3    H231464   1.570   2.706  12.457 -0.4643  0.4504 -1.9704
 3325TIP3   OH231465   3.946   3.188  11.437  0.1017 -0.0522 -0.3024
 3325TIP3    H131466   3.868   3.233  11.470 -1.8934 -3.3014 -0.1112
 3325TIP3    H231467   3.995   3.256  11.391 -0.8332  3.0251  2.7664
 3326TIP3   OH231468   3.454   0.086  14.456 -0.1263 -0.4925  0.3157
 3326TIP3    H131469   3.435   0.130  14.373  0.9716  0.7284  0.6650
 3326TIP3    H231470   3.373   0.092  14.506  0.6096  3.6669  1.3948
 3327TIP3   OH231471   1.156   2.208   3.281 -0.1073  0.6450  0.4575
 3327TIP3    H131472   1.207   2.160   3.346 -0.1377  0.4822  0.3620
 3327TIP3    H231473   1.190   2.178   3.197  1.0478  2.0376  0.3916
 3328TIP3   OH231474   0.127   6.813   1.674 -0.3898 -0.4000  1.0032
 3328TIP3    H131475   0.144   6.813   1.580  0.6276  2.3165  1.1060
 3328TIP3    H231476   0.199   6.761   1.711 -0.6113 -1.2056  0.3460
 3329TIP3   OH231477   1.495   6.263  14.510  0.4528 -0.0031  0.2591
 3329TIP3    H131478   1.427   6.260  14.578 -0.1714 -0.3500 -0.3687
 3329TIP3    H231479   1.518   6.355  14.502  0.8889 -0.0070  1.2830
 3330TIP3   OH231480   0.725   3.130   1.909 -0.1650  0.1492  0.0319
 3330TIP3    H131481   0.694   3.215   1.877  3.1251  1.3874 -0.2495
 3330TIP3    H231482   0.697   3.068   1.841 -0.0818  1.5055 -1.3019
 3331TIP3   OH231483   4.441   3.412  16.115  0.0891  0.0571  0.3367
 3331TIP3    H131484   4.475   3.492  16.156  1.1900 -0.8982  1.3587
 3331TIP3    H231485   4.435   3.433  16.022 -1.4865  1.9492  0.7822
 3332TIP3   OH231486   6.323   4.503  14.115  0.0149  0.2348  0.0608
 3332TIP3    H131487   6.307   4.409  14.104 -1.8389  0.3855  1.1666
 3332TIP3    H231488   6.374   4.509  14.196  1.9962  0.0964 -1.0904
 3333TIP3   OH231489   6.336   6.375   1.393 -0.0316  0.4315  0.2379
 3333TIP3    H131490   6.247   6.407   1.402 -1.1238 -2.4616  1.0217
 3333TIP3    H231491   6.327   6.293   1.344  2.5626  1.3795 -2.0705
 3334TIP3   OH231492   6.293   1.924  15.024  0.1304  0.5518  0.7369
 3334TIP3    H131493   6.237   1.962  15.092 -2.2855 -0.7252 -0.4204
 3334TIP3    H231494   6.259   1.959  14.942  1.5401  0.2964  0.0033
 3335TIP3   OH231495   5.079   1.704  16.511  0.0698 -0.4228  0.4117
 3335TIP3    H131496   5.104   1.659  16.591  0.8666  0.0320  0.4243
 3335TIP3    H231497   5.122   1.654  16.441  2.1315  1.0754  0.5214
 3336TIP3   OH231498   2.292   6.719  17.204 -0.5905  0.2192  0.8072
 3336TIP3    H131499   2.352   6.762  17.264  0.7165 -0.6643  0.1916
 3336TIP3    H231500   2.319   6.627  17.204 -1.1051  0.0370 -0.4593
 3337TIP3   OH231501   1.711   2.253   3.603 -0.2540  0.6606 -0.1080
 3337TIP3    H131502   1.654   2.291   3.536  0.5731  1.1231 -0.5767
 3337TIP3    H231503   1.797   2.294   3.587  0.1647  0.1239  0.6881
 3338TIP3   OH231504   3.414   3.241  14.618 -0.8112 -1.0474  0.5128
 3338TIP3    H131505   3.327   3.207  14.639 -0.6952 -0.1407  2.7963
 3338TIP3    H231506   3.399   3.309  14.553 -1.6963 -1.4756  0.2494
 3339TIP3   OH231507   5.702   3.847  14.844 -0.3156 -0.1125 -0.4504
 3339TIP3    H131508   5.668   3.850  14.933  1.2915  0.2803  0.1876
 3339TIP3    H231509   5.682   3.934  14.808 -0.2314  0.0228 -0.1753
 3340TIP3   OH231510   1.015   3.360   5.002  0.0969  0.0919  0.0821
 3340TIP3    H131511   0.970   3.354   4.917  0.6306 -0.7755 -0.1496
 3340TIP3    H231512   1.030   3.453   5.015  0.8968  0.1664 -1.2519
 3341TIP3   OH231513   4.277   5.144   4.336 -0.2951 -0.0395  0.6424
 3341TIP3    H131514   4.216   5.116   4.404  0.5886 -1.9857  0.7142
 3341TIP3    H231515   4.330   5.066   4.318 -1.0973  0.0682 -2.9390
 3342TIP3   OH231516   1.743   6.791   2.224 -0.6746  0.0247  0.1944
 3342TIP3    H131517   1.772   6.798   2.315  2.8219 -3.7642 -0.3030
 3342TIP3    H231518   1.662   6.739   2.228  0.2335 -1.3860  1.1785
 3343TIP3   OH231519   1.125   1.831  15.275  0.1194  0.1361  0.2286
 3343TIP3    H131520   1.207   1.873  15.304 -0.0567  1.1336 -0.6675
 3343TIP3    H231521   1.112   1.760  15.337  0.3620  1.4876  1.8913
 3344TIP3   OH231522   5.800   5.081   2.462  0.1219  0.6612  0.0086
 3344TIP3    H131523   5.779   5.135   2.539  1.3654  1.3883 -0.1387
 3344TIP3    H231524   5.895   5.079   2.460  0.0932 -0.5818 -0.6833
 3345TIP3   OH231525   3.192   5.290   1.778 -0.2033  0.1269  0.4815
 3345TIP3    H131526   3.208   5.379   1.809 -1.4324  1.1534 -1.5814
 3345TIP3    H231527   3.169   5.300   1.686  2.7964 -2.6601 -0.7832
 3346TIP3   OH231528   3.739   3.002   3.757 -0.0916 -0.3315  0.3728
 3346TIP3    H131529   3.761   2.910   3.766  0.1983 -0.5367 -1.8418
 3346TIP3    H231530   3.821   3.049   3.775  0.5483 -0.7170 -1.3282
 3347TIP3   OH231531   2.679   0.021   5.021 -0.2023  0.4985 -0.5775
 3347TIP3    H131532   2.755  -0.016   5.067  0.2082  0.3323 -1.3689
 3347TIP3    H231533   2.715   0.054   4.938 -1.1048 -0.2077 -1.2742
 3348TIP3   OH231534   3.751   5.438   4.963  0.0098  0.1395 -0.0505
 3348TIP3    H131535   3.767   5.370   4.897  0.1310  0.9259 -0.8572
 3348TIP3    H231536   3.830   5.493   4.959 -0.0543  0.2881  0.6449
 3349TIP3   OH231537   2.510   3.860  12.854  0.4843 -0.2959  0.4076
 3349TIP3    H131538   2.547   3.865  12.766 -1.9956  1.2079 -0.6601
 3349TIP3    H231539   2.491   3.767  12.867  0.6675 -0.5156 -0.7552
 3350TIP3   OH231540   5.711   0.898  11.037  0.4242 -0.0345  0.5557
 3350TIP3    H131541   5.704   0.938  10.951 -0.8559 -1.7841 -0.2301
 3350TIP3    H231542   5.805   0.884  11.050  0.6305  0.2091 -0.5903
 3351TIP3   OH231543   0.033   6.558  14.084 -0.1486  0.2043  0.6396
 3351TIP3    H131544   0.110   6.559  14.028  0.7117 -0.3929  1.7660
 3351TIP3    H231545  -0.041   6.569  14.024  0.6867 -1.0555 -0.6810
 3352TIP3   OH231546   4.383   1.657   4.941  0.8076 -0.3236  0.4544
 3352TIP3    H131547   4.477   1.673   4.948  0.6103  0.1580  2.8116
 3352TIP3    H231548   4.353   1.717   4.872  2.1348 -0.0595  0.0888
 3353TIP3   OH231549   0.590   0.302   1.247  0.1336  0.2724 -0.2698
 3353TIP3    H131550   0.627   0.238   1.308 -1.1219 -1.5618 -1.3322
 3353TIP3    H231551   0.517   0.256   1.205  0.5652  1.6402 -2.7199
 3354TIP3   OH231552   4.906   3.484   4.497 -0.2603 -0.1191  0.6437
 3354TIP3    H131553   4.951   3.412   4.540 -0.7883 -0.2847  0.9246
 3354TIP3    H231554   4.907   3.460   4.404 -3.4035 -2.2209  1.0131
 3355TIP3   OH231555   5.202   0.985  12.313 -0.4095 -0.7486  0.3528
 3355TIP3    H131556   5.283   1.030  12.337 -0.6887 -0.9744  1.8288
 3355TIP3    H231557   5.160   1.043  12.249  0.3856 -0.0943  0.4168
 3356TIP3   OH231558   4.467   6.038  14.703 -0.1746  0.2431  0.2995
 3356TIP3    H131559   4.414   6.107  14.741 -0.2673  0.5753 -0.4273
 3356TIP3    H231560   4.427   6.019  14.619 -0.0981 -0.6373  0.4446
 3357TIP3   OH231561   0.424   6.788   3.371 -0.1087  0.0267 -0.2037
 3357TIP3    H131562   0.359   6.734   3.417  0.4987 -0.6456 -0.1246
 3357TIP3    H231563   0.377   6.870   3.352 -0.2747  0.5026  1.9594
 3358TIP3   OH231564   1.535   2.410  15.075 -0.0494  0.2781 -0.4618
 3358TIP3    H131565   1.452   2.367  15.090 -0.0136  0.5675  0.6805
 3358TIP3    H231566   1.572   2.367  14.997  1.0175 -3.3513  1.8228
 3359TIP3   OH231567   0.461   1.536  13.617 -0.4445 -0.2028  0.3270
 3359TIP3    H131568   0.481   1.545  13.524  1.2368 -0.3260  0.6410
 3359TIP3    H231569   0.456   1.626  13.649 -0.1067 -0.1733  0.2962
 3360TIP3   OH231570   0.072   0.535  11.648 -0.3063  0.7190 -0.0611
 3360TIP3    H131571   0.045   0.503  11.734  1.0492  1.1693  0.5710
 3360TIP3    H231572   0.002   0.508  11.589 -0.8102 -0.4572  1.0130
 3361TIP3   OH231573   6.819   3.915  16.427  0.4603 -0.3243  0.3565
 3361TIP3    H131574   6.846   3.970  16.501  0.4398 -0.3966  0.4172
 3361TIP3    H231575   6.732   3.883  16.451  0.8691 -1.1660  0.7555
 3362TIP3   OH231576   5.979   5.663  11.503  0.4805  0.1268  0.5312
 3362TIP3    H131577   5.983   5.682  11.410 -2.0440 -0.1984  0.2983
 3362TIP3    H231578   5.958   5.747  11.544  0.0842 -0.0153  0.6289
 3363TIP3   OH231579   1.235   0.746  15.074  0.0552  0.1764 -0.0009
 3363TIP3    H131580   1.228   0.794  15.157  0.4038  1.0305 -0.4575
 3363TIP3    H231581   1.309   0.786  15.029  0.4246 -0.8651 -0.3579
 3364TIP3   OH231582   0.319   0.038  15.299 -0.3703  0.1348 -0.3913
 3364TIP3    H131583   0.259  -0.033  15.321 -0.1744  0.1544  0.2214
 3364TIP3    H231584   0.314   0.044  15.203 -0.0130 -1.0433 -0.5048
 3365TIP3   OH231585   4.507   3.957   2.813 -0.2991 -0.2851 -0.1476
 3365TIP3    H131586   4.437   3.991   2.757  1.0664  0.8541 -1.2478
 3365TIP3    H231587   4.529   3.872   2.775  0.8001  0.5947 -1.5831
 3366TIP3   OH231588   4.193   3.284   2.831  0.2228  0.1461 -0.2161
 3366TIP3    H131589   4.123   3.350   2.836  1.8174  1.9032 -0.0881
 3366TIP3    H231590   4.206   3.270   2.737  0.2837  0.4701 -0.2574
 3367TIP3   OH231591   4.486   3.037  16.922  0.0002  0.3255 -0.4574
 3367TIP3    H131592   4.453   3.061  17.009  0.2573  0.0296 -0.2755
 3367TIP3    H231593   4.575   3.074  16.919 -0.4211  1.3219 -1.0322
 3368TIP3   OH231594   6.244   5.113  10.769  0.7023  0.1166 -0.4115
 3368TIP3    H131595   6.187   5.050  10.724  1.2787  0.2206 -1.3163
 3368TIP3    H231596   6.204   5.198  10.752  0.7867  0.1331 -0.5310
 3369TIP3   OH231597   6.676   6.424   1.374  0.0746 -0.0561  0.2640
 3369TIP3    H131598   6.688   6.344   1.323 -0.5210  1.3065 -2.2319
 3369TIP3    H231599   6.623   6.480   1.317  1.7216  2.6897  1.2304
 3370TIP3   OH231600   6.049   4.527  14.122  0.5078  0.0151  0.1210
 3370TIP3    H131601   6.135   4.526  14.079 -0.0620 -1.9989 -1.0547
 3370TIP3    H231602   6.060   4.590  14.194  3.8045 -2.0523  1.6608
 3371TIP3   OH231603   2.948   2.709  11.700 -0.1513 -0.1198  0.7848
 3371TIP3    H131604   2.954   2.721  11.795 -0.9765  1.3802  0.6872
 3371TIP3    H231605   3.010   2.640  11.680  1.0166  0.4565  2.2508
 3372TIP3   OH231606   6.418   0.561  11.781  0.3486 -0.0488  0.0422
 3372TIP3    H131607   6.411   0.551  11.876 -0.8411  3.3246  0.4472
 3372TIP3    H231608   6.386   0.478  11.745 -1.3288 -0.6043  2.5880
 3373TIP3   OH231609   4.028   4.783  15.093  0.6267  0.1059 -0.1287
 3373TIP3    H131610   3.962   4.852  15.084  0.8980  0.2473 -1.0749
 3373TIP3    H231611   3.982   4.703  15.069  0.5686  0.0860  0.0478
 3374TIP3   OH231612   1.825   1.876  13.840 -0.1657  0.1240  0.0424
 3374TIP3    H131613   1.887   1.912  13.903  0.4126  0.5697 -0.7597
 3374TIP3    H231614   1.754   1.841  13.893 -0.7997  2.4863  0.8605
 3375TIP3   OH231615   5.865   1.630   2.417  0.0464  0.3136  0.4285
 3375TIP3    H131616   5.829   1.700   2.362  0.6189 -0.1487 -0.5621
 3375TIP3    H231617   5.788   1.582   2.448 -0.4460  2.1082  2.1756
 3376TIP3   OH231618   4.517   3.279   2.368 -0.3063 -0.0063 -0.0511
 3376TIP3    H131619   4.510   3.356   2.313 -1.3354  0.5702  0.8453
 3376TIP3    H231620   4.440   3.283   2.425  1.0594 -0.1791  1.9046
 3377TIP3   OH231621   1.252   0.716  16.917 -0.4894  0.2211  0.6440
 3377TIP3    H131622   1.294   0.779  16.976 -0.2985 -0.3723  1.1569
 3377TIP3    H231623   1.201   0.770  16.857 -0.2774  0.8682  1.0299
 3378TIP3   OH231624   5.614   1.235  16.694 -0.0261  0.0576  0.4718
 3378TIP3    H131625   5.553   1.271  16.759 -0.8985  1.5785 -1.1124
 3378TIP3    H231626   5.567   1.243  16.611  0.8788 -2.2616 -0.3299
 3379TIP3   OH231627   6.201   5.968   0.615 -0.2029 -0.3151  0.0343
 3379TIP3    H131628   6.242   6.040   0.664 -0.2764 -0.6830  0.6526
 3379TIP3    H231629   6.265   5.946   0.548  0.7093 -0.9736  1.0773
 3380TIP3   OH231630   3.352   3.172  16.029 -0.2690  0.4179  0.2048
 3380TIP3    H131631   3.300   3.175  15.949 -0.1465 -0.3084  0.0886
 3380TIP3    H231632   3.310   3.104  16.083 -0.2530  0.7834  0.6863
 3381TIP3   OH231633   1.183   1.636   5.567  0.4322  0.1354  0.5320
 3381TIP3    H131634   1.142   1.669   5.647  0.2007  0.8426  0.1309
 3381TIP3    H231635   1.114   1.641   5.501  0.4869 -0.8647  0.3822
 3382TIP3   OH231636   4.334   0.934   5.038 -0.3493 -0.2282  0.1233
 3382TIP3    H131637   4.288   0.921   4.956  0.9284  0.6748 -0.7842
 3382TIP3    H231638   4.344   0.846   5.075 -1.0214 -0.6272 -0.6390
 3383TIP3   OH231639   0.368   4.035  10.777  0.1864  0.0997  0.2812
 3383TIP3    H131640   0.371   4.130  10.769  0.7036  0.0907  0.3405
 3383TIP3    H231641   0.454   4.005  10.746  1.0662 -0.1504  2.7233
 3384TIP3   OH231642   2.660   6.118   5.981  0.0334  0.6198  0.1164
 3384TIP3    H131643   2.569   6.089   5.981 -0.5889  2.4480  0.8228
 3384TIP3    H231644   2.671   6.163   5.898 -0.3014  2.0485  0.8191
 3385TIP3   OH231645   3.278   4.489   3.221  0.0833 -0.1892 -1.0534
 3385TIP3    H131646   3.244   4.453   3.139  0.1609  0.9107 -1.5811
 3385TIP3    H231647   3.204   4.538   3.258  0.5247  0.6920 -1.3049
 3386TIP3   OH231648   2.575   3.264   5.570 -0.4429  0.3626 -0.1258
 3386TIP3    H131649   2.577   3.266   5.474  0.8063  2.2537 -0.1275
 3386TIP3    H231650   2.667   3.262   5.595 -0.6633  2.1580  0.9947
 3387TIP3   OH231651   0.529   4.971  12.057  0.2362 -0.1498  0.0891
 3387TIP3    H131652   0.486   4.985  12.141  0.7454 -2.3322  0.7644
 3387TIP3    H231653   0.459   4.943  11.998  0.3352 -1.4404  0.5715
 3388TIP3   OH231654   2.448   4.526  15.567  0.1602 -0.0134  0.2706
 3388TIP3    H131655   2.448   4.621  15.581  0.8484 -0.0166  0.3334
 3388TIP3    H231656   2.507   4.492  15.634 -0.1447 -0.4990  0.2975
 3389TIP3   OH231657   6.045   5.462   5.802 -0.1004  0.3052 -0.1714
 3389TIP3    H131658   6.003   5.416   5.875  1.3829 -0.1795  0.4163
 3389TIP3    H231659   6.100   5.527   5.844  2.1095 -1.1044 -0.7183
 3390TIP3   OH231660   4.116   0.250  16.861 -0.0614 -0.3541 -0.5938
 3390TIP3    H131661   4.158   0.318  16.807 -2.7102  0.4772 -1.7693
 3390TIP3    H231662   4.149   0.167  16.825  0.7987  0.2384 -1.2150
 3391TIP3   OH231663   3.667   4.035  14.785  0.0019  0.3779 -0.0216
 3391TIP3    H131664   3.635   3.946  14.796 -2.3045  0.8903 -1.6472
 3391TIP3    H231665   3.759   4.025  14.763 -0.4649 -1.7203 -1.3289
 3392TIP3   OH231666   1.381   2.670   2.384  0.1569  0.2042 -0.5102
 3392TIP3    H131667   1.311   2.628   2.333  0.1611 -0.5677  0.1084
 3392TIP3    H231668   1.336   2.709   2.459  0.4718 -1.0210  0.3410
 3393TIP3   OH231669   0.794   5.188  13.041 -0.3159 -0.5855  0.2226
 3393TIP3    H131670   0.863   5.200  12.976 -0.8996  1.1840 -0.1507
 3393TIP3    H231671   0.839   5.165  13.122  0.9075  1.8959  0.3527
 3394TIP3   OH231672   0.517   0.568   1.133  0.3435  0.4098  0.1992
 3394TIP3    H131673   0.499   0.489   1.184  0.5361 -2.0937 -3.2396
 3394TIP3    H231674   0.608   0.590   1.155  0.5093 -0.7459  0.7804
 3395TIP3   OH231675   1.749   2.311   4.192  0.6297  0.4064 -0.1134
 3395TIP3    H131676   1.773   2.245   4.127 -0.9887  0.1611 -0.5015
 3395TIP3    H231677   1.829   2.325   4.243  0.8180 -2.4792  0.5455
 3396TIP3   OH231678   1.599   1.522   6.422 -0.6491 -0.8125 -0.7538
 3396TIP3    H131679   1.505   1.519   6.441 -0.6962 -0.7106 -0.9611
 3396TIP3    H231680   1.630   1.600   6.468 -1.2291  0.8921 -3.0284
 3397TIP3   OH231681   3.799   2.876  13.184  0.1753 -0.5017  0.2258
 3397TIP3    H131682   3.778   2.785  13.205  1.4552 -0.9131 -0.1861
 3397TIP3    H231683   3.765   2.889  13.096 -0.5878 -0.3742  0.5350
 3398TIP3   OH231684   3.554   0.180  15.584 -0.2226  0.8233 -0.3257
 3398TIP3    H131685   3.601   0.119  15.641 -0.9376  0.0635 -0.5396
 3398TIP3    H231686   3.530   0.252  15.642  0.4979  0.8396 -0.0389
 3399TIP3   OH231687   5.523   0.801   5.418 -0.2423  0.2954 -0.6082
 3399TIP3    H131688   5.507   0.873   5.358  1.8809  2.3111  1.0699
 3399TIP3    H231689   5.440   0.788   5.464 -0.9537  0.9207 -1.6992
 3400TIP3   OH231690   5.797   0.665   5.589  0.8282  0.2116  0.2088
 3400TIP3    H131691   5.862   0.658   5.659  0.6437  0.7430  0.4393
 3400TIP3    H231692   5.838   0.722   5.524  1.6669 -1.5594 -0.8984
 3401TIP3   OH231693   1.223   2.356  13.222 -0.0355  0.3813 -0.3468
 3401TIP3    H131694   1.275   2.276  13.229 -0.1178  0.4528  1.8492
 3401TIP3    H231695   1.281   2.425  13.255 -0.2173  1.1192 -1.5216
 3402TIP3   OH231696   1.672   2.118  14.605  0.4976 -0.3893  0.2120
 3402TIP3    H131697   1.640   2.041  14.653  1.7137 -2.8008 -2.5270
 3402TIP3    H231698   1.604   2.137  14.542 -0.4530  1.8549  1.7828
 3403TIP3   OH231699   2.281   0.153   0.370  0.2598 -0.3671  0.3403
 3403TIP3    H131700   2.216   0.186   0.432 -0.7452  0.3301 -1.0444
 3403TIP3    H231701   2.365   0.175   0.410 -0.3538  0.0531  1.4576
 3404TIP3   OH231702   3.469   6.460  15.968 -0.0159 -0.7610  0.4258
 3404TIP3    H131703   3.544   6.415  16.007  0.3196 -3.2332 -2.6648
 3404TIP3    H231704   3.394   6.404  15.989 -0.2222 -0.7927 -0.3863
 3405TIP3   OH231705   3.049   5.307   2.750  0.6847  0.1983 -0.6369
 3405TIP3    H131706   3.078   5.238   2.810 -1.6262 -0.2844  0.0542
 3405TIP3    H231707   3.119   5.372   2.751  2.3826 -1.5554 -0.3456
 3406TIP3   OH231708   0.095   2.913  13.995  0.1157  0.4378  0.3291
 3406TIP3    H131709   0.000   2.920  13.983 -0.3987 -1.4146  2.6448
 3406TIP3    H231710   0.125   2.862  13.919 -0.8170  0.5557 -0.1361
 3407TIP3   OH231711   2.117   3.521  15.997  0.1570 -0.5809 -0.0562
 3407TIP3    H131712   2.172   3.566  15.934  0.2259  0.0536  0.4423
 3407TIP3    H231713   2.126   3.572  16.078 -3.5147  1.4274 -0.6889
 3408TIP3   OH231714   2.621   4.364  12.101  0.2813 -0.0885 -0.1562
 3408TIP3    H131715   2.606   4.455  12.073 -1.3700 -0.6896 -1.3491
 3408TIP3    H231716   2.606   4.366  12.196  0.8905  0.9930 -0.0658
 3409TIP3   OH231717   2.284   4.311   4.215  0.1567  0.3849 -0.3038
 3409TIP3    H131718   2.291   4.302   4.120  0.5228 -0.7562 -0.1906
 3409TIP3    H231719   2.300   4.222   4.248 -0.1062  0.7424  0.8131
 3410TIP3   OH231720   2.981   5.023  14.670  0.1901  0.2262  0.1067
 3410TIP3    H131721   2.957   4.993  14.757  0.3309 -0.5810 -0.1216
 3410TIP3    H231722   2.900   5.060  14.634  0.2855  1.1465  0.8043
 3411TIP3   OH231723   4.817   4.038  16.301  0.2513  0.2186 -0.2094
 3411TIP3    H131724   4.899   4.086  16.306 -0.5011  1.6354 -0.7435
 3411TIP3    H231725   4.768   4.081  16.231 -1.7840  0.7733  1.4587
 3412TIP3   OH231726   2.296   5.488  12.265  0.0764 -0.1231 -0.4038
 3412TIP3    H131727   2.295   5.571  12.311 -1.6566 -0.0501 -0.5340
 3412TIP3    H231728   2.318   5.423  12.333  0.3491  0.3021 -0.0805
 3413TIP3   OH231729   0.745   3.151  14.180 -0.1183  0.0784  0.0203
 3413TIP3    H131730   0.763   3.152  14.273 -0.1052  1.5547  0.0247
 3413TIP3    H231731   0.830   3.138  14.139 -0.0706 -0.1691  0.1942
 3414TIP3   OH231732   4.001   2.637  16.335 -0.0052 -0.0907 -0.2063
 3414TIP3    H131733   4.060   2.561  16.335 -0.0253 -0.1307  1.3176
 3414TIP3    H231734   4.008   2.672  16.246  1.3922 -0.8057 -0.4159
 3415TIP3   OH231735   2.641   1.689   0.096 -0.0549  0.0399 -0.3307
 3415TIP3    H131736   2.594   1.630   0.155 -1.1705 -0.3928 -1.6104
 3415TIP3    H231737   2.582   1.764   0.084  0.0312 -0.0030 -1.0952
 3416TIP3   OH231738   0.643   0.988  15.600  0.7120  0.1295  0.3925
 3416TIP3    H131739   0.691   0.926  15.545 -0.2888  2.7599 -3.9703
 3416TIP3    H231740   0.708   1.055  15.623  0.7307 -0.0732  0.9466
 3417TIP3   OH231741   0.921   1.867  13.612  0.0451  0.6160  0.2914
 3417TIP3    H131742   0.961   1.784  13.636 -0.4909  0.6636  1.4503
 3417TIP3    H231743   0.877   1.850  13.529  0.9283  0.0738 -0.0747
 3418TIP3   OH231744   1.543   2.156   1.891 -0.1480  0.3348 -0.1998
 3418TIP3    H131745   1.550   2.101   1.813 -1.1598 -1.4516  0.9037
 3418TIP3    H231746   1.451   2.182   1.894  0.0847  1.2000 -0.0951
 3419TIP3   OH231747   5.277   1.168   1.194  0.2661 -0.2428 -0.1827
 3419TIP3    H131748   5.309   1.129   1.113  0.5646 -0.8470  0.2181
 3419TIP3    H231749   5.322   1.251   1.200  0.7497 -0.4928 -0.3010
 3420TIP3   OH231750   1.511   2.059  11.975  0.0739 -0.0325 -0.2961
 3420TIP3    H131751   1.428   2.014  11.960 -0.1521  0.1837  0.2663
 3420TIP3    H231752   1.549   2.015  12.051  1.5674 -1.6252 -1.9024
 3421TIP3   OH231753   1.603   4.872   5.820 -0.0769 -0.4953  0.0684
 3421TIP3    H131754   1.605   4.829   5.905  1.1692 -0.9921 -0.1925
 3421TIP3    H231755   1.536   4.939   5.828 -0.8693 -1.3846  1.0245
 3422TIP3   OH231756   3.950   4.760  17.070 -0.0561 -0.0743  0.4168
 3422TIP3    H131757   3.977   4.849  17.090 -0.3289  0.0171  0.3672
 3422TIP3    H231758   3.998   4.738  16.990  1.1608 -0.4933  1.2153
 3423TIP3   OH231759   4.888   3.307  12.329 -0.3034  0.4245  0.0852
 3423TIP3    H131760   4.915   3.371  12.263 -0.2913 -0.1553 -0.4793
 3423TIP3    H231761   4.887   3.224  12.282 -1.0413  0.1226  0.6240
 3424TIP3   OH231762   4.708   1.814   0.422  0.0977 -0.3299  0.4869
 3424TIP3    H131763   4.650   1.779   0.490  1.2166 -2.0889  0.6117
 3424TIP3    H231764   4.795   1.811   0.461  0.4016  1.5901  0.0486
 3425TIP3   OH231765   2.217   2.481   3.610  0.2332  0.5578  0.2699
 3425TIP3    H131766   2.199   2.564   3.653 -1.4587  0.1464  0.4163
 3425TIP3    H231767   2.220   2.417   3.681  1.5902  0.4850  0.1652
 3426TIP3   OH231768   3.126   2.830   2.877  0.5484 -0.0169  0.0557
 3426TIP3    H131769   3.163   2.918   2.874 -1.0041  0.6684  0.1877
 3426TIP3    H231770   3.132   2.804   2.969  0.2422  0.2877  0.1598
 3427TIP3   OH231771   1.178   4.159   1.339 -0.6117 -0.4037 -0.2575
 3427TIP3    H131772   1.187   4.215   1.416 -2.1176 -0.6807  0.1556
 3427TIP3    H231773   1.094   4.185   1.301 -0.9388 -1.8033 -0.5219
 3428TIP3   OH231774   1.927   1.588  12.096 -0.5505  0.0098 -0.3279
 3428TIP3    H131775   1.995   1.522  12.103 -1.2816 -0.7670 -0.4045
 3428TIP3    H231776   1.861   1.549  12.038 -1.2534  0.5687  0.0739
 3429TIP3   OH231777   6.144   4.148   3.950  0.0617 -0.7243 -0.2471
 3429TIP3    H131778   6.124   4.066   3.995  0.3914  0.6435  2.6550
 3429TIP3    H231779   6.104   4.139   3.864 -0.9256 -3.4452  0.3989
 3430TIP3   OH231780   1.601   4.752   3.335  0.2680 -0.1659 -0.2514
 3430TIP3    H131781   1.540   4.820   3.362  0.7304 -0.7175  2.4449
 3430TIP3    H231782   1.604   4.759   3.239  1.3080  4.4910 -0.1248
 3431TIP3   OH231783   6.034   3.263  15.315  0.5019  0.5754 -1.1256
 3431TIP3    H131784   6.011   3.242  15.405  3.8120  1.0130 -0.0089
 3431TIP3    H231785   5.992   3.195  15.263  0.5833 -1.2586  1.0323
 3432TIP3   OH231786   2.386   4.910  12.080  0.4124  0.0877  0.2270
 3432TIP3    H131787   2.344   4.935  12.161  0.8250 -1.1776  0.8546
 3432TIP3    H231788   2.480   4.911  12.100  0.5377  0.1040 -0.3314
 3433TIP3   OH231789   3.084   1.285   1.473 -0.6078  0.3111  0.6046
 3433TIP3    H131790   3.092   1.308   1.380 -0.2087  0.0691  0.5767
 3433TIP3    H231791   3.089   1.190   1.475 -1.8793  0.2404  0.7621
 3434TIP3   OH231792   2.992   5.325   5.262  0.1564  0.1978  0.1375
 3434TIP3    H131793   3.032   5.257   5.316  1.0057 -0.8004 -1.6494
 3434TIP3    H231794   3.066   5.375   5.227 -0.2412 -0.1939 -1.3447
 3435TIP3   OH231795   5.122   3.883  16.304 -0.1562 -0.0528 -0.0151
 3435TIP3    H131796   5.153   3.962  16.260 -1.4076  1.2439  1.3310
 3435TIP3    H231797   5.059   3.844  16.243  0.7019 -0.2299 -0.8212
 3436TIP3   OH231798   1.825   6.005  11.900 -0.7920 -0.2530 -0.5416
 3436TIP3    H131799   1.754   5.946  11.873 -0.5330 -0.2557 -1.2284
 3436TIP3    H231800   1.799   6.034  11.988 -0.8106 -1.5679 -0.0832
 3437TIP3   OH231801   2.416   4.207   5.273  0.3413 -0.5154 -0.1449
 3437TIP3    H131802   2.445   4.122   5.240 -0.3060  0.3457 -3.3453
 3437TIP3    H231803   2.495   4.261   5.272  0.4795 -0.7025  0.5227
 3438TIP3   OH231804   3.407   1.578  14.527 -0.4122 -0.4714 -0.1911
 3438TIP3    H131805   3.453   1.495  14.524 -0.4669 -0.4919 -0.5099
 3438TIP3    H231806   3.425   1.613  14.614 -0.3585 -0.7982 -0.0707
 3439TIP3   OH231807   1.399   1.764  12.731 -0.3034 -0.4328 -0.0806
 3439TIP3    H131808   1.311   1.752  12.768 -0.5811  0.4257 -0.4504
 3439TIP3    H231809   1.385   1.764  12.636 -0.0498  0.7828 -0.1237
 3440TIP3   OH231810   0.997   5.265  14.728  0.0759 -0.0005 -0.2314
 3440TIP3    H131811   0.922   5.314  14.761 -0.4530 -0.6648 -0.4116
 3440TIP3    H231812   1.037   5.323  14.663 -1.6999 -0.5345 -1.9128
 3441TIP3   OH231813   6.050   3.782   3.776  0.3955  0.0938 -0.5395
 3441TIP3    H131814   6.091   3.721   3.715  0.9895 -0.4807  0.4114
 3441TIP3    H231815   6.099   3.771   3.857 -1.4225 -0.3740  0.5507
 3442TIP3   OH231816   6.154   1.484  15.240 -0.7397 -0.5403 -0.2886
 3442TIP3    H131817   6.064   1.457  15.224 -1.6991  2.2954 -0.1145
 3442TIP3    H231818   6.160   1.493  15.336 -0.4338 -0.2353 -0.3341
 3443TIP3   OH231819   6.595   1.984  15.560  0.7231 -0.3462  0.1682
 3443TIP3    H131820   6.582   1.890  15.577  1.8928 -1.3550 -3.5365
 3443TIP3    H231821   6.513   2.013  15.522  0.5316  0.0144  0.8543
 3444TIP3   OH231822   5.124   2.279   1.206 -0.0493 -0.4153 -0.8285
 3444TIP3    H131823   5.133   2.240   1.119 -1.3424 -0.2660 -1.0489
 3444TIP3    H231824   5.083   2.364   1.191  2.3541  0.9415 -0.3133
 3445TIP3   OH231825   0.045   3.445  11.342  0.1427  0.6637 -0.4194
 3445TIP3    H131826   0.068   3.487  11.259  0.0361  2.1204  0.2542
 3445TIP3    H231827  -0.044   3.474  11.360 -0.1466 -0.3173 -0.1898
 3446TIP3   OH231828   1.881   2.561   0.436  0.3716  0.1909 -0.4880
 3446TIP3    H131829   1.851   2.567   0.346 -1.6207  2.1384  0.2151
 3446TIP3    H231830   1.859   2.472   0.463 -0.5004  0.1022 -1.4478
 3447TIP3   OH231831   1.146   3.166   0.617  0.3521 -0.3168  0.1300
 3447TIP3    H131832   1.122   3.080   0.650  1.7761 -0.0764  1.9886
 3447TIP3    H231833   1.238   3.159   0.595  0.7864  0.9604  1.3453
 3448TIP3   OH231834   5.690   1.608  14.980  0.1331  0.1960  0.3291
 3448TIP3    H131835   5.737   1.672  15.034  0.1030  2.1556 -1.8350
 3448TIP3    H231836   5.755   1.540  14.962  0.2488 -0.3397  2.4319
 3449TIP3   OH231837   5.799   2.307  11.108 -0.0731  0.0419  0.8044
 3449TIP3    H131838   5.723   2.248  11.100 -0.8591  0.7724  2.2698
 3449TIP3    H231839   5.773   2.386  11.061 -0.2154  0.2773  1.2724
 3450TIP3   OH231840   6.469   6.366  11.451  0.1192 -0.8854 -0.3607
 3450TIP3    H131841   6.555   6.407  11.445  0.4695 -1.4315  0.7370
 3450TIP3    H231842   6.487   6.275  11.476 -0.7744 -0.9905 -0.0707
 3451TIP3   OH231843   1.734   1.544  15.809  0.3804  0.4157 -0.0913
 3451TIP3    H131844   1.679   1.470  15.783 -0.0759 -0.0688  2.0608
 3451TIP3    H231845   1.674   1.619  15.811 -0.0878  0.0461  1.4521
 3452TIP3   OH231846   4.649   3.531   2.907 -0.5540 -0.0558 -0.3607
 3452TIP3    H131847   4.560   3.538   2.941  0.0994  0.7785  1.3022
 3452TIP3    H231848   4.647   3.579   2.824 -1.0506  2.4963  1.0130
 3453TIP3   OH231849   5.443   3.005   2.650 -0.3789 -0.5908  0.0761
 3453TIP3    H131850   5.524   3.026   2.605 -0.3355  0.7937  0.7397
 3453TIP3    H231851   5.466   2.934   2.710  0.5749  0.3389  0.8514
 3454TIP3   OH231852   1.562   2.961  14.514 -0.7031 -0.0135  0.1168
 3454TIP3    H131853   1.649   2.975  14.553 -1.5148  1.9715  1.4288
 3454TIP3    H231854   1.567   3.003  14.429 -0.7232  1.2722  0.7275
 3455TIP3   OH231855   4.488   4.703  15.836  0.3978 -0.1764  0.6417
 3455TIP3    H131856   4.494   4.787  15.880  0.5887 -1.0976  2.4444
 3455TIP3    H231857   4.410   4.710  15.781  0.6771  1.3185  0.3928
 3456TIP3   OH231858   2.472   4.737   3.396  0.2402  0.6687  0.1521
 3456TIP3    H131859   2.429   4.755   3.480 -0.2420  0.3564 -0.0255
 3456TIP3    H231860   2.556   4.782   3.403  0.0925  0.8769  0.6969
 3457TIP3   OH231861   3.745   2.712  12.186 -0.6447 -0.2986 -0.1198
 3457TIP3    H131862   3.694   2.776  12.237 -0.2773  0.1922 -0.3681
 3457TIP3    H231863   3.705   2.714  12.099  0.1880  0.5492 -0.4952
 3458TIP3   OH231864   2.569   2.928  13.646  0.5733  0.0639  0.0212
 3458TIP3    H131865   2.566   2.984  13.568  0.5406  0.5252  0.3496
 3458TIP3    H231866   2.595   2.842  13.613 -0.5093 -0.0206 -0.6579
 3459TIP3   OH231867   6.353   3.038  17.126  0.3910  0.3762  0.8082
 3459TIP3    H131868   6.260   3.016  17.133  0.0289  2.0446  1.7364
 3459TIP3    H231869   6.390   2.968  17.072 -1.1784 -0.9024  1.3158
 3460TIP3   OH231870   5.691   2.644   4.503  0.2053  0.2334  0.5315
 3460TIP3    H131871   5.608   2.620   4.461 -0.0117 -1.3254  1.7355
 3460TIP3    H231872   5.712   2.730   4.468 -2.2149  0.9240  0.6393
 3461TIP3   OH231873   6.338   5.524  16.629  0.3308  0.1350  0.0258
 3461TIP3    H131874   6.303   5.567  16.550 -0.7210 -1.6080 -0.5143
 3461TIP3    H231875   6.260   5.491  16.674  1.0389 -0.3579  0.9048
 3462TIP3   OH231876   0.981   1.479   4.185  0.0970 -0.2680 -0.1874
 3462TIP3    H131877   0.909   1.433   4.230  0.4093 -0.0340  0.5666
 3462TIP3    H231878   0.942   1.513   4.105 -0.5632 -0.3819  0.0835
 3463TIP3   OH231879   4.531   4.454   2.675  0.2088 -0.1146 -0.2680
 3463TIP3    H131880   4.465   4.465   2.743  1.2093  0.7336  0.6118
 3463TIP3    H231881   4.497   4.501   2.599 -0.1680  0.3589  0.1924
 3464TIP3   OH231882   6.044   6.247   2.714 -0.4467  0.1649 -0.2050
 3464TIP3    H131883   6.115   6.239   2.778 -1.0186 -1.1008  0.3005
 3464TIP3    H231884   6.085   6.286   2.638  0.6368  0.1126  0.3329
 3465TIP3   OH231885   3.679   5.339   1.528 -0.0606  0.0937 -0.5045
 3465TIP3    H131886   3.773   5.328   1.544  0.3833  0.5623 -2.5913
 3465TIP3    H231887   3.645   5.250   1.523  0.7735 -0.1705 -2.2746
 3466TIP3   OH231888   4.410   2.178  15.267 -0.4155  0.4491  0.3031
 3466TIP3    H131889   4.493   2.138  15.293 -1.8662 -2.8180  0.4025
 3466TIP3    H231890   4.406   2.163  15.172 -1.8094 -1.5582  0.6119
 3467TIP3   OH231891   4.059   4.021   3.504 -0.1666  0.2955 -0.5211
 3467TIP3    H131892   4.114   3.964   3.451  1.0794  0.2565  0.7434
 3467TIP3    H231893   4.118   4.090   3.535 -1.3583  1.5849 -0.9886
 3468TIP3   OH231894   2.492   6.644   5.353 -0.4920  0.3265  0.2546
 3468TIP3    H131895   2.569   6.586   5.356 -0.6000  0.2117  1.1575
 3468TIP3    H231896   2.466   6.644   5.261 -0.3931 -0.9393  0.2018
 3469TIP3   OH231897   4.062   1.445   5.640  0.1680 -0.3324  0.1513
 3469TIP3    H131898   4.095   1.357   5.623  0.7154 -0.1680  0.3360
 3469TIP3    H231899   4.015   1.438   5.723  1.8954 -0.0483  1.2120
 3470TIP3   OH231900   1.471   6.747   5.254  0.0115 -0.0825  0.2505
 3470TIP3    H131901   1.519   6.671   5.222  2.3118  0.3726  2.3084
 3470TIP3    H231902   1.389   6.747   5.205  2.0608 -0.9199 -3.5190
 3471TIP3   OH231903   3.584   4.032   1.282 -0.3940  0.2981  0.4112
 3471TIP3    H131904   3.643   4.066   1.216 -0.0336  0.2297  0.6967
 3471TIP3    H231905   3.522   3.978   1.233 -1.4519  1.9429 -0.1615
 3472TIP3   OH231906   2.233   4.402  13.430  0.7525  0.4729  0.3447
 3472TIP3    H131907   2.149   4.379  13.391  1.2751 -1.5817  0.2826
 3472TIP3    H231908   2.240   4.497  13.421 -0.3510  0.3844 -2.1065
 3473TIP3   OH231909   3.054   4.752   6.125 -0.0118  0.4661 -0.0076
 3473TIP3    H131910   3.145   4.744   6.152 -0.1341  0.8881  0.5424
 3473TIP3    H231911   3.050   4.831   6.073 -0.2353  0.9671  0.7489
 3474TIP3   OH231912   5.443   2.004   5.366  0.0699  0.6659  0.0922
 3474TIP3    H131913   5.415   1.912   5.366  0.5309  0.4860 -1.7380
 3474TIP3    H231914   5.408   2.040   5.447 -1.2312 -0.7924  0.2180
 3475TIP3   OH231915   4.738   2.549   3.291 -0.0976  0.4913  0.0805
 3475TIP3    H131916   4.740   2.540   3.386  2.0474 -0.3607  0.0102
 3475TIP3    H231917   4.745   2.459   3.259 -1.2763  0.7240 -0.9152
 3476TIP3   OH231918   1.405   2.788   3.607 -0.0783  0.3711  0.1627
 3476TIP3    H131919   1.338   2.721   3.591  0.9697 -0.3786 -1.3358
 3476TIP3    H231920   1.357   2.860   3.649 -1.8888 -0.0110 -1.1090
 3477TIP3   OH231921   3.396   2.900   5.395 -0.7037  0.3273 -0.9923
 3477TIP3    H131922   3.400   2.822   5.340  0.2369  0.3400 -0.9515
 3477TIP3    H231923   3.486   2.915   5.423 -1.0651  0.7071  0.0194
 3478TIP3   OH231924   2.027   1.976  11.611 -0.7236  0.7490 -0.0677
 3478TIP3    H131925   2.074   1.987  11.528 -0.4613  0.9202  0.1045
 3478TIP3    H231926   2.057   2.048  11.666 -0.7795  0.5454  0.2325
 3479TIP3   OH231927   5.542   0.026  14.900  0.1953 -0.6886 -0.1209
 3479TIP3    H131928   5.527   0.008  14.993  0.0595  2.0455  0.4754
 3479TIP3    H231929   5.454   0.038  14.864  0.2996 -0.6995 -0.3794
 3480TIP3   OH231930   3.005   4.091   2.411 -0.7152  0.5470 -0.6355
 3480TIP3    H131931   3.024   4.139   2.330  0.2551  2.1417  0.4832
 3480TIP3    H231932   3.041   4.146   2.480  1.6895 -2.4089  0.6822
 3481TIP3   OH231933   2.362   6.748   5.688  0.8102 -0.3964 -0.0563
 3481TIP3    H131934   2.369   6.655   5.671  1.7480 -0.7756  2.0653
 3481TIP3    H231935   2.448   6.773   5.723  0.7211  1.3662 -0.9297
 3482TIP3   OH231936   3.574   4.213  10.860 -0.3191 -0.0052  0.2544
 3482TIP3    H131937   3.654   4.167  10.885 -0.5604 -1.1268 -0.9244
 3482TIP3    H231938   3.532   4.236  10.943  1.6299  1.3868  0.9185
 3483TIP3   OH231939   1.583   6.385  14.036 -0.1518 -0.3406 -0.3326
 3483TIP3    H131940   1.670   6.368  13.998 -0.1979 -0.2344 -0.4885
 3483TIP3    H231941   1.526   6.322  13.993  0.4392 -2.8364  2.2738
 3484TIP3   OH231942   2.642   0.469   5.883  0.0297  0.3168  0.2312
 3484TIP3    H131943   2.660   0.456   5.791 -0.9978 -0.9174  0.1762
 3484TIP3    H231944   2.718   0.433   5.929  0.2621  0.3716 -0.1119
 3485TIP3   OH231945   0.669   4.797   6.673 -0.2354  0.5620  0.8805
 3485TIP3    H131946   0.664   4.841   6.758  1.2392  0.5401  1.0124
 3485TIP3    H231947   0.584   4.755   6.662 -0.8810  1.5712  1.7833
 3486TIP3   OH231948   0.563   2.537  11.626  0.4979  0.5423 -0.0822
 3486TIP3    H131949   0.468   2.530  11.613  0.6270  0.2849 -0.9423
 3486TIP3    H231950   0.598   2.559  11.540  1.1555  1.4280  0.3892
 3487TIP3   OH231951   1.254   5.578  13.605 -0.3773  0.5676  0.9667
 3487TIP3    H131952   1.275   5.663  13.565 -0.7778  1.2060  2.0692
 3487TIP3    H231953   1.189   5.539  13.546 -0.0571  0.9364  0.3560
 3488TIP3   OH231954   6.119   3.156  15.734 -0.2651 -0.1175 -0.5208
 3488TIP3    H131955   6.153   3.234  15.776 -1.6051  0.1063  0.1993
 3488TIP3    H231956   6.096   3.097  15.806  0.8835 -1.2672 -1.0488
 3489TIP3   OH231957   5.982   4.181   5.161  0.5138 -0.0896  0.4806
 3489TIP3    H131958   5.985   4.131   5.079 -1.0171  1.1203 -0.3755
 3489TIP3    H231959   5.993   4.116   5.230 -1.0773 -1.5846 -0.5951
 3490TIP3   OH231960   0.041   5.585   0.339  0.3024 -0.0567 -0.2025
 3490TIP3    H131961  -0.042   5.627   0.360  0.1362 -0.9928  1.0821
 3490TIP3    H231962   0.036   5.569   0.245 -0.7807  0.2821 -0.2194
 3491TIP3   OH231963   5.330   0.148  16.666  0.1324 -0.1920  0.2905
 3491TIP3    H131964   5.368   0.096  16.596 -0.6838 -0.2080 -0.1578
 3491TIP3    H231965   5.244   0.109  16.682 -0.1792  0.5381  0.4720
 3492TIP3   OH231966   5.227   3.290   3.944  0.2724  0.2862 -0.5338
 3492TIP3    H131967   5.249   3.383   3.952  1.1998 -0.0582  1.3554
 3492TIP3    H231968   5.144   3.281   3.991  0.1242  0.1678 -0.8145
 3493TIP3   OH231969   2.312   2.144  16.099 -0.1686  0.3700 -0.3363
 3493TIP3    H131970   2.257   2.194  16.160 -1.1679  0.6232 -1.4187
 3493TIP3    H231971   2.279   2.055  16.105  1.5044 -0.2123  1.4653
 3494TIP3   OH231972   6.192   1.341  15.812 -0.1930 -0.0999  0.0194
 3494TIP3    H131973   6.117   1.395  15.835 -1.4120 -2.3871  1.7566
 3494TIP3    H231974   6.257   1.360  15.880 -0.5958 -0.7324  0.5914
 3495TIP3   OH231975   3.075   1.162  11.057 -0.1675  0.2892  0.1988
 3495TIP3    H131976   3.067   1.187  10.965 -0.1183  1.0326  0.3901
 3495TIP3    H231977   3.065   1.067  11.057  1.9643  0.0181 -0.8234
 3496TIP3   OH231978   3.453   5.364   4.339  0.2379 -0.5218  0.4306
 3496TIP3    H131979   3.425   5.438   4.285  2.0482 -1.2813 -1.7302
 3496TIP3    H231980   3.502   5.404   4.411  0.9308  0.4209 -0.5288
 3497TIP3   OH231981   3.045   1.647   4.940 -0.2568 -0.1999 -0.1571
 3497TIP3    H131982   2.972   1.612   4.888 -0.6131 -0.2301  0.3524
 3497TIP3    H231983   3.032   1.609   5.027  0.4042 -0.2507 -0.0737
 3498TIP3   OH231984   2.374   0.068   3.976 -0.2323  0.2186 -0.2340
 3498TIP3    H131985   2.306   0.089   4.040 -0.2770  0.0319 -0.2168
 3498TIP3    H231986   2.341  -0.010   3.931  0.1137 -0.0619 -0.0089
 3499TIP3   OH231987   5.195   2.293   5.221  0.4671  0.4114 -0.2894
 3499TIP3    H131988   5.242   2.233   5.163 -1.1757 -0.7159 -0.5295
 3499TIP3    H231989   5.193   2.248   5.305 -0.1503  0.4413 -0.2832
 3500TIP3   OH231990   4.109   0.145   5.528  0.0966 -0.0440 -0.0814
 3500TIP3    H131991   4.121   0.067   5.474 -0.6951 -1.7097  2.0034
 3500TIP3    H231992   4.141   0.217   5.473  2.3784 -1.9740 -1.5086
 3501TIP3   OH231993   4.175   4.643   1.138 -0.0107 -0.6207 -0.3754
 3501TIP3    H131994   4.229   4.703   1.190  0.3906 -0.0337 -1.4332
 3501TIP3    H231995   4.097   4.630   1.191  0.6910 -0.6200  0.6966
 3502TIP3   OH231996   6.190   1.671  14.766 -0.0000 -0.2378 -0.1265
 3502TIP3    H131997   6.171   1.754  14.723  0.0152  0.1854  0.6460
 3502TIP3    H231998   6.109   1.620  14.760 -0.1591  0.0252 -0.1965
 3503TIP3   OH231999   1.932   3.369  16.146  0.2306  0.2473  0.2844
 3503TIP3    H132000   1.842   3.379  16.116  0.3965  0.1708 -0.2553
 3503TIP3    H232001   1.985   3.403  16.074  0.6458 -0.0324  0.4511
 3504TIP3   OH232002   0.985   2.487   6.263  0.2282 -0.7162  0.0857
 3504TIP3    H132003   1.069   2.516   6.298 -1.5484  3.0141  1.9366
 3504TIP3    H232004   0.932   2.470   6.341 -1.7252  0.5981 -0.8805
 3505TIP3   OH232005   1.980   5.448  16.787  0.1692 -0.1946  0.4228
 3505TIP3    H132006   2.000   5.539  16.808  0.4719 -0.2144  0.2176
 3505TIP3    H232007   1.922   5.420  16.859  0.3711  0.0466  0.6846
 3506TIP3   OH232008   1.268   2.697   2.649 -0.3970  0.3982 -0.3473
 3506TIP3    H132009   1.339   2.636   2.671 -0.0368  0.1668 -2.0277
 3506TIP3    H232010   1.280   2.770   2.710  0.1740 -0.4639  0.6016
 3507TIP3   OH232011   6.619   0.025   3.132 -0.1177 -1.0104 -0.2628
 3507TIP3    H132012   6.546  -0.036   3.143  0.3132 -1.7638 -1.3727
 3507TIP3    H232013   6.694  -0.031   3.112  0.8569 -0.2653  1.1910
 3508TIP3   OH232014   3.568   1.311  15.058 -0.6984 -0.6051  0.8557
 3508TIP3    H132015   3.554   1.363  15.137 -1.3625  0.7551 -0.1179
 3508TIP3    H232016   3.659   1.280  15.065  0.3177  2.0771  0.7121
 3509TIP3   OH232017   3.398   0.957  14.675  0.1391 -0.4374  0.4058
 3509TIP3    H132018   3.385   0.957  14.581  2.1575 -0.5445  0.0781
 3509TIP3    H232019   3.315   0.925  14.711 -0.5942 -0.5938 -1.3307
 3510TIP3   OH232020   0.594   6.552   5.297 -0.1244 -0.6455 -0.0346
 3510TIP3    H132021   0.580   6.603   5.217 -0.4092  0.6170  0.7867
 3510TIP3    H232022   0.681   6.579   5.328 -0.6491  0.0413  0.8872
 3511TIP3   OH232023   5.065   6.619   4.047  0.3564 -0.0231 -0.6084
 3511TIP3    H132024   4.988   6.638   3.993  1.0626 -1.6934 -2.3168
 3511TIP3    H232025   5.029   6.600   4.134 -0.9020  1.6496 -0.7117
 3512TIP3   OH232026   6.700   4.378  14.098 -0.4089  0.0484  0.3004
 3512TIP3    H132027   6.666   4.415  14.017 -0.9770 -1.2989 -0.0960
 3512TIP3    H232028   6.631   4.395  14.163 -0.7334 -0.4364  0.0858
 3513TIP3   OH232029   2.051   1.237  16.875 -0.0672 -0.4610  0.7281
 3513TIP3    H132030   2.042   1.309  16.938 -1.5915 -1.1373  1.3533
 3513TIP3    H232031   2.080   1.162  16.928 -0.1203 -0.7212  0.3925
 3514TIP3   OH232032   6.523   0.603  16.170  0.0317 -0.2810 -0.5168
 3514TIP3    H132033   6.588   0.619  16.239  1.0742  0.3128 -1.5795
 3514TIP3    H232034   6.493   0.514  16.185 -0.5340  0.1761  1.2925
 3515TIP3   OH232035   6.379   5.012   0.574  0.7804  0.3374 -0.2410
 3515TIP3    H132036   6.378   5.012   0.478 -0.1544 -0.0471 -0.2412
 3515TIP3    H232037   6.451   5.071   0.597  0.3780  1.2304 -1.1746
 3516TIP3   OH232038   4.212   3.098   1.575 -0.1607  0.3980 -0.7089
 3516TIP3    H132039   4.135   3.061   1.618 -0.0495  0.5305 -0.3858
 3516TIP3    H232040   4.203   3.193   1.586 -0.0884  0.4276 -0.9040
 3517TIP3   OH232041   0.482   1.312  11.693 -0.5695 -0.1056  0.4522
 3517TIP3    H132042   0.489   1.395  11.646 -0.5645 -0.4456 -0.1658
 3517TIP3    H232043   0.391   1.285  11.679 -0.5811 -0.1880  0.6840
 3518TIP3   OH232044   5.948   5.897   0.515  0.0639 -0.2145  0.3088
 3518TIP3    H132045   5.903   5.981   0.511  0.0025 -0.3067 -1.1080
 3518TIP3    H232046   6.035   5.918   0.549 -0.4981  0.1654  1.5907
 3519TIP3   OH232047   0.911   3.108   4.116 -0.1978  0.1631  0.3446
 3519TIP3    H132048   0.858   3.067   4.184  0.6310 -0.7601  0.4607
 3519TIP3    H232049   0.976   3.042   4.093  1.4274  1.5171  0.7901
 3520TIP3   OH232050   2.197   0.756  15.800 -0.0303 -0.1926  0.4050
 3520TIP3    H132051   2.206   0.846  15.766  0.6719  0.1028  1.3239
 3520TIP3    H232052   2.107   0.732  15.780 -0.9640  1.5700  2.0832
 3521TIP3   OH232053   0.164   1.791  13.554 -0.0995 -0.2870  0.0679
 3521TIP3    H132054   0.166   1.714  13.499 -1.1528 -0.1976 -0.1119
 3521TIP3    H232055   0.110   1.854  13.506 -1.0591 -0.2132  1.1782
 3522TIP3   OH232056   3.624   1.231   4.689 -0.2750 -0.0238 -0.5356
 3522TIP3    H132057   3.562   1.238   4.761  1.3488 -1.2113  1.0771
 3522TIP3    H232058   3.710   1.237   4.731  0.7672 -2.5115 -2.1190
 3523TIP3   OH232059   3.334   0.153  13.695  1.3515 -0.3346  0.3342
 3523TIP3    H132060   3.371   0.194  13.617  1.5760 -0.4836  0.3597
 3523TIP3    H232061   3.410   0.125  13.746  1.2554 -2.3423 -0.5079
 3524TIP3   OH232062   5.327   1.759  12.480 -0.1065 -0.6514  0.2405
 3524TIP3    H132063   5.293   1.671  12.463 -1.5947 -0.3847  1.6101
 3524TIP3    H232064   5.263   1.818  12.441  0.4148 -0.1433  0.1302
 3525TIP3   OH232065   1.703   2.569   3.214  0.8587 -0.2746 -0.2450
 3525TIP3    H132066   1.783   2.546   3.167 -0.4047 -2.2075 -1.6179
 3525TIP3    H232067   1.679   2.489   3.262 -1.3578 -0.5004 -1.5834
 3526TIP3   OH232068   0.101   6.042  16.370 -0.2297 -0.3048 -0.0088
 3526TIP3    H132069   0.018   6.078  16.338  0.6750  1.2705 -0.6679
 3526TIP3    H232070   0.078   6.000  16.453 -1.3988  1.6019  0.6871
 3527TIP3   OH232071   5.805   0.764   4.946  1.1603 -0.1670 -0.0155
 3527TIP3    H132072   5.818   0.851   4.909  2.1145 -0.3024 -0.0024
 3527TIP3    H232073   5.738   0.724   4.890  2.1634 -0.1596 -1.2427
 3528TIP3   OH232074   3.896   5.469  12.701 -0.4217 -0.4041 -0.1598
 3528TIP3    H132075   3.802   5.474  12.683 -0.4245  0.7055  0.1253
 3528TIP3    H232076   3.934   5.542  12.652  0.0150  0.4971  1.4768
 3529TIP3   OH232077   2.043   5.534   4.012  0.3163  0.3491 -0.5245
 3529TIP3    H132078   1.963   5.547   3.962 -0.4767 -0.6676  0.4453
 3529TIP3    H232079   2.044   5.605   4.075  0.5404  0.7503 -0.9700
 3530TIP3   OH232080   1.159   3.002  11.354  0.5331  0.2342  0.1653
 3530TIP3    H132081   1.171   2.922  11.304  1.7594  0.6841 -0.3167
 3530TIP3    H232082   1.245   3.046  11.349 -0.3400  1.9817 -0.3053
 3531TIP3   OH232083   0.267   1.812  15.702  0.2739 -0.0526  0.1947
 3531TIP3    H132084   0.248   1.719  15.709  0.5562 -0.0912  0.4675
 3531TIP3    H232085   0.361   1.819  15.722  0.2717  0.2782  0.0930
 3532TIP3   OH232086   0.138   0.197   3.602 -0.2738  0.0013  0.1903
 3532TIP3    H132087   0.101   0.155   3.679 -1.1403 -0.4973 -0.4703
 3532TIP3    H232088   0.231   0.205   3.621 -0.1544 -1.8115  0.5354
 3533TIP3   OH232089   2.503   6.074  11.466  0.2703  1.0335  0.1461
 3533TIP3    H132090   2.486   6.167  11.480  0.6863  0.8773  1.9225
 3533TIP3    H232091   2.450   6.030  11.532 -0.0378 -0.0168 -0.7736
 3534TIP3   OH232092   2.865   0.841  14.628  0.4536  0.2333  0.2385
 3534TIP3    H132093   2.836   0.861  14.717  1.4996 -1.2301  0.9617
 3534TIP3    H232094   2.795   0.786  14.591 -0.5078  1.7608 -0.2821
 3535TIP3   OH232095   5.322   3.263  14.608 -0.5374  0.0568  0.0121
 3535TIP3    H132096   5.241   3.293  14.649 -0.3937  0.7041 -0.1573
 3535TIP3    H232097   5.347   3.335  14.549  0.6605  0.2833  0.7597
 3536TIP3   OH232098   1.999   4.040  14.677 -0.2561 -0.7496  0.5122
 3536TIP3    H132099   2.075   4.028  14.619 -1.1718 -0.3137 -0.8373
 3536TIP3    H232100   2.028   4.103  14.742 -0.3344  1.8655 -1.8052
 3537TIP3   OH232101   4.585   1.586  11.383  0.0627  0.9587  0.0142
 3537TIP3    H132102   4.529   1.664  11.381  0.4247  1.2238  0.0518
 3537TIP3    H232103   4.568   1.541  11.301  1.3001  2.1170 -0.9250
 3538TIP3   OH232104   1.546   0.000  13.788 -0.3296  0.0092  0.5134
 3538TIP3    H132105   1.526   0.074  13.846 -1.3877  0.7184 -0.6821
 3538TIP3    H232106   1.461  -0.024  13.751  0.1014 -1.4027  0.3811
 3539TIP3   OH232107   1.047   4.794   4.164  0.2964 -0.1737  0.3603
 3539TIP3    H132108   1.046   4.872   4.108  0.5365 -1.7100 -1.9045
 3539TIP3    H232109   0.957   4.786   4.195  0.0309  0.4473 -0.2100
 3540TIP3   OH232110   0.869   2.382   0.651  0.4137  0.1163 -0.9509
 3540TIP3    H132111   0.945   2.392   0.593 -0.6373  0.3035 -2.3674
 3540TIP3    H232112   0.807   2.330   0.600 -2.0504  3.3389 -1.5827
 3541TIP3   OH232113   0.180   5.078   4.237 -0.0803 -0.2027  0.5507
 3541TIP3    H132114   0.260   5.082   4.185  0.0106 -0.9805  0.6191
 3541TIP3    H232115   0.135   5.160   4.218  1.6302  1.1620  1.9497
 3542TIP3   OH232116   5.170   3.777   5.511  0.7173  0.2878 -0.5854
 3542TIP3    H132117   5.224   3.848   5.544 -1.6971  2.3915 -0.8137
 3542TIP3    H232118   5.139   3.808   5.425 -0.8788 -0.7173 -0.4195
 3543TIP3   OH232119   0.982   2.023   3.144 -0.6956  0.0641 -0.2909
 3543TIP3    H132120   0.956   2.072   3.222  0.2013  1.7057 -0.9694
 3543TIP3    H232121   0.908   2.032   3.085 -1.3445 -1.1160  0.3122
 3544TIP3   OH232122   3.935   6.471  13.453 -0.3638 -0.0741  0.3794
 3544TIP3    H132123   3.976   6.441  13.535 -0.4868 -4.5615 -0.9277
 3544TIP3    H232124   4.009   6.491  13.396  0.0126 -2.6821 -0.1685
 3545TIP3   OH232125   5.247   5.884   4.010 -0.3999 -0.0367  0.1561
 3545TIP3    H132126   5.293   5.819   4.063 -1.0581 -1.3279 -0.8006
 3545TIP3    H232127   5.312   5.952   3.994  0.5402 -0.8184  0.5515
 3546TIP3   OH232128   2.742   6.082  14.112 -0.5073  0.7641 -0.0002
 3546TIP3    H132129   2.721   6.012  14.173 -1.5427  0.8792 -0.2088
 3546TIP3    H232130   2.720   6.162  14.160  0.0475  0.9312 -0.0076
 3547TIP3   OH232131   5.286   0.642   0.481 -0.1740  0.1004 -0.3061
 3547TIP3    H132132   5.225   0.589   0.531  1.3639  1.0018  2.7710
 3547TIP3    H232133   5.258   0.732   0.497  0.6613  0.4345 -0.6812
 3548TIP3   OH232134   1.549   1.039   1.485  0.3665  0.2589 -0.0908
 3548TIP3    H132135   1.585   0.970   1.430  1.0032  0.6786 -0.2011
 3548TIP3    H232136   1.542   1.115   1.428 -1.4098  0.0054 -0.2855
 3549TIP3   OH232137   4.393   5.264  16.360  0.2069 -0.7395 -0.0508
 3549TIP3    H132138   4.482   5.292  16.337  0.0648  0.0858  0.3657
 3549TIP3    H232139   4.382   5.180  16.316  0.3550  0.2351 -2.0610
 3550TIP3   OH232140   1.079   5.247   4.244 -0.0313  0.6155  0.0665
 3550TIP3    H132141   1.082   5.341   4.227  0.2732  0.5134 -0.4698
 3550TIP3    H232142   1.014   5.237   4.314  0.8014  1.3367  0.9743
 3551TIP3   OH232143   4.786   6.577   0.267 -0.3940  0.0124  0.4584
 3551TIP3    H132144   4.878   6.552   0.259 -0.1366  0.9091  0.4151
 3551TIP3    H232145   4.746   6.508   0.319  0.4298 -0.1069  0.9568
 3552TIP3   OH232146   3.461   6.102  11.803  0.6846 -0.2304  0.3466
 3552TIP3    H132147   3.369   6.081  11.791  0.1427  2.2504 -0.4670
 3552TIP3    H232148   3.488   6.050  11.879 -1.2771 -1.2318  0.4223
 3553TIP3   OH232149   2.864   1.915  13.435  0.4348  0.3400  0.4086
 3553TIP3    H132150   2.812   1.980  13.484 -0.1027 -0.0626  0.3888
 3553TIP3    H232151   2.932   1.888  13.496  1.2027  1.5601  0.1185
 3554TIP3   OH232152   2.674   2.759   4.816  0.4759  0.2499  0.7182
 3554TIP3    H132153   2.737   2.822   4.850 -0.9480  1.0951  1.9021
 3554TIP3    H232154   2.613   2.811   4.764 -0.1037 -0.3120  0.8163
 3555TIP3   OH232155   4.681   2.599   0.015 -0.0202 -0.1583  0.0035
 3555TIP3    H132156   4.618   2.650   0.066  1.1321  0.0327  1.2924
 3555TIP3    H232157   4.668   2.629  -0.075 -1.2123  0.4445  0.3434
 3556TIP3   OH232158   2.793   6.072  12.976 -0.0744  0.1627  0.8274
 3556TIP3    H132159   2.753   6.150  12.937  1.1784  0.6649  0.4655
 3556TIP3    H232160   2.764   6.073  13.067 -1.3440  0.1609  0.4321
 3557TIP3   OH232161   6.674   5.783   4.746  0.5159 -0.2433 -0.0922
 3557TIP3    H132162   6.654   5.864   4.700  1.6614 -0.0788 -0.3351
 3557TIP3    H232163   6.615   5.718   4.707  0.8803  0.0743 -1.1993
 3558TIP3   OH232164   4.972   3.214   3.661 -0.0708  0.2363 -0.2255
 3558TIP3    H132165   4.977   3.119   3.671  0.6090  0.4495  2.0317
 3558TIP3    H232166   4.884   3.237   3.692  0.0325  0.4035 -0.0532
 3559TIP3   OH232167   2.762   1.171   0.124  0.0539 -0.7373  0.1571
 3559TIP3    H132168   2.725   1.152   0.038 -0.5795 -0.1497  0.2894
 3559TIP3    H232169   2.816   1.094   0.145  1.8967 -0.0041 -1.6479
 3560TIP3   OH232170   6.287   0.731   5.890 -0.2062  0.2902  0.5199
 3560TIP3    H132171   6.287   0.800   5.823  1.2090 -0.1462  0.0276
 3560TIP3    H232172   6.292   0.779   5.973  0.6722  0.8060  0.1899
 3561TIP3   OH232173   6.761   3.555  13.927 -0.2017  0.1247  0.5003
 3561TIP3    H132174   6.822   3.547  13.853 -1.6716 -1.0748 -0.6411
 3561TIP3    H232175   6.742   3.649  13.932  0.9126  0.3884  0.2200
 3562TIP3   OH232176   1.269   0.620   5.684 -0.1514  0.6800  0.4451
 3562TIP3    H132177   1.316   0.657   5.609 -0.1913  0.2895  0.2254
 3562TIP3    H232178   1.275   0.688   5.752 -0.8845  1.4227 -0.2104
 3563TIP3   OH232179   6.748   0.415   2.399  0.4393 -0.1487 -0.4399
 3563TIP3    H132180   6.801   0.337   2.380  1.1261  0.4396 -0.9893
 3563TIP3    H232181   6.680   0.414   2.331  0.5366 -0.1906 -0.5371
 3564TIP3   OH232182   6.520   1.585  10.978 -0.2044  0.4037  0.5808
 3564TIP3    H132183   6.603   1.539  10.984 -1.1879 -1.5732 -0.1654
 3564TIP3    H232184   6.530   1.643  10.902  0.4416  0.0945  0.4292
 3565TIP3   OH232185   4.857   2.404  17.222  0.7111  0.0598 -0.3211
 3565TIP3    H132186   4.911   2.461  17.167  1.2286 -0.7402 -0.6596
 3565TIP3    H232187   4.783   2.459  17.248  2.1306  1.4818  0.9228
 3566TIP3   OH232188   5.506   4.760  16.465  0.5262 -0.2971 -0.3476
 3566TIP3    H132189   5.594   4.789  16.444  0.5483 -0.6708 -0.7913
 3566TIP3    H232190   5.512   4.665  16.469  0.0695 -0.3478 -0.7432
 3567TIP3   OH232191   1.770   2.826   2.330  0.4820  0.1158  0.5365
 3567TIP3    H132192   1.792   2.919   2.325  0.1090  0.2640  1.3833
 3567TIP3    H232193   1.723   2.808   2.249 -0.5638  0.9872  0.9276
 3568TIP3   OH232194   4.375   6.529   1.316 -0.5156  0.0922 -0.0453
 3568TIP3    H132195   4.430   6.541   1.393 -2.0073  1.2141  0.9061
 3568TIP3    H232196   4.303   6.473   1.345 -0.8614  0.1545 -0.7374
 3569TIP3   OH232197   1.921   0.246  11.353 -0.3732  0.1431 -0.2100
 3569TIP3    H132198   1.904   0.152  11.348  0.9416 -0.1067 -0.3726
 3569TIP3    H232199   2.011   0.256  11.319 -0.4895  1.4497 -0.1781
 3570TIP3   OH232200   2.475   6.060   0.790 -0.3058 -0.3151 -0.1758
 3570TIP3    H132201   2.409   6.054   0.860 -0.9391 -0.3710 -0.7642
 3570TIP3    H232202   2.556   6.033   0.831 -0.8404 -1.2362  0.3144
 3571TIP3   OH232203   1.632   6.541   5.134 -0.3389 -0.0202 -0.3447
 3571TIP3    H132204   1.717   6.559   5.094  1.1018 -0.3230  2.3208
 3571TIP3    H232205   1.618   6.447   5.120  1.4505 -0.7133  1.9897
 3572TIP3   OH232206   3.905   5.570   1.570 -0.0976  0.6763  0.2301
 3572TIP3    H132207   3.818   5.608   1.562 -0.1366  0.6121  0.3465
 3572TIP3    H232208   3.937   5.564   1.479 -1.1733 -1.5044 -0.0755
 3573TIP3   OH232209   1.779   2.482  13.635 -0.3618 -0.2372  0.1602
 3573TIP3    H132210   1.720   2.459  13.706 -0.5185 -1.3133 -0.2965
 3573TIP3    H232211   1.827   2.558  13.667 -1.6046  0.3186  0.7478
 3574TIP3   OH232212   5.163   2.482   5.022 -0.1778  0.2732 -0.0014
 3574TIP3    H132213   5.070   2.470   5.002 -0.2401 -0.3372  0.6410
 3574TIP3    H232214   5.181   2.421   5.093  0.6229  0.6741  0.1542
 3575TIP3   OH232215   0.870   3.150  16.834  0.4790 -1.0383 -0.4872
 3575TIP3    H132216   0.859   3.245  16.831 -3.9305 -1.2144  2.2966
 3575TIP3    H232217   0.837   3.119  16.749 -0.3658 -0.1720 -0.4858
 3576TIP3   OH232218   4.120   4.520   1.726  0.5612  0.4334  0.6579
 3576TIP3    H132219   4.110   4.601   1.774 -0.6506  1.1973 -0.8008
 3576TIP3    H232220   4.032   4.484   1.720  1.0235 -0.7972  0.9434
 3577TIP3   OH232221   4.586   4.736   1.875 -0.5880  0.1564 -0.1638
 3577TIP3    H132222   4.665   4.684   1.890 -0.3412  0.9161  1.4160
 3577TIP3    H232223   4.574   4.736   1.780  3.0775  2.5020 -0.8525
 3578TIP3   OH232224   1.133   2.557   2.270 -0.8023 -0.1013 -0.3984
 3578TIP3    H132225   1.081   2.560   2.190 -0.3137 -1.4497 -0.7872
 3578TIP3    H232226   1.071   2.578   2.340 -1.2922  0.8239 -1.0835
 3579TIP3   OH232227   2.901   1.550  12.975  0.2896  0.0520  0.3054
 3579TIP3    H132228   2.887   1.609  12.902  0.2107 -1.1824 -0.7168
 3579TIP3    H232229   2.813   1.534  13.010  0.1973 -0.2032 -0.0335
 3580TIP3   OH232230   6.783   0.263  15.333  0.3986 -0.3994 -0.3534
 3580TIP3    H132231   6.767   0.294  15.422  0.9085  0.1247 -0.4379
 3580TIP3    H232232   6.815   0.173  15.344  0.9850 -0.1502  0.0323
 3581TIP3   OH232233   0.050   4.247   1.577 -0.0909  0.1498  0.1269
 3581TIP3    H132234  -0.029   4.298   1.594  0.0968  0.6439 -0.4504
 3581TIP3    H232235   0.028   4.194   1.501  0.4636  1.0278 -0.6540
 3582TIP3   OH232236   4.703   2.647   1.344  0.7055  0.0258 -0.0433
 3582TIP3    H132237   4.757   2.721   1.373  0.3401  0.8866 -1.4287
 3582TIP3    H232238   4.618   2.686   1.324  0.5792 -0.7223 -1.0397
 3583TIP3   OH232239   2.931   6.739   5.121 -0.3259  0.3535 -0.4237
 3583TIP3    H132240   3.025   6.752   5.133 -0.3628 -0.2182  0.6869
 3583TIP3    H232241   2.923   6.688   5.040  0.6410 -2.8523  1.3101
 3584TIP3   OH232242   0.676   3.226  15.312 -0.0744  0.0864  0.0910
 3584TIP3    H132243   0.580   3.231  15.307 -0.0771 -0.1914 -0.2142
 3584TIP3    H232244   0.703   3.310  15.348 -0.4299  0.1999  0.0941
 3585TIP3   OH232245   3.166   5.004   4.761  0.4155  0.5236  0.2366
 3585TIP3    H132246   3.102   5.074   4.766 -0.4102 -0.0859 -1.2061
 3585TIP3    H232247   3.204   5.013   4.674 -0.4898 -1.4491 -0.4149
 3586TIP3   OH232248   0.140   2.126   0.774  0.8541 -0.3062  0.1610
 3586TIP3    H132249   0.107   2.038   0.788 -0.2337  0.1239  0.4483
 3586TIP3    H232250   0.141   2.137   0.679  2.2220 -1.0551  0.0713
 3587TIP3   OH232251   1.074   3.888  15.909  0.1337  0.2193 -0.5234
 3587TIP3    H132252   1.158   3.880  15.954  0.4166 -0.0265 -1.0877
 3587TIP3    H232253   1.013   3.914  15.978  0.4994 -0.4189  0.0603
 3588TIP3   OH232254   4.386   4.920   1.968 -0.7159  0.1489  0.8036
 3588TIP3    H132255   4.451   4.947   2.033 -0.6387  0.3606  0.6391
 3588TIP3    H232256   4.437   4.876   1.900 -0.7734  0.0929  0.7970
 3589TIP3   OH232257   2.501   6.813   0.102 -0.5357  0.8595 -0.2204
 3589TIP3    H132258   2.538   6.725   0.096 -1.7561  0.3319 -0.2831
 3589TIP3    H232259   2.547   6.854   0.175 -1.1866 -0.4526  0.9609
 3590TIP3   OH232260   0.827   5.723  12.945  1.1184  0.0098  0.3068
 3590TIP3    H132261   0.876   5.765  13.015  0.2761  0.0149  0.9072
 3590TIP3    H232262   0.736   5.732  12.971  0.8842 -1.9453  0.3245
 3591TIP3   OH232263   1.822   1.498  11.294 -0.2742 -0.1488 -0.2127
 3591TIP3    H132264   1.746   1.554  11.274 -1.1970 -2.0127 -2.2509
 3591TIP3    H232265   1.795   1.410  11.267  2.4052 -0.9881 -0.4070
 3592TIP3   OH232266   0.019   0.971   0.285  0.2161  0.2004  0.4724
 3592TIP3    H132267   0.008   1.055   0.330 -2.2454  0.2065 -0.0266
 3592TIP3    H232268   0.085   0.989   0.218 -1.4028  2.2440 -0.6919
 3593TIP3   OH232269   0.650   5.633  15.797 -0.9058  0.1163 -0.6596
 3593TIP3    H132270   0.624   5.651  15.887  0.3482 -0.5641 -0.1323
 3593TIP3    H232271   0.571   5.600  15.755 -0.9794 -1.7593  0.8304
 3594TIP3   OH232272   1.994   5.813  11.453  0.2410  0.0373  0.2464
 3594TIP3    H132273   1.928   5.813  11.384  0.6284  0.7689 -0.1281
 3594TIP3    H232274   2.029   5.724  11.452  0.5126  0.1496 -0.7628
 3595TIP3   OH232275   2.752   3.682   1.842  0.1017  0.3195  0.7698
 3595TIP3    H132276   2.833   3.680   1.789 -1.0871 -4.9371 -1.5677
 3595TIP3    H232277   2.775   3.633   1.921 -0.6779 -1.2694  0.0567
 3596TIP3   OH232278   6.615   2.035   0.026 -0.6987 -0.5819  0.4945
 3596TIP3    H132279   6.571   2.044   0.110  0.7302  0.0626  1.1982
 3596TIP3    H232280   6.637   1.942   0.020 -2.0395 -0.9073  0.1583
 3597TIP3   OH232281   3.564   3.275  10.944 -0.1206  0.2211  0.3513
 3597TIP3    H132282   3.605   3.189  10.934 -0.7616 -0.2149  1.3415
 3597TIP3    H232283   3.631   3.328  10.989 -0.7330 -0.6275  2.4000
 3598TIP3   OH232284   0.785   3.450  16.325  0.0868 -0.0521 -0.7065
 3598TIP3    H132285   0.772   3.544  16.339 -0.6312 -0.1752 -0.4947
 3598TIP3    H232286   0.696   3.415  16.315  0.3430 -0.7333 -0.6349
 3599TIP3   OH232287   0.432   5.060   4.929 -0.6907 -0.4108  0.1908
 3599TIP3    H132288   0.439   5.052   5.024 -2.3525  1.0195  0.4744
 3599TIP3    H232289   0.414   4.971   4.899  0.3304 -0.9654  1.1369
 3600TIP3   OH232290   4.575   6.282  16.693  0.2543  0.0981  0.5751
 3600TIP3    H132291   4.559   6.188  16.684  1.3008  0.0575 -1.2152
 3600TIP3    H232292   4.578   6.296  16.788 -0.5403 -1.5491  0.8847
 3601TIP3   OH232293   6.240   5.609   1.959  0.6285  0.2153  0.0015
 3601TIP3    H132294   6.209   5.583   1.872 -0.6338  0.6889  0.2747
 3601TIP3    H232295   6.214   5.701   1.966 -1.2909 -0.3674  1.6868
 3602TIP3   OH232296   3.738   4.534  13.794 -0.2207 -0.2326 -0.2738
 3602TIP3    H132297   3.772   4.445  13.783  0.0392  0.0193 -1.7890
 3602TIP3    H232298   3.644   4.522  13.804 -0.4482 -0.6230 -2.3666
 3603TIP3   OH232299   5.868   2.611   5.584  0.2530 -0.2464  0.1906
 3603TIP3    H132300   5.777   2.591   5.563  0.7185 -1.1375 -1.0763
 3603TIP3    H232301   5.891   2.684   5.528  0.5433 -0.5350 -0.0727
 3604TIP3   OH232302   2.394   3.789  16.164 -0.1127 -0.1276  0.0017
 3604TIP3    H132303   2.456   3.861  16.175 -0.4528  0.5357 -1.8983
 3604TIP3    H232304   2.404   3.763  16.072 -1.1879 -1.3876  0.2161
 3605TIP3   OH232305   4.200   4.004  16.776 -0.0644 -0.8311 -0.0634
 3605TIP3    H132306   4.160   4.046  16.700  2.2063  0.2068 -0.7796
 3605TIP3    H232307   4.288   3.980  16.747  0.6174 -1.0909  2.0273
 3606TIP3   OH232308   6.269   4.273  12.554  0.7706  0.3060 -0.0716
 3606TIP3    H132309   6.227   4.187  12.553  0.5599  0.4001  0.4490
 3606TIP3    H232310   6.299   4.286  12.464  0.2016 -0.0134 -0.3121
 3607TIP3   OH232311   4.634   4.061   5.588  0.0711  0.6269  0.1093
 3607TIP3    H132312   4.621   4.071   5.493 -0.4596 -0.2928  0.0739
 3607TIP3    H232313   4.554   4.099   5.626 -0.5671 -0.6770  0.1004
 3608TIP3   OH232314   2.273   0.699  14.122  0.0853  0.0209  0.0986
 3608TIP3    H132315   2.298   0.697  14.215  0.8086  0.3768 -0.0806
 3608TIP3    H232316   2.229   0.615  14.107 -2.0646  0.8618  1.3043
 3609TIP3   OH232317   3.449   4.097  16.115 -0.3682  0.1988 -0.1394
 3609TIP3    H132318   3.504   4.088  16.038 -0.3151  0.5374 -0.1437
 3609TIP3    H232319   3.459   4.015  16.163  0.4353  0.4041  0.0508
 3610TIP3   OH232320   0.188   6.163  17.124  0.1466 -0.6747  0.3240
 3610TIP3    H132321   0.152   6.165  17.036 -1.6815 -1.8104  0.9714
 3610TIP3    H232322   0.280   6.186  17.114 -0.5107  1.5096 -1.5799
 3611TIP3   OH232323   6.124   6.720  16.000 -0.6059 -0.0680 -0.1243
 3611TIP3    H132324   6.057   6.684  16.058 -1.4364 -0.2793 -1.1947
 3611TIP3    H232325   6.126   6.814  16.022 -0.9465 -0.1350  0.2123
 3612TIP3   OH232326   2.697   2.085  17.069  0.0146 -0.0485 -0.0142
 3612TIP3    H132327   2.683   2.101  17.162 -0.7738  1.1279 -0.3120
 3612TIP3    H232328   2.724   2.170  17.034  1.2999 -0.6950 -0.7016
 3613TIP3   OH232329   4.731   5.580   4.626 -0.2159 -0.3394  0.0542
 3613TIP3    H132330   4.641   5.584   4.594 -0.1182  1.5207 -0.0959
 3613TIP3    H232331   4.784   5.569   4.548 -0.2805 -1.1242  0.1134
 3614TIP3   OH232332   5.991   6.687   1.822  0.0526 -0.2001 -0.2946
 3614TIP3    H132333   6.030   6.616   1.771 -1.3850 -1.8684  0.8019
 3614TIP3    H232334   5.897   6.669   1.820 -0.1063 -0.0954  2.4582
 3615TIP3   OH232335   3.682   5.669   3.100 -0.6233 -0.2058  0.3749
 3615TIP3    H132336   3.764   5.624   3.121 -0.3463 -1.0952 -2.2393
 3615TIP3    H232337   3.657   5.713   3.181  0.5185 -2.8770  2.3206
 3616TIP3   OH232338   3.628   3.538   0.340  0.4723 -0.0506 -0.3007
 3616TIP3    H132339   3.653   3.603   0.406  3.0846 -1.0077 -0.2488
 3616TIP3    H232340   3.662   3.573   0.257  0.7625 -0.7473 -0.4818
 3617TIP3   OH232341   4.330   4.773   5.047 -0.4897  0.1426 -0.1120
 3617TIP3    H132342   4.283   4.753   5.128 -0.4406  0.2592 -0.0546
 3617TIP3    H232343   4.275   4.736   4.977  0.3690 -1.5934  0.0868
 3618TIP3   OH232344   4.952   2.209  15.199 -0.1024  0.0987  0.0704
 3618TIP3    H132345   5.027   2.156  15.228  0.1252 -1.5777 -3.1226
 3618TIP3    H232346   4.875   2.155  15.218 -0.1262 -0.0275 -0.3630
 3619TIP3   OH232347   1.796   5.188   5.144 -0.9828  0.0170 -0.1221
 3619TIP3    H132348   1.789   5.157   5.234 -0.3999  1.1879  0.3480
 3619TIP3    H232349   1.890   5.189   5.126 -0.9608  1.5765 -0.0597
 3620TIP3   OH232350   3.967   1.347  16.539  0.0217 -1.0510  0.2095
 3620TIP3    H132351   3.911   1.294  16.482 -1.4268  0.6655 -0.0384
 3620TIP3    H232352   3.908   1.411  16.579  1.6493  0.2433  0.6699
 3621TIP3   OH232353   4.655   0.007  13.208 -0.0122  0.1321  0.3103
 3621TIP3    H132354   4.572   0.055  13.197  0.7545  1.4296  0.0126
 3621TIP3    H232355   4.693   0.043  13.288  1.0689  0.8096 -0.4795
 3622TIP3   OH232356   3.850   1.296  17.069 -0.2398  0.5811  0.3242
 3622TIP3    H132357   3.836   1.373  17.124 -3.7495 -1.2959  2.4519
 3622TIP3    H232358   3.762   1.267  17.046  0.9860 -1.7718 -1.9549
 3623TIP3   OH232359   4.180   5.090  14.674  0.3318 -0.0785  0.7008
 3623TIP3    H132360   4.185   5.144  14.595 -1.3705  2.4225  2.1739
 3623TIP3    H232361   4.158   5.003  14.641  0.7923  0.6107 -1.6489
 3624TIP3   OH232362   1.550   2.901  12.851  0.1122 -0.1236  0.5822
 3624TIP3    H132363   1.500   2.821  12.838  0.5130 -0.3267  0.2473
 3624TIP3    H232364   1.489   2.961  12.893  0.6305 -1.5709  3.6725
 3625TIP3   OH232365   3.115   2.748   6.444 -0.3866  0.1663 -0.0349
 3625TIP3    H132366   3.211   2.753   6.438 -0.2993  0.2214  1.2294
 3625TIP3    H232367   3.091   2.679   6.382  0.3659  0.8709 -1.1577
 3626TIP3   OH232368   0.457   6.477   3.205 -0.5545  0.1196 -0.0232
 3626TIP3    H132369   0.492   6.391   3.226  1.0517  0.6300 -0.4859
 3626TIP3    H232370   0.514   6.538   3.252 -3.0998  0.9350  2.3336
 3627TIP3   OH232371   5.377   3.651   3.770 -0.8811 -0.5093 -0.3457
 3627TIP3    H132372   5.391   3.641   3.864  1.4453  0.1556 -0.5664
 3627TIP3    H232373   5.409   3.569   3.732 -0.2363 -0.1158 -0.6685
 3628TIP3   OH232374   3.563   6.372   2.352 -0.8510  0.0492 -0.0685
 3628TIP3    H132375   3.626   6.300   2.358  0.5510  1.2363  0.0733
 3628TIP3    H232376   3.478   6.329   2.340 -0.0805 -1.6153  0.1669
 3629TIP3   OH232377   4.664   2.454   0.781  0.1282 -0.8406 -0.0377
 3629TIP3    H132378   4.677   2.415   0.867  0.0375 -0.1146  0.3150
 3629TIP3    H232379   4.655   2.380   0.722 -1.2769 -1.3693  0.7921
 3630TIP3   OH232380   4.810   6.356  16.448  0.4668  0.0662 -0.3700
 3630TIP3    H132381   4.751   6.366  16.523 -0.4946  1.7985 -1.2865
 3630TIP3    H232382   4.774   6.281  16.399  1.1367 -1.1128  0.8743
 3631TIP3   OH232383   2.967   0.130   5.686  0.2590 -0.1590  0.8006
 3631TIP3    H132384   2.938   0.185   5.613 -1.4748 -0.5786  1.1434
 3631TIP3    H232385   3.059   0.154   5.698  0.0338  1.3616 -0.2176
 3632TIP3   OH232386   4.450   2.186  15.696 -0.6384 -0.4882  0.3290
 3632TIP3    H132387   4.527   2.135  15.670  0.7999  0.9589  1.5482
 3632TIP3    H232388   4.453   2.265  15.642 -1.5231 -0.5981  0.0984
 3633TIP3   OH232389   3.764   0.073   0.364  0.6957 -0.2575 -0.1980
 3633TIP3    H132390   3.859   0.082   0.372  0.9289 -0.4684 -2.1793
 3633TIP3    H232391   3.747  -0.019   0.380  0.9677 -0.4128 -0.7563
 3634TIP3   OH232392   6.642   6.805  12.230  0.6497  0.4114 -0.2569
 3634TIP3    H132393   6.587   6.737  12.268  1.3581 -0.2713 -0.4335
 3634TIP3    H232394   6.731   6.770  12.234  1.2381  1.9356  1.0183
 3635TIP3   OH232395   6.429   4.421   4.396 -0.5856  0.5902 -0.5039
 3635TIP3    H132396   6.478   4.498   4.426 -1.3846  1.3830 -1.1478
 3635TIP3    H232397   6.421   4.434   4.301 -1.0617 -0.0988 -0.5654
 3636TIP3   OH232398   1.404   2.765   1.426 -0.1732 -0.0952  0.0184
 3636TIP3    H132399   1.334   2.764   1.360 -0.1457 -1.6869 -0.0324
 3636TIP3    H232400   1.476   2.811   1.384 -1.2993  1.9897  0.2312
 3637TIP3   OH232401   4.149   3.857   6.162 -0.0748  0.0175  0.6101
 3637TIP3    H132402   4.201   3.937   6.174 -0.4818  0.3137  0.4570
 3637TIP3    H232403   4.141   3.819   6.249  0.2773  0.0503  0.6543
 3638TIP3   OH232404   1.312   4.115   2.961 -0.0740  0.6178 -0.1315
 3638TIP3    H132405   1.374   4.104   3.033  0.9490 -0.8702 -1.1847
 3638TIP3    H232406   1.242   4.052   2.980 -0.3437  0.9983  0.1264
 3639TIP3   OH232407   0.373   2.329  12.851 -0.0381 -1.0713 -0.4713
 3639TIP3    H132408   0.319   2.367  12.920  0.4215  0.4214 -0.9046
 3639TIP3    H232409   0.462   2.333  12.885  0.1412 -0.7268 -0.9769
 3640TIP3   OH232410   2.930   5.871   5.446  0.3345 -0.1283  0.5250
 3640TIP3    H132411   2.988   5.795   5.442 -2.2615 -2.3226  1.2445
 3640TIP3    H232412   2.905   5.887   5.354  1.5158  0.4328  0.2835
 3641TIP3   OH232413   4.700   3.321   3.678  0.2231  0.1993  0.0906
 3641TIP3    H132414   4.710   3.379   3.603 -2.6421  1.5237  0.6044
 3641TIP3    H232415   4.640   3.367   3.736 -1.1433 -2.6855  1.1677
 3642TIP3   OH232416   3.510   6.388  16.291  0.1596 -0.1590  0.3960
 3642TIP3    H132417   3.503   6.296  16.264 -1.8969 -0.2144  0.9581
 3642TIP3    H232418   3.570   6.387  16.365 -0.7490 -1.2596  1.1571
 3643TIP3   OH232419   2.739   0.288  11.315 -0.5494  0.0375  0.2526
 3643TIP3    H132420   2.664   0.318  11.264 -0.5077  0.0878  0.2214
 3643TIP3    H232421   2.720   0.195  11.332 -0.3540 -0.0944 -0.2311
 3644TIP3   OH232422   0.388   6.388  12.679 -0.9403 -0.4139 -0.1615
 3644TIP3    H132423   0.421   6.363  12.593 -0.6245  0.4079 -0.2896
 3644TIP3    H232424   0.462   6.433  12.721 -1.8935  1.5076 -0.4761
 3645TIP3   OH232425   2.830   5.015   5.356  0.1868 -0.6025 -0.1745
 3645TIP3    H132426   2.758   4.959   5.328 -1.5841  1.2514  0.4410
 3645TIP3    H232427   2.880   5.033   5.276 -0.8402 -0.8230 -0.8755
 3646TIP3   OH232428   4.742   4.584  12.821 -0.0006 -0.5438  0.1444
 3646TIP3    H132429   4.648   4.600  12.823 -0.0185 -0.6768  1.8542
 3646TIP3    H232430   4.777   4.639  12.892  1.2176 -0.4676 -0.4856
 3647TIP3   OH232431   2.617   3.066   1.911 -0.5437  0.4029 -0.3209
 3647TIP3    H132432   2.680   2.996   1.925  0.2949  1.1287 -0.3341
 3647TIP3    H232433   2.555   3.057   1.983 -0.6118 -0.5161 -0.4841
 3648TIP3   OH232434   5.585   1.706   3.099  0.0927 -0.0261  0.0162
 3648TIP3    H132435   5.616   1.657   3.175  1.0453  1.3934  0.5995
 3648TIP3    H232436   5.632   1.790   3.105 -1.1290  0.7724 -1.1666
 3649TIP3   OH232437   1.656   1.598  15.118 -0.4876  0.4581 -0.1481
 3649TIP3    H132438   1.674   1.506  15.100 -0.7952  0.4633 -0.4988
 3649TIP3    H232439   1.617   1.631  15.037  0.1844  1.0475 -0.2442
 3650TIP3   OH232440   2.301   2.675  13.740 -0.2288 -0.0006  0.1886
 3650TIP3    H132441   2.239   2.685  13.813  0.2479 -0.1526  0.6183
 3650TIP3    H232442   2.374   2.732  13.763 -0.0911 -0.0207 -0.1934
 3651TIP3   OH232443   0.769   1.481  14.630  0.4975  0.0435  0.5126
 3651TIP3    H132444   0.816   1.564  14.634  1.4329 -0.5354  2.4266
 3651TIP3    H232445   0.836   1.417  14.606 -0.7291  0.1077 -4.1458
 3652TIP3   OH232446   2.850   1.344   5.367 -0.0704 -0.4652 -0.3534
 3652TIP3    H132447   2.791   1.325   5.294 -0.3697 -2.8972  0.4372
 3652TIP3    H232448   2.793   1.368   5.440 -0.0931 -2.0223  0.1809
 3653TIP3   OH232449   0.361   6.352   2.967  0.8413 -0.4640  0.4619
 3653TIP3    H132450   0.397   6.321   2.884 -1.3134  0.1573 -0.7977
 3653TIP3    H232451   0.428   6.410   3.002  1.5010 -0.1432 -1.2266
 3654TIP3   OH232452   5.392   6.118   1.329  0.8617  0.1437 -0.3341
 3654TIP3    H132453   5.458   6.149   1.391 -0.2764 -1.9198  2.0627
 3654TIP3    H232454   5.401   6.023   1.330 -1.5414 -0.1301 -0.6283
 3655TIP3   OH232455   1.610   2.587   3.592  0.2584 -0.3896 -0.7050
 3655TIP3    H132456   1.541   2.651   3.577 -1.2303 -0.9447  2.9044
 3655TIP3    H232457   1.570   2.503   3.571  0.9293 -0.4949 -1.6410
 3656TIP3   OH232458   5.926   5.679   4.055 -0.1573 -0.3475  0.7886
 3656TIP3    H132459   5.949   5.742   4.123  0.5135 -0.0265  0.2773
 3656TIP3    H232460   5.983   5.701   3.982 -0.2032 -1.2972  0.4565
 3657TIP3   OH232461   3.089   1.758  13.108 -0.4440  0.0739  0.2408
 3657TIP3    H132462   3.056   1.671  13.085 -0.8723  0.2108  0.3235
 3657TIP3    H232463   3.136   1.745  13.190 -1.1767  0.0511  0.6735
 3658TIP3   OH232464   3.365   5.805  16.114 -0.7371  0.1997  0.0597
 3658TIP3    H132465   3.441   5.803  16.173  0.0719  0.9431 -0.9143
 3658TIP3    H232466   3.402   5.789  16.027 -1.6955  0.6193 -0.4353
 3659TIP3   OH232467   5.088   4.634  12.779 -0.2483 -0.5225 -0.8384
 3659TIP3    H132468   5.122   4.617  12.691 -0.3957 -0.5689 -0.8884
 3659TIP3    H232469   4.993   4.626  12.769 -0.2127 -1.6540 -0.4334
 3660TIP3   OH232470   6.245   1.060   0.845  0.0402  0.1052 -0.7431
 3660TIP3    H132471   6.271   0.971   0.826  1.1472  0.7962 -2.7020
 3660TIP3    H232472   6.321   1.099   0.888  0.4075  0.6824 -1.8669
 3661TIP3   OH232473   0.562   1.730  12.150  0.2739 -0.4435 -0.8175
 3661TIP3    H132474   0.577   1.651  12.202 -5.1446  0.0346  2.1821
 3661TIP3    H232475   0.611   1.798  12.196 -2.2480 -0.5580  2.3319
 3662TIP3   OH232476   6.748   5.744   6.191 -0.1003  0.0347 -0.0828
 3662TIP3    H132477   6.802   5.814   6.229  0.5827  0.4216 -1.6823
 3662TIP3    H232478   6.678   5.790   6.145 -1.1661 -0.4379  1.0246
 3663TIP3   OH232479   3.651   4.376   2.948 -0.0938  0.1290 -0.1989
 3663TIP3    H132480   3.672   4.375   2.854 -2.1713  0.1066 -0.7056
 3663TIP3    H232481   3.736   4.385   2.991  1.0178 -0.8996 -2.0375
 3664TIP3   OH232482   6.024   6.147   0.316  0.7737  1.1524  0.1033
 3664TIP3    H132483   6.100   6.201   0.296  0.4581  1.8644  0.7740
 3664TIP3    H232484   5.978   6.194   0.385  0.0288  0.4450  0.1130
 3665TIP3   OH232485   0.058   2.333  13.679 -0.4183 -0.7072  0.3120
 3665TIP3    H132486  -0.018   2.351  13.623 -0.3609 -0.1673  0.4111
 3665TIP3    H232487   0.102   2.417  13.689 -2.0374 -0.0846  3.5558
 3666TIP3   OH232488   4.405   5.502   0.943 -0.2195 -0.7422  0.3427
 3666TIP3    H132489   4.418   5.434   0.877 -0.9100 -0.3321 -0.2417
 3666TIP3    H232490   4.457   5.474   1.018 -0.4092 -1.8469  0.0731
 3667TIP3   OH232491   3.711   4.131  15.057 -0.0192 -0.1993 -0.3956
 3667TIP3    H132492   3.792   4.149  15.009 -0.9340  0.9379 -1.5759
 3667TIP3    H232493   3.669   4.061  15.008 -0.5714  0.4101 -0.8037
 3668TIP3   OH232494   0.908   4.749   0.227  0.4572  0.4043 -0.6274
 3668TIP3    H132495   0.897   4.821   0.290  1.4207 -0.8136  1.0139
 3668TIP3    H232496   0.980   4.697   0.262 -0.6971 -1.8068 -1.3154
 3669TIP3   OH232497   6.249   2.349   2.518  0.3281  0.2085  0.8096
 3669TIP3    H132498   6.341   2.355   2.493  0.1344 -1.0816 -0.3415
 3669TIP3    H232499   6.225   2.257   2.500 -1.0422  0.3890  1.5630
 3670TIP3   OH232500   4.256   6.665   5.949 -0.3722  0.4573 -0.1693
 3670TIP3    H132501   4.319   6.691   6.016  0.4243 -1.5194 -0.1004
 3670TIP3    H232502   4.238   6.746   5.901  0.4907  1.5233  1.2073
 3671TIP3   OH232503   1.831   2.580  15.510 -0.1574  0.5856  0.4038
 3671TIP3    H132504   1.804   2.537  15.428  3.5819 -0.1006 -0.6492
 3671TIP3    H232505   1.815   2.514  15.578 -0.6024  0.0452 -0.2165
 3672TIP3   OH232506   4.451   6.020   0.126 -0.0822  0.1643 -0.3876
 3672TIP3    H132507   4.368   6.030   0.172 -0.6761  0.7994 -1.5685
 3672TIP3    H232508   4.450   5.930   0.093  0.7131 -0.5843  1.4780
 3673TIP3   OH232509   3.656   5.193   0.781  0.0902 -0.2715  0.3320
 3673TIP3    H132510   3.594   5.232   0.720  0.6038  1.7184  1.0041
 3673TIP3    H232511   3.727   5.160   0.726  0.2819  1.0001 -0.2273
 3674TIP3   OH232512   0.926   1.722  11.668  0.1733  0.5420 -0.8389
 3674TIP3    H132513   0.847   1.721  11.614 -0.2324 -1.4804 -0.2580
 3674TIP3    H232514   0.960   1.811  11.658  0.4188  0.1820 -4.8348
 3675TIP3   OH232515   2.709   1.636   0.444  0.1586  0.3401  0.2567
 3675TIP3    H132516   2.626   1.681   0.433  0.2817  0.5379  0.1331
 3675TIP3    H232517   2.708   1.567   0.377  0.6925  1.2247 -0.6821
 3676TIP3   OH232518   3.758   1.116  16.164  0.4740  0.5634 -0.4205
 3676TIP3    H132519   3.699   1.044  16.144 -2.2746  2.8793 -1.3822
 3676TIP3    H232520   3.825   1.112  16.095  0.1255 -0.7618 -0.7091
 3677TIP3   OH232521   2.924   2.805  14.908 -0.4597  0.0748 -0.0499
 3677TIP3    H132522   2.840   2.759  14.911  0.6780 -2.0608  1.3277
 3677TIP3    H232523   2.902   2.891  14.871 -3.2504 -0.3590  0.3295
 3678TIP3   OH232524   2.606   1.953   5.452  0.1480  0.2447  0.2843
 3678TIP3    H132525   2.537   1.887   5.447  0.9245 -0.7538  1.8225
 3678TIP3    H232526   2.635   1.964   5.362 -1.5112  0.1600 -0.2896
 3679TIP3   OH232527   3.826   0.793   3.653  0.0964 -0.1869 -0.2181
 3679TIP3    H132528   3.760   0.807   3.720 -0.1094 -0.0602 -0.4494
 3679TIP3    H232529   3.899   0.850   3.679 -0.6939  1.2760 -1.1020
 3680TIP3   OH232530   0.766   6.517  15.234  0.3870 -0.1672  0.1093
 3680TIP3    H132531   0.859   6.521  15.258  1.1126  1.6653 -2.5303
 3680TIP3    H232532   0.737   6.608  15.235 -0.6871 -0.4522 -1.4389
 3681TIP3   OH232533   2.614   0.705  14.625 -0.0107 -0.0006  0.1727
 3681TIP3    H132534   2.571   0.786  14.652 -0.7000 -0.9303  2.0259
 3681TIP3    H232535   2.567   0.636  14.673 -0.5407 -1.7009 -2.5687
 3682TIP3   OH232536   5.627   5.921   5.367 -0.7147 -0.2687 -0.1267
 3682TIP3    H132537   5.618   5.911   5.462 -1.5312 -0.9164 -0.2613
 3682TIP3    H232538   5.567   5.993   5.345  0.5833  0.9083  0.0244
 3683TIP3   OH232539   1.093   5.129   5.080  0.1245  0.5984 -0.2457
 3683TIP3    H132540   1.058   5.082   5.156  1.5905  1.8444  1.2736
 3683TIP3    H232541   1.166   5.075   5.051  0.9241  1.1786  0.6217
 3684TIP3   OH232542   4.900   5.755   0.688 -0.4222 -0.7205  0.3153
 3684TIP3    H132543   4.995   5.751   0.675 -0.4933 -0.6803 -0.2787
 3684TIP3    H232544   4.864   5.718   0.607 -0.8880 -2.7623  1.3739
 3685TIP3   OH232545   1.416   2.521  14.054 -0.3866 -0.1343 -0.5838
 3685TIP3    H132546   1.356   2.501  13.982  0.0349  2.0911 -1.6223
 3685TIP3    H232547   1.362   2.518  14.132 -1.1560 -1.2105 -1.1291
 3686TIP3   OH232548   4.788   5.871   4.228  0.1686 -0.2058  1.1363
 3686TIP3    H132549   4.705   5.824   4.236 -0.5629  0.9879  0.8574
 3686TIP3    H232550   4.841   5.816   4.172 -0.5402 -0.8549  1.0766
 3687TIP3   OH232551   2.858   2.867   3.254  0.5939  0.2310 -0.3162
 3687TIP3    H132552   2.777   2.885   3.302  0.9850  0.4973  0.2487
 3687TIP3    H232553   2.861   2.771   3.249  0.2955  0.2153 -0.2534
 3688TIP3   OH232554   0.187   6.593   2.527  0.1410  0.8251  0.1191
 3688TIP3    H132555   0.261   6.534   2.514 -0.4720 -0.0097  0.3145
 3688TIP3    H232556   0.151   6.567   2.612 -1.3236  0.1577 -0.6755
 3689TIP3   OH232557   4.994   1.024  14.165 -0.5490 -0.3946  0.1763
 3689TIP3    H132558   5.037   1.085  14.105 -0.1741  0.2590  1.0881
 3689TIP3    H232559   4.972   0.949  14.110 -1.8249  0.8982 -1.1883
 3690TIP3   OH232560   6.086   1.895   3.623  0.8232 -0.1128 -0.3383
 3690TIP3    H132561   6.060   1.935   3.540 -1.0598  0.2518  0.3840
 3690TIP3    H232562   6.121   1.810   3.599 -0.1661 -0.2231 -1.4852
 3691TIP3   OH232563   3.812   3.115  10.972  0.1275  0.0311  0.1928
 3691TIP3    H132564   3.905   3.139  10.963  0.8790 -1.8007  2.0651
 3691TIP3    H232565   3.814   3.020  10.985 -1.9923  0.0121  0.6885
 3692TIP3   OH232566   5.533   2.905  12.117 -0.1756  0.5122  0.3194
 3692TIP3    H132567   5.592   2.858  12.175  0.1355  0.6407  0.1089
 3692TIP3    H232568   5.587   2.930  12.042 -0.2020  1.6302  0.6488
 3693TIP3   OH232569   1.708   2.729  11.977  0.7675  0.1938 -0.4652
 3693TIP3    H132570   1.773   2.781  11.930  0.4270 -0.2975 -1.5168
 3693TIP3    H232571   1.759   2.659  12.019  0.7892 -1.4975 -3.0510
 3694TIP3   OH232572   6.005   6.034   4.495 -0.2947  0.0156  0.8801
 3694TIP3    H132573   6.081   6.078   4.457 -1.0399 -1.5410 -2.8754
 3694TIP3    H232574   6.042   5.969   4.555  1.0530  1.6584  1.9288
 3695TIP3   OH232575   2.729   2.230  13.331  0.4630  0.1777  0.2502
 3695TIP3    H132576   2.660   2.164  13.334  1.1040 -0.4726  1.3218
 3695TIP3    H232577   2.714   2.277  13.249  0.1211 -1.4334 -0.6471
 3696TIP3   OH232578   1.468   5.168  15.541 -0.0647 -0.1647 -0.0966
 3696TIP3    H132579   1.394   5.213  15.499 -0.4982 -0.5891  0.2078
 3696TIP3    H232580   1.532   5.238  15.557 -1.3000  0.6669  1.6703
 3697TIP3   OH232581   6.087   3.356   3.508 -0.4483  0.0661  0.4988
 3697TIP3    H132582   6.069   3.290   3.575 -0.8028 -1.1225 -0.7229
 3697TIP3    H232583   6.005   3.403   3.496 -0.2709  0.5627  1.1726
 3698TIP3   OH232584   4.907   6.373   4.219  0.0017  1.0433 -0.0991
 3698TIP3    H132585   4.833   6.405   4.168  0.4287  1.8392 -0.2281
 3698TIP3    H232586   4.868   6.311   4.281 -0.2630 -1.8611 -2.9141
 3699TIP3   OH232587   5.195   6.821   3.541  0.1900 -0.6513 -0.4224
 3699TIP3    H132588   5.241   6.759   3.597  1.4395 -0.0986 -0.8009
 3699TIP3    H232589   5.250   6.899   3.541 -1.9041  0.9623  0.9981
 3700TIP3   OH232590   3.464   0.138  13.112 -0.3201  0.1036  0.7238
 3700TIP3    H132591   3.520   0.101  13.045 -1.2257  1.3517 -0.7845
 3700TIP3    H232592   3.408   0.066  13.140 -0.5360 -0.2271 -0.5248
 3701TIP3   OH232593   6.346   4.721  12.683 -0.2343 -0.2343  0.0922
 3701TIP3    H132594   6.368   4.636  12.643  0.5643 -0.0800  0.1904
 3701TIP3    H232595   6.407   4.729  12.756 -1.0159 -0.0501  0.7326
 3702TIP3   OH232596   1.503   4.877   0.283  0.1203 -0.2210  0.1549
 3702TIP3    H132597   1.432   4.940   0.294  1.0031  0.6873  1.0138
 3702TIP3    H232598   1.580   4.924   0.317  0.8480 -1.6924  0.5907
 3703TIP3   OH232599   3.683   3.818  17.160 -0.9800 -0.4963 -0.1249
 3703TIP3    H132600   3.602   3.866  17.144 -1.0197 -1.1667 -2.3028
 3703TIP3    H232601   3.751   3.873  17.121 -0.7997 -1.3580 -1.0454
 3704TIP3   OH232602   3.505   6.713  10.761  0.0664  0.0369 -0.2664
 3704TIP3    H132603   3.539   6.634  10.804  1.1914  0.9858  0.6614
 3704TIP3    H232604   3.551   6.717  10.677  0.3042 -0.0811 -0.1425
 3705TIP3   OH232605   0.865   3.746  12.351  0.2198 -0.1340  0.8707
 3705TIP3    H132606   0.793   3.789  12.398  0.4340  0.5786  0.5515
 3705TIP3    H232607   0.928   3.816  12.334  0.6560 -0.6108  0.5110
 3706TIP3   OH232608   3.998   4.333  11.276  0.5379  0.2185  0.0711
 3706TIP3    H132609   4.031   4.390  11.206 -1.2570  1.4502  0.1496
 3706TIP3    H232610   3.964   4.394  11.342 -0.1083 -0.9476  0.8554
 3707TIP3   OH232611   1.343   2.647   5.282 -0.9165  0.4454 -0.2368
 3707TIP3    H132612   1.423   2.698   5.272 -0.7726  0.5408  1.2312
 3707TIP3    H232613   1.370   2.557   5.261  0.6779 -0.3063  3.9933
 3708TIP3   OH232614   4.030   1.619  16.023  0.2796  0.2644  0.0731
 3708TIP3    H132615   4.019   1.568  16.103  1.0394  0.2849  0.1899
 3708TIP3    H232616   3.991   1.564  15.955 -0.4984  0.3098  0.4667
 3709TIP3   OH232617   1.062   5.486  11.913 -0.2677 -0.1409 -0.1139
 3709TIP3    H132618   0.982   5.435  11.924 -1.1829  1.7627  3.6575
 3709TIP3    H232619   1.126   5.442  11.969  0.1752  0.5258 -0.0908
 3710TIP3   OH232620   0.762   5.371  16.280  0.9153  0.0762 -0.1933
 3710TIP3    H132621   0.745   5.459  16.313 -1.3200 -0.4831  0.3142
 3710TIP3    H232622   0.688   5.351  16.224  0.5822 -2.0274  0.8928
 3711TIP3   OH232623   2.918   0.720  13.083 -1.3384 -0.1376 -0.0830
 3711TIP3    H132624   2.902   0.692  12.993 -1.6957 -4.5209  1.1350
 3711TIP3    H232625   2.981   0.792  13.075 -0.9723 -0.6750 -3.7737
 3712TIP3   OH232626   5.857   3.164   1.503 -0.2398 -0.2724 -0.3914
 3712TIP3    H132627   5.889   3.112   1.576 -0.6215  0.9028  0.6552
 3712TIP3    H232628   5.870   3.255   1.530 -0.4854  0.2021 -1.7474
 3713TIP3   OH232629   1.951   6.728  10.979  0.3773 -0.4808  0.4306
 3713TIP3    H132630   1.919   6.684  10.900 -1.5817 -1.0614  1.4762
 3713TIP3    H232631   1.920   6.674  11.051  1.7903  0.2471  1.6394
 3714TIP3   OH232632   5.929   3.710  14.480  0.3921 -0.4507  0.5946
 3714TIP3    H132633   5.871   3.678  14.550 -0.1854  0.6830  0.6586
 3714TIP3    H232634   5.999   3.756  14.526 -0.9197  1.8333  0.4352
 3715TIP3   OH232635   4.480   1.226   2.186 -0.0078 -0.2442 -0.0678
 3715TIP3    H132636   4.538   1.226   2.109 -0.5688  0.6554 -0.5187
 3715TIP3    H232637   4.392   1.218   2.148 -0.1883 -1.8011  0.6177
 3716TIP3   OH232638   0.259   3.884   1.842 -0.8429 -0.0856  0.2308
 3716TIP3    H132639   0.234   3.800   1.880  0.0913  1.1669  4.0109
 3716TIP3    H232640   0.189   3.943   1.867  0.5875  1.1389  1.5229
 3717TIP3   OH232641   6.226   2.372   4.781  0.1031 -0.2173  0.0679
 3717TIP3    H132642   6.167   2.426   4.728  0.9572 -1.2373 -2.0826
 3717TIP3    H232643   6.238   2.421   4.862 -1.8821  1.0892 -0.3577
 3718TIP3   OH232644   3.311   6.446   5.308  0.0106  0.1555  0.3104
 3718TIP3    H132645   3.303   6.353   5.287 -0.1643  0.5840 -1.7085
 3718TIP3    H232646   3.361   6.448   5.389  2.6560 -1.6055 -1.1426
 3719TIP3   OH232647   6.530   6.066   4.661  0.4946  0.0571 -0.0212
 3719TIP3    H132648   6.442   6.047   4.631  0.6167  2.1899 -1.9548
 3719TIP3    H232649   6.535   6.027   4.748 -1.9497 -1.0660 -0.3235
 3720TIP3   OH232650   1.846   4.881  15.605  0.1044  0.0517  0.4641
 3720TIP3    H132651   1.893   4.799  15.622 -0.2284 -0.0359  0.9911
 3720TIP3    H232652   1.792   4.894  15.683  0.1610  0.7772  0.3882
 3721TIP3   OH232653   1.782   2.152  16.206 -0.8867  0.6178  0.8886
 3721TIP3    H132654   1.841   2.210  16.158 -1.5289  0.3673 -0.2558
 3721TIP3    H232655   1.695   2.187  16.189 -1.2649 -0.5166  0.3756
 3722TIP3   OH232656   5.341   1.990  15.968 -0.2224  0.2033  0.1827
 3722TIP3    H132657   5.266   2.047  15.986 -0.2579  0.8440 -1.7880
 3722TIP3    H232658   5.313   1.903  15.997 -2.0476  0.2780 -1.1513
 3723TIP3   OH232659   3.068   5.210   6.442  0.6605  0.1145 -0.0103
 3723TIP3    H132660   3.052   5.296   6.404 -2.8844  0.5569  2.0521
 3723TIP3    H232661   2.983   5.184   6.479  1.8683 -3.7794  0.4525
 3724TIP3   OH232662   5.416   0.538  17.172 -0.0896 -0.8926  0.0185
 3724TIP3    H132663   5.469   0.545  17.252 -0.6045 -2.1759  0.4953
 3724TIP3    H232664   5.472   0.574  17.103  1.2400 -1.7810  0.5929
 3725TIP3   OH232665   3.652   6.082   0.359 -0.2242  0.2729  0.5866
 3725TIP3    H132666   3.708   6.158   0.376  1.1478 -0.4479 -0.5425
 3725TIP3    H232667   3.663   6.025   0.435  1.6685 -0.4774 -0.2058
 3726TIP3   OH232668   2.023   0.088   2.039 -0.5648  0.4073 -0.0215
 3726TIP3    H132669   2.050   0.003   2.006  1.7236 -0.7287  4.0713
 3726TIP3    H232670   1.943   0.070   2.090 -0.2520  0.7258  0.5977
 3727TIP3   OH232671   5.701   4.605  13.820 -0.1165 -0.4057 -0.2333
 3727TIP3    H132672   5.758   4.555  13.760  1.4984  0.3865  0.5969
 3727TIP3    H232673   5.759   4.667  13.863 -1.9414  1.7376 -0.6871
 3728TIP3   OH232674   5.954   0.911   6.215 -0.2140 -0.5531  0.0387
 3728TIP3    H132675   5.923   0.969   6.285 -0.8398 -1.6420  0.6863
 3728TIP3    H232676   6.049   0.910   6.226 -0.2416 -0.0876  0.3698
 3729TIP3   OH232677   4.627   3.119  12.082 -0.2498 -0.5124 -0.1567
 3729TIP3    H132678   4.703   3.065  12.059 -1.4110 -2.3930  0.2115
 3729TIP3    H232679   4.557   3.087  12.025 -0.8525  1.0392 -0.3317
 3730TIP3   OH232680   6.359   4.993  14.514 -0.3877 -0.3865 -0.2929
 3730TIP3    H132681   6.372   4.902  14.541  0.3947 -0.3266 -0.4447
 3730TIP3    H232682   6.305   4.988  14.436 -0.9353 -0.6828  0.1039
 3731TIP3   OH232683   4.021   1.239   2.370  0.2110 -0.0896 -0.7658
 3731TIP3    H132684   3.963   1.220   2.444  0.7393  0.9090 -0.0731
 3731TIP3    H232685   4.075   1.160   2.362 -0.2617 -0.4502 -0.4856
 3732TIP3   OH232686   4.815   5.358  14.248  0.2902 -0.9210 -0.0705
 3732TIP3    H132687   4.869   5.390  14.320  0.2286  2.3669 -1.3256
 3732TIP3    H232688   4.727   5.353  14.284  0.1457  1.3173 -0.0344
 3733TIP3   OH232689   6.158   6.542   6.097  0.2924 -0.7220 -0.2145
 3733TIP3    H132690   6.198   6.567   6.180 -0.3709 -1.1429  0.2413
 3733TIP3    H232691   6.166   6.620   6.042  1.5618 -0.7444 -0.0778
 3734TIP3   OH232692   0.371   5.982  12.168 -0.0968  0.1040  0.6187
 3734TIP3    H132693   0.398   5.966  12.077  0.1823 -0.2221  0.7583
 3734TIP3    H232694   0.340   6.073  12.168 -0.0930  0.1093  0.1997
 3735TIP3   OH232695   1.773   4.247  13.469 -0.2025  0.0521 -0.1702
 3735TIP3    H132696   1.785   4.153  13.481  0.5108  0.0566 -0.7962
 3735TIP3    H232697   1.702   4.255  13.406  0.0183 -0.0789 -0.4358
 3736TIP3   OH232698   6.497   0.782  16.550  0.4010 -0.0462 -0.3612
 3736TIP3    H132699   6.535   0.773  16.637  0.1603 -2.5839 -0.4447
 3736TIP3    H232700   6.458   0.697  16.532 -3.7350  1.7848 -1.0782
 3737TIP3   OH232701   3.258   6.811  14.236  0.3101 -0.0035 -0.5685
 3737TIP3    H132702   3.186   6.840  14.179 -0.5097 -0.4461  0.2185
 3737TIP3    H232703   3.300   6.893  14.265 -0.6061  0.3207 -0.1139
 3738TIP3   OH232704   2.952   3.473  14.058 -0.3453  0.4357 -0.2237
 3738TIP3    H132705   2.973   3.387  14.019 -0.8397  0.6840 -1.0662
 3738TIP3    H232706   2.867   3.495  14.021 -0.6547  0.8641  0.7339
 3739TIP3   OH232707   0.806   4.115   5.511 -0.0610 -0.2486  0.6516
 3739TIP3    H132708   0.886   4.068   5.487  0.2241  0.0086  1.0920
 3739TIP3    H232709   0.747   4.047   5.542 -0.0267 -0.4440  0.2954
 3740TIP3   OH232710   4.458   1.437   5.181 -0.1333 -0.1925  0.0091
 3740TIP3    H132711   4.460   1.454   5.087  1.3398  0.0755  0.0742
 3740TIP3    H232712   4.470   1.342   5.188  0.0990 -0.1691 -0.0641
 3741TIP3   OH232713   2.006   1.039   0.078 -0.5463 -0.7943  0.0564
 3741TIP3    H132714   2.072   0.970   0.074 -0.3693 -0.5593 -1.3892
 3741TIP3    H232715   1.922   0.993   0.072 -0.4516 -0.8138 -4.8438
 3742TIP3   OH232716   4.239   5.448   2.288 -0.1537  0.2536  0.1678
 3742TIP3    H132717   4.299   5.419   2.218 -0.4738 -0.1390  0.0563
 3742TIP3    H232718   4.175   5.378   2.296 -0.7689  0.7978  0.0962
 3743TIP3   OH232719   4.108   5.314  15.520 -0.3050 -0.3107 -0.5682
 3743TIP3    H132720   4.040   5.378  15.501 -1.2855 -1.6210 -1.6425
 3743TIP3    H232721   4.149   5.346  15.601 -0.1881  2.0979 -1.4883
 3744TIP3   OH232722   1.789   4.392   5.982  0.0045  0.1400  0.2133
 3744TIP3    H132723   1.833   4.465   5.938  0.9322 -1.4205 -1.5381
 3744TIP3    H232724   1.698   4.398   5.952 -0.4245  1.7104  1.6607
 3745TIP3   OH232725   3.545   1.779   3.310 -0.2119  0.1366  0.1343
 3745TIP3    H132726   3.561   1.736   3.394  3.7736 -0.6263 -0.7833
 3745TIP3    H232727   3.530   1.870   3.333 -0.9334 -0.3430  1.7438
 3746TIP3   OH232728   2.943   3.266  13.842  0.1244 -0.7857  0.1666
 3746TIP3    H132729   2.984   3.329  13.784 -0.0134  1.0976  1.9802
 3746TIP3    H232730   2.849   3.283  13.835  0.0957 -0.6285  0.8020
 3747TIP3   OH232731   1.440   4.084   4.220  0.1165  0.6358  0.4504
 3747TIP3    H132732   1.422   4.152   4.155 -0.3601  0.2210  0.1455
 3747TIP3    H232733   1.505   4.028   4.178  1.3288  1.4834  1.1102
 3748TIP3   OH232734   1.471   4.663  16.930 -0.1788 -0.4188 -0.0446
 3748TIP3    H132735   1.565   4.649  16.942 -0.3022 -1.1194  0.1882
 3748TIP3    H232736   1.453   4.747  16.971  0.1133 -0.9350  1.1905
 3749TIP3   OH232737   6.030   5.762  13.797 -0.4538  0.2109 -0.0887
 3749TIP3    H132738   6.077   5.679  13.800 -0.8545 -0.0425 -0.7549
 3749TIP3    H232739   5.963   5.750  13.730 -0.1664  1.2575 -0.5888
 3750TIP3   OH232740   4.188   3.030   4.141  0.1487 -0.1753 -0.0204
 3750TIP3    H132741   4.199   3.091   4.214  1.5056 -1.8351  1.2128
 3750TIP3    H232742   4.101   2.991   4.154  0.1830 -0.1041  0.4101
 3751TIP3   OH232743   1.276   3.403   4.795 -0.5008 -0.0766  0.2168
 3751TIP3    H132744   1.249   3.448   4.875 -0.6552  1.2988 -0.5764
 3751TIP3    H232745   1.371   3.406   4.796 -0.5148  0.6729 -0.0337
 3752TIP3   OH232746   4.643   3.399  12.139 -0.0764 -0.3511 -0.3969
 3752TIP3    H132747   4.728   3.429  12.107  0.2173 -0.2397  0.4570
 3752TIP3    H232748   4.649   3.303  12.138 -0.0691 -0.3504 -0.6422
 3753TIP3   OH232749   4.606   1.763  13.985 -0.4225 -0.1220 -1.2843
 3753TIP3    H132750   4.532   1.823  13.995 -0.4449 -0.1441 -1.3190
 3753TIP3    H232751   4.644   1.787  13.900  0.8748  1.3058 -0.3529
 3754TIP3   OH232752   2.047   2.622   5.033  0.2457 -0.1887  0.0345
 3754TIP3    H132753   2.081   2.534   5.021 -1.9200 -1.2620  1.1991
 3754TIP3    H232754   2.033   2.630   5.127  0.6940  1.5552 -0.0046
 3755TIP3   OH232755   3.264   6.160   0.548 -0.2758 -0.2671 -0.2295
 3755TIP3    H132756   3.275   6.248   0.513 -0.7396  0.5257  1.5133
 3755TIP3    H232757   3.199   6.119   0.492 -0.4986  0.7056 -0.6985
 3756TIP3   OH232758   2.411   4.783   4.445 -0.1673 -0.4492 -0.6775
 3756TIP3    H132759   2.360   4.726   4.503  1.2747 -0.4623  0.6626
 3756TIP3    H232760   2.467   4.834   4.505  1.8442 -0.9023 -2.0696
 3757TIP3   OH232761   4.566   5.917   0.939  0.3367  0.2882  0.3564
 3757TIP3    H132762   4.562   6.008   0.968  0.5289  0.2515  0.4950
 3757TIP3    H232763   4.598   5.869   1.015 -0.9707 -0.0810  0.7000
 3758TIP3   OH232764   6.479   3.173   2.650  0.0810  0.0093 -0.2742
 3758TIP3    H132765   6.559   3.226   2.652 -0.3713  0.7440  2.2798
 3758TIP3    H232766   6.509   3.083   2.655  0.7775  0.0916 -2.1016
 3759TIP3   OH232767   2.450   6.788  10.410 -0.0316  0.3265 -0.2247
 3759TIP3    H132768   2.500   6.782  10.328  2.5572 -0.6761  1.3147
 3759TIP3    H232769   2.436   6.881  10.423  2.7667  0.8190 -0.0681
 3760TIP3   OH232770   0.493   3.506  13.146 -0.2276  0.1356  0.1121
 3760TIP3    H132771   0.502   3.595  13.179  1.6483 -0.2588  0.8126
 3760TIP3    H232772   0.518   3.451  13.221 -0.3577 -0.9400 -0.6132
 3761TIP3   OH232773   0.680   6.195  11.229  0.1364  0.0929 -0.4840
 3761TIP3    H132774   0.725   6.162  11.151 -0.8250  0.1141 -1.0525
 3761TIP3    H232775   0.597   6.148  11.230  0.5311 -0.6406  1.0813
 3762TIP3   OH232776   5.891   3.970  13.805 -0.1114 -0.4258 -0.0464
 3762TIP3    H132777   5.804   3.998  13.777  0.6009  0.9871 -0.9800
 3762TIP3    H232778   5.939   4.052  13.820  0.2844 -1.1265  3.1107
 3763TIP3   OH232779   5.250   6.459   2.431 -0.5921 -0.5694  0.2287
 3763TIP3    H132780   5.214   6.370   2.431 -0.3199 -0.7454 -1.9253
 3763TIP3    H232781   5.199   6.506   2.496 -0.4343 -2.4018  1.7519
 3764TIP3   OH232782   5.098   4.479  10.399 -0.2327 -0.2558  0.6805
 3764TIP3    H132783   5.102   4.410  10.465 -1.0151 -0.5035  0.4746
 3764TIP3    H232784   5.181   4.470  10.352 -0.3926 -1.1889  0.5387
 3765TIP3   OH232785   2.062   6.193  11.909  0.2095  0.1137  0.3952
 3765TIP3    H132786   2.003   6.122  11.882  0.6800  0.2027 -0.9440
 3765TIP3    H232787   2.142   6.149  11.936  0.9036  0.1352 -1.4804
 3766TIP3   OH232788   4.622   1.084  13.109  0.0385  0.2993 -0.2664
 3766TIP3    H132789   4.643   1.002  13.154  2.7548  0.1169 -1.6831
 3766TIP3    H232790   4.602   1.058  13.020 -0.2921  1.1074 -0.4401
 3767TIP3   OH232791   2.931   4.030  16.363 -0.5714 -0.2797  0.4155
 3767TIP3    H132792   2.843   4.063  16.378 -0.7289  0.3162 -1.5867
 3767TIP3    H232793   2.930   3.996  16.274  0.5403 -2.6689  1.2089
 3768TIP3   OH232794   3.172   1.040  14.348 -0.3729  0.4499  0.0824
 3768TIP3    H132795   3.169   1.094  14.427  2.0378  0.0959  0.4761
 3768TIP3    H232796   3.168   0.950  14.381 -1.8315  0.3115 -0.4031
 3769TIP3   OH232797   6.135   4.718  16.942  0.2330  0.3266 -0.0229
 3769TIP3    H132798   6.059   4.760  16.984 -0.1632 -1.7449  1.4890
 3769TIP3    H232799   6.168   4.657  17.008  2.3174  0.0680 -1.2086
 3770TIP3   OH232800   5.428   6.099  13.707 -0.2170 -0.1862 -0.5896
 3770TIP3    H132801   5.480   6.026  13.673  1.2339  0.2571  0.5308
 3770TIP3    H232802   5.354   6.106  13.648  0.9662 -0.9184 -2.2355
 3771TIP3   OH232803   3.562   6.109  13.866  0.1450 -0.1642  0.3618
 3771TIP3    H132804   3.553   6.015  13.878  0.4424 -0.0570  1.5942
 3771TIP3    H232805   3.649   6.130  13.901 -0.2825  0.6774  0.9651
 3772TIP3   OH232806   5.008   5.625   3.805  0.1869 -0.2232  0.1358
 3772TIP3    H132807   4.975   5.696   3.750  0.5648 -0.0373  0.1406
 3772TIP3    H232808   5.100   5.649   3.821 -0.3247  0.5984  2.2216
 3773TIP3   OH232809   5.055   3.473  16.649 -0.8877 -0.3578  0.2139
 3773TIP3    H132810   5.035   3.535  16.719  1.7401 -0.4216  1.1657
 3773TIP3    H232811   5.037   3.520  16.568  0.0831  1.3249  0.9194
 3774TIP3   OH232812   5.414   6.680  10.738  0.1563  0.1122  0.1809
 3774TIP3    H132813   5.438   6.595  10.773  0.4749  0.0025 -0.2934
 3774TIP3    H232814   5.319   6.683  10.744  0.0848 -0.5831 -0.4920
 3775TIP3   OH232815   1.716   5.064   1.180  0.3551  0.2548 -0.3167
 3775TIP3    H132816   1.775   5.094   1.249  0.6210  1.8328 -1.1699
 3775TIP3    H232817   1.769   5.068   1.100 -1.0692  2.6390 -1.2681
 3776TIP3   OH232818   6.619   5.118  16.239 -0.5922  0.0809 -0.2402
 3776TIP3    H132819   6.643   5.029  16.213  2.5473  0.9287 -0.5247
 3776TIP3    H232820   6.621   5.169  16.158  2.8929  1.4042  0.5059
 3777TIP3   OH232821   4.462   5.568  11.265  0.5730 -0.0112  0.6777
 3777TIP3    H132822   4.469   5.502  11.196  1.1533  0.3551  0.3785
 3777TIP3    H232823   4.407   5.636  11.227  2.0727  0.8739  0.0077
 3778TIP3   OH232824   3.147   0.129   1.332 -0.2782 -0.0599 -0.1362
 3778TIP3    H132825   3.198   0.049   1.319 -0.3431 -0.1780  0.3197
 3778TIP3    H232826   3.130   0.161   1.243 -0.1697 -0.4986 -0.3186
 3779TIP3   OH232827   2.206   4.995  12.652 -0.2919  0.3706 -0.1205
 3779TIP3    H132828   2.291   4.952  12.658 -0.2738  0.4667  0.3135
 3779TIP3    H232829   2.172   4.996  12.741 -0.8971  0.0411 -0.3401
 3780TIP3   OH232830   4.886   1.119   0.432  0.4694  0.2470 -0.1895
 3780TIP3    H132831   4.913   1.079   0.349 -0.5156  0.9404 -0.8602
 3780TIP3    H232832   4.792   1.101   0.438  0.7079 -0.6566  1.2744
 3781TIP3   OH232833   1.171   6.096  16.039  0.1116  0.8148 -0.2561
 3781TIP3    H132834   1.126   6.041  16.104  0.3846  0.5809 -0.2584
 3781TIP3    H232835   1.195   6.175  16.087 -2.1252  1.8738 -0.7784
 3782TIP3   OH232836   6.320   2.712  13.795 -0.6411 -0.0582 -0.5485
 3782TIP3    H132837   6.326   2.622  13.762  1.1244 -0.1953  0.0234
 3782TIP3    H232838   6.274   2.704  13.878 -1.3706 -0.2928 -0.9714
 3783TIP3   OH232839   1.587   2.469   4.401 -0.5047 -0.4084  0.4759
 3783TIP3    H132840   1.554   2.554   4.374  0.6974 -0.1132 -0.1234
 3783TIP3    H232841   1.620   2.429   4.321 -0.5072 -1.1955  0.8521
 3784TIP3   OH232842   4.046   3.480   0.106  0.1449 -0.0419  0.0196
 3784TIP3    H132843   4.089   3.501   0.023  0.8879 -1.0736  0.1294
 3784TIP3    H232844   4.088   3.400   0.136 -0.7849 -0.2218  0.9209
 3785TIP3   OH232845   1.103   3.918  12.355 -0.5660 -0.1364  0.2629
 3785TIP3    H132846   1.195   3.928  12.381 -0.9697 -1.9043  2.7206
 3785TIP3    H232847   1.106   3.906  12.260  1.8491 -1.0656  0.3893
 3786TIP3   OH232848   0.170   3.901  10.614 -0.4271  0.4320  0.2128
 3786TIP3    H132849   0.227   3.882  10.689 -0.5334  2.0269  0.7317
 3786TIP3    H232850   0.194   3.989  10.587  0.0991 -0.3470 -2.1224
 3787TIP3   OH232851   1.072   6.755  15.184 -0.3776 -0.2295 -0.1664
 3787TIP3    H132852   0.982   6.750  15.152 -0.2948  1.1339 -0.6380
 3787TIP3    H232853   1.125   6.774  15.107  0.4809 -2.0455 -0.0890
 3788TIP3   OH232854   5.267   2.295   3.326  0.2233  0.3519  0.2588
 3788TIP3    H132855   5.287   2.202   3.314 -0.4797  0.1022  0.8879
 3788TIP3    H232856   5.327   2.323   3.395  1.1749  0.6523 -0.6628
 3789TIP3   OH232857   5.777   5.279   2.656 -0.4077  0.3285 -0.1662
 3789TIP3    H132858   5.770   5.275   2.752  2.8759 -0.4075  0.1629
 3789TIP3    H232859   5.791   5.371   2.637 -3.0518  0.7919 -0.2293
 3790TIP3   OH232860   2.883   3.641   3.863  0.3962  0.0300  0.1920
 3790TIP3    H132861   2.897   3.624   3.770 -0.7881 -1.4206  0.2444
 3790TIP3    H232862   2.831   3.721   3.865 -1.2338 -0.9542 -0.5346
 3791TIP3   OH232863   3.107   0.151   0.399 -0.2170  0.2434 -0.6777
 3791TIP3    H132864   3.029   0.179   0.447  0.4541  1.3559 -0.1830
 3791TIP3    H232865   3.118   0.217   0.331 -1.3758 -1.5349 -2.6815
 3792TIP3   OH232866   0.148   3.619  17.146  0.2404 -0.6800 -0.4001
 3792TIP3    H132867   0.163   3.703  17.102 -1.1131  0.2068  0.7091
 3792TIP3    H232868   0.151   3.554  17.076  2.4893  0.1225 -1.1281
 3793TIP3   OH232869   4.457   0.861   5.837  0.0564 -0.4053 -0.1249
 3793TIP3    H132870   4.375   0.905   5.860 -1.3189 -2.1691 -1.3996
 3793TIP3    H232871   4.498   0.920   5.774 -0.7805 -0.0031 -0.3093
 3794TIP3   OH232872   3.922   2.351   1.049 -0.6192  0.3065 -0.1587
 3794TIP3    H132873   3.881   2.269   1.024  0.1631  0.3462 -1.6878
 3794TIP3    H232874   4.016   2.335   1.041 -0.4337  1.1361  0.1990
 3795TIP3   OH232875   5.715   0.265  14.853 -0.7508  0.0563  0.7240
 3795TIP3    H132876   5.652   0.213  14.903 -1.9111 -0.0468 -0.7817
 3795TIP3    H232877   5.667   0.343  14.826  0.0610  0.4530  0.3677
 3796TIP3   OH232878   4.250   4.892  11.739  0.0551 -0.0527  0.0052
 3796TIP3    H132879   4.287   4.930  11.818  2.3788  1.4902 -1.7016
 3796TIP3    H232880   4.182   4.953  11.712 -0.6951 -0.5476  0.7407
 3797TIP3   OH232881   1.337   2.109  12.926 -0.9594  0.0720  0.4047
 3797TIP3    H132882   1.265   2.083  12.869 -0.7546 -0.4666  0.3887
 3797TIP3    H232883   1.414   2.066  12.890 -0.6982  0.3181  0.6589
 3798TIP3   OH232884   4.817   0.986  16.229  0.3456  0.6374 -0.1149
 3798TIP3    H132885   4.863   1.054  16.278  0.3796  1.7020 -1.5803
 3798TIP3    H232886   4.747   1.033  16.183 -1.0490 -0.6638  0.5749
 3799TIP3   OH232887   4.786   0.634  14.982 -0.0197  0.0687  0.1837
 3799TIP3    H132888   4.721   0.657  14.916  1.5493 -0.6253 -1.6873
 3799TIP3    H232889   4.785   0.707  15.043 -2.6848 -0.0268  0.3694
 3800TIP3   OH232890   2.615   6.504  17.101 -0.0054 -0.8491 -0.6027
 3800TIP3    H132891   2.628   6.542  17.188 -1.2692  1.0088 -1.1743
 3800TIP3    H232892   2.526   6.469  17.104 -0.1610 -0.5085 -1.2379
 3801TIP3   OH232893   1.705   2.618  17.186  0.6390 -0.4985 -0.1886
 3801TIP3    H132894   1.769   2.570  17.133 -1.4952 -1.1684 -2.3302
 3801TIP3    H232895   1.676   2.690  17.130  0.0092  0.2336  1.0212
 3802TIP3   OH232896   2.914   2.831  13.535  0.1621  0.0044  0.1894
 3802TIP3    H132897   2.965   2.903  13.571 -2.0614  1.0855  1.4027
 3802TIP3    H232898   2.862   2.799  13.609 -0.6452 -1.2860 -0.8829
 3803TIP3   OH232899   2.171   2.475   4.484 -0.6891 -0.5155 -0.2911
 3803TIP3    H132900   2.166   2.570   4.476  0.4227 -0.5248 -1.4704
 3803TIP3    H232901   2.091   2.443   4.443 -1.9787 -0.0796  1.7273
 3804TIP3   OH232902   4.670   4.134  11.975  0.3530  0.4898 -0.0539
 3804TIP3    H132903   4.650   4.047  12.010  0.5918  0.2412 -0.5351
 3804TIP3    H232904   4.634   4.194  12.040  0.6854  0.0304  0.5736
 3805TIP3   OH232905   0.909   4.780   6.306 -0.3773 -0.2531 -0.0760
 3805TIP3    H132906   0.843   4.802   6.240  0.3076 -1.8139 -1.3416
 3805TIP3    H232907   0.952   4.863   6.325 -2.3209  0.7047  0.3944
 3806TIP3   OH232908   0.757   1.287  11.604 -0.1975 -0.1495 -0.5055
 3806TIP3    H132909   0.664   1.265  11.594 -0.4344 -0.5904  1.8595
 3806TIP3    H232910   0.759   1.346  11.680  1.3244  1.0972 -1.4653
 3807TIP3   OH232911   2.503   2.756  13.386  0.6349  0.0464 -0.0179
 3807TIP3    H132912   2.527   2.683  13.442 -0.5253  0.1934  0.7090
 3807TIP3    H232913   2.483   2.717  13.302  1.5509 -0.2787 -0.0940
 3808TIP3   OH232914   2.997   5.941   5.150  0.3028 -0.3743 -0.0358
 3808TIP3    H132915   3.052   5.966   5.076 -0.2419  2.5318  0.4042
 3808TIP3    H232916   2.908   5.960   5.120  0.0604  0.6582  1.2459
 3809TIP3   OH232917   0.858   1.141   2.953 -0.0977 -0.0203  0.0303
 3809TIP3    H132918   0.904   1.187   2.883 -0.7320  0.3975 -0.1208
 3809TIP3    H232919   0.808   1.073   2.908  0.8076 -0.8610  0.2491
 3810TIP3   OH232920   3.638   3.333   4.359  0.5079 -0.1146 -0.7091
 3810TIP3    H132921   3.605   3.352   4.447  0.2802 -1.8193 -0.3923
 3810TIP3    H232922   3.640   3.418   4.316  1.7299  0.9432  1.2951
 3811TIP3   OH232923   2.892   3.848  12.127  0.2900  0.2318 -0.0866
 3811TIP3    H132924   2.897   3.813  12.217 -0.2495 -0.7222 -0.4082
 3811TIP3    H232925   2.881   3.770  12.072 -2.6082  0.9490 -0.7132
 3812TIP3   OH232926   4.489   0.338   1.327 -0.3839  0.1933 -0.6031
 3812TIP3    H132927   4.450   0.253   1.347  0.4273 -0.6165 -2.2601
 3812TIP3    H232928   4.445   0.365   1.246  1.6338 -0.2300 -1.9007
 3813TIP3   OH232929   1.220   0.550  11.487  0.2242 -0.0720 -0.4196
 3813TIP3    H132930   1.129   0.540  11.513  0.2307  0.4850 -0.1526
 3813TIP3    H232931   1.216   0.569  11.393 -0.0284  1.1658 -0.1773
 3814TIP3   OH232932   6.063   0.173   0.090 -0.0199  0.2126  0.2749
 3814TIP3    H132933   5.998   0.149   0.155  0.1164 -0.4780  0.1683
 3814TIP3    H232934   6.021   0.156   0.006  0.0210  0.5131  0.1915
 3815TIP3   OH232935   3.584   2.398  12.952  0.4399 -0.4896  0.0674
 3815TIP3    H132936   3.544   2.364  13.032  0.1447 -1.1761 -0.3552
 3815TIP3    H232937   3.614   2.486  12.975  1.3681 -1.0933  1.2461
 3816TIP3   OH232938   3.539   1.876  13.060  0.0582  0.4189 -0.6643
 3816TIP3    H132939   3.582   1.950  13.102 -0.4408 -0.2486  1.0965
 3816TIP3    H232940   3.454   1.911  13.031 -0.7171  0.2685  1.3049
 3817TIP3   OH232941   4.744   2.691  13.930 -0.0226  0.4280 -0.5692
 3817TIP3    H132942   4.800   2.730  13.863 -0.4876  0.9894 -0.6397
 3817TIP3    H232943   4.729   2.601  13.900  1.9928 -0.1940  0.1673
 3818TIP3   OH232944   6.682   0.604   5.233 -0.0969  0.0070 -0.5191
 3818TIP3    H132945   6.660   0.697   5.235  0.3499  0.1095 -0.2007
 3818TIP3    H232946   6.730   0.593   5.151  1.5884  0.4764  0.3546
 3819TIP3   OH232947   4.339   4.014   1.818 -0.0373  0.0613  0.7586
 3819TIP3    H132948   4.370   3.940   1.766 -0.7513 -0.9480  1.7167
 3819TIP3    H232949   4.417   4.068   1.833  0.3447 -0.1112 -0.5618
 3820TIP3   OH232950   6.054   3.522   2.742  0.4673  0.2099 -0.4574
 3820TIP3    H132951   6.122   3.582   2.712  1.1293  1.0284  2.3168
 3820TIP3    H232952   6.098   3.469   2.809 -1.1397 -0.6133 -0.0058
 3821TIP3   OH232953   5.667   5.222   2.117  0.1375  0.0484  0.1113
 3821TIP3    H132954   5.583   5.230   2.073  0.6366  0.5875 -0.7751
 3821TIP3    H232955   5.731   5.254   2.053  1.1778 -1.6565  0.2368
 3822TIP3   OH232956   3.691   0.051  13.306 -0.4993  0.7556  0.0587
 3822TIP3    H132957   3.703   0.140  13.338  0.9078  0.6071  0.0163
 3822TIP3    H232958   3.739   0.049  13.223  1.4665 -0.6317  1.1571
 3823TIP3   OH232959   2.609   4.274   0.805 -0.0121 -0.2031 -0.3371
 3823TIP3    H132960   2.552   4.245   0.876 -0.3294 -2.7621 -1.5654
 3823TIP3    H232961   2.673   4.204   0.795  0.8987  0.7630 -1.6818
 3824TIP3   OH232962   4.030   2.945   1.386 -0.6718  0.5949 -0.7670
 3824TIP3    H132963   3.944   2.967   1.423 -0.1558  2.6826 -0.6674
 3824TIP3    H232964   4.090   3.005   1.430  1.0314 -1.4613 -0.1479
 3825TIP3   OH232965   1.648   5.036   2.351  0.3140  0.3613  0.2437
 3825TIP3    H132966   1.620   5.060   2.440  1.4637 -0.6379  0.9029
 3825TIP3    H232967   1.643   5.118   2.302 -0.6972  0.8623  1.1274
 3826TIP3   OH232968   3.294   5.480  15.756  0.0663 -0.4227  0.4071
 3826TIP3    H132969   3.369   5.440  15.800  1.2288 -0.0751 -1.1655
 3826TIP3    H232970   3.296   5.571  15.785 -0.6295 -0.7230  1.4605
 3827TIP3   OH232971   1.298   4.340   0.257 -0.3571 -0.2135  0.0172
 3827TIP3    H132972   1.259   4.368   0.174 -2.0928 -2.2659  0.0530
 3827TIP3    H232973   1.391   4.332   0.239 -0.2668  2.0234 -0.9088
 3828TIP3   OH232974   3.937   6.470   2.363 -0.1477 -0.4155 -0.2640
 3828TIP3    H132975   3.867   6.509   2.414 -0.1148 -1.2625  0.4528
 3828TIP3    H232976   3.895   6.441   2.282 -1.1562 -2.9081  1.0488
 3829TIP3   OH232977   1.303   5.001   4.973 -0.0335 -0.4929 -0.3645
 3829TIP3    H132978   1.393   5.010   5.005 -0.7804  1.1585  1.4379
 3829TIP3    H232979   1.284   4.907   4.981  1.3006 -0.7591 -0.1513
 3830TIP3   OH232980   2.740   2.430  12.876 -0.6397  0.4638 -0.0890
 3830TIP3    H132981   2.662   2.396  12.832 -0.3760 -1.3163  0.7164
 3830TIP3    H232982   2.732   2.525  12.871 -2.2237  0.3007 -1.1169
 3831TIP3   OH232983   0.631   4.880  11.395 -0.1374 -0.2606 -0.1060
 3831TIP3    H132984   0.654   4.902  11.486 -0.5357 -0.2937  0.0036
 3831TIP3    H232985   0.708   4.906  11.344  0.1623 -0.4168  0.2626
 3832TIP3   OH232986   3.105   0.371  11.485 -0.2112 -0.4917  0.4831
 3832TIP3    H132987   3.021   0.369  11.531 -0.5720 -0.7156 -0.1746
 3832TIP3    H232988   3.104   0.293  11.430 -0.5873  0.7263 -1.2964
 3833TIP3   OH232989   6.027   1.288  15.552 -0.3628  0.0640  0.0760
 3833TIP3    H132990   6.104   1.241  15.586  0.4736  2.1904  1.3097
 3833TIP3    H232991   5.967   1.219  15.525  1.4980 -1.6891  0.1648
 3834TIP3   OH232992   1.769   1.415   3.291 -0.3782 -0.6456  0.2125
 3834TIP3    H132993   1.863   1.414   3.276 -0.1956  1.6448  0.7978
 3834TIP3    H232994   1.760   1.405   3.386 -0.9026 -3.3813 -0.0657
 3835TIP3   OH232995   0.497   2.706   0.343 -0.2911  0.0820  0.2224
 3835TIP3    H132996   0.562   2.637   0.357 -2.1367 -1.5484  1.3207
 3835TIP3    H232997   0.436   2.669   0.279 -0.1661  1.5923 -0.8184
 3836TIP3   OH232998   5.412   0.696  15.995 -0.1984  0.0205 -0.3065
 3836TIP3    H132999   5.348   0.680  16.065  0.8421 -1.1680  0.4240
 3836TIP3    H233000   5.430   0.609  15.958  0.2744  0.4607 -1.1425
 3837TIP3   OH233001   3.193   5.940   4.328  0.0841 -0.1066  0.3544
 3837TIP3    H133002   3.179   5.950   4.233  1.0707 -1.3204  0.0528
 3837TIP3    H233003   3.274   5.889   4.335 -0.3287 -0.6146  1.8452
 3838TIP3   OH233004   2.880   5.232   4.613 -0.0652 -0.6123  0.1841
 3838TIP3    H133005   2.946   5.210   4.678  1.0328  1.7622 -0.0374
 3838TIP3    H233006   2.825   5.299   4.655  0.2821  0.5035 -1.0642
 3839TIP3   OH233007   4.671   2.431  11.900 -0.0724  0.4012 -0.1406
 3839TIP3    H133008   4.588   2.463  11.934  0.6607  1.0492  1.1274
 3839TIP3    H233009   4.736   2.456  11.966  1.0085 -0.8900 -0.6508
 3840TIP3   OH233010   1.850   4.643  13.135  0.2157  0.7286 -0.6555
 3840TIP3    H133011   1.802   4.696  13.198  0.0325  1.9985 -1.8239
 3840TIP3    H233012   1.912   4.703  13.095  1.9632 -0.5961 -0.0728
 3841TIP3   OH233013   0.465   2.815  15.046  0.2112  0.1792  0.0191
 3841TIP3    H133014   0.422   2.736  15.077 -1.4899  0.9936 -0.1645
 3841TIP3    H233015   0.555   2.807  15.078  0.5748 -2.5642 -1.3886
 3842TIP3   OH233016   3.360   3.595   2.818  0.3438  0.6354 -0.1118
 3842TIP3    H133017   3.411   3.629   2.744 -1.5459  0.6441 -1.4659
 3842TIP3    H233018   3.316   3.672   2.854 -0.4049  0.3241 -0.3423
 3843TIP3   OH233019   4.644   1.295  16.283 -0.8255 -0.1664 -0.1115
 3843TIP3    H133020   4.590   1.220  16.260 -0.5960 -0.5444  0.5658
 3843TIP3    H233021   4.734   1.263  16.277 -0.7575 -0.3613  1.5174
 3844TIP3   OH233022   3.066   4.869  15.123  0.2491  0.2267  0.0777
 3844TIP3    H133023   3.128   4.842  15.190  0.8960  3.1082  0.7564
 3844TIP3    H233024   2.982   4.875  15.169 -0.2378 -1.9549 -0.4361
 3845TIP3   OH233025   4.139   1.730   1.782 -0.4430  0.3757 -0.6183
 3845TIP3    H133026   4.138   1.645   1.825  0.4228  0.3599 -0.6121
 3845TIP3    H233027   4.177   1.712   1.696 -1.2719  0.5709 -1.0366
 3846TIP3   OH233028   5.279   2.511  13.482 -0.7649  0.1242 -0.2592
 3846TIP3    H133029   5.350   2.533  13.543 -1.9471  0.9398  0.8753
 3846TIP3    H233030   5.313   2.535  13.396  0.0130  1.3098  0.3564
 3847TIP3   OH233031   1.911   5.914  15.726  0.4416  0.5551  0.3323
 3847TIP3    H133032   1.844   5.961  15.677 -1.7473  0.4753  3.0345
 3847TIP3    H233033   1.873   5.828  15.744  2.0429 -0.1926  0.3538
 3848TIP3   OH233034   1.742   3.453   4.887  0.2866 -0.0714  0.0012
 3848TIP3    H133035   1.789   3.533   4.863 -1.8972  0.7858 -1.8110
 3848TIP3    H233036   1.669   3.448   4.825 -0.1174 -3.0927  0.5293
 3849TIP3   OH233037   6.395   6.095  14.454  0.1546 -0.7588  0.1135
 3849TIP3    H133038   6.313   6.077  14.407 -0.4709 -1.3634  1.3736
 3849TIP3    H233039   6.366   6.133  14.538  1.1701 -0.9406  0.5576
 3850TIP3   OH233040   1.546   0.721   4.693 -0.3750 -0.0303  0.1342
 3850TIP3    H133041   1.600   0.740   4.770 -0.6569  0.2342  0.2681
 3850TIP3    H233042   1.466   0.683   4.728 -0.9145  1.0015  0.0437
 3851TIP3   OH233043   4.853   6.521  12.752 -0.4979  0.4953 -0.0971
 3851TIP3    H133044   4.815   6.576  12.684  1.9539  0.2084 -1.8116
 3851TIP3    H233045   4.916   6.578  12.796  0.5940 -0.3216 -0.5516
 3852TIP3   OH233046   6.299   0.418   5.456  0.6297  0.6531  0.2146
 3852TIP3    H133047   6.393   0.411   5.471  0.4574 -1.3272  0.6153
 3852TIP3    H233048   6.287   0.389   5.365  0.2804 -0.5242  0.6204
 3853TIP3   OH233049   6.077   1.777  13.133  0.0448  0.3466  0.2923
 3853TIP3    H133050   5.990   1.773  13.172 -0.1586  2.1330  0.1193
 3853TIP3    H233051   6.066   1.739  13.046  0.3293 -2.9175  1.5586
 3854TIP3   OH233052   5.882   1.559   2.920  0.0957  0.0713  0.3483
 3854TIP3    H133053   5.912   1.642   2.883 -0.3382 -0.3504 -0.9844
 3854TIP3    H233054   5.940   1.545   2.995  1.3947  0.6687 -0.4934
 3855TIP3   OH233055   4.234   4.058  13.609 -0.0642  0.2970  0.7729
 3855TIP3    H133056   4.302   3.990  13.605 -0.1683  0.2369 -1.4232
 3855TIP3    H233057   4.152   4.011  13.591 -0.2829  0.8152  0.3870
 3856TIP3   OH233058   3.214   1.931   1.962  0.9104  0.1890  0.3646
 3856TIP3    H133059   3.162   1.892   1.892  0.6205 -0.7589  1.0999
 3856TIP3    H233060   3.236   2.018   1.929 -0.2091  0.1942 -0.4130
 3857TIP3   OH233061   0.026   4.756  11.754  0.7627  0.0282 -0.6630
 3857TIP3    H133062  -0.035   4.686  11.779  1.0757  0.4354  1.4519
 3857TIP3    H233063  -0.006   4.786  11.669  0.5843 -2.6036 -1.6342
 3858TIP3   OH233064   2.730   4.510  16.743  0.6008 -0.2520  0.2067
 3858TIP3    H133065   2.824   4.504  16.764  0.3397 -1.9111  1.0819
 3858TIP3    H233066   2.697   4.421  16.758 -0.7660 -0.1460 -1.8612
 3859TIP3   OH233067   4.612   5.873   6.011  0.1559  0.3951 -0.0903
 3859TIP3    H133068   4.684   5.890   6.071  0.5717 -2.4199  0.3300
 3859TIP3    H233069   4.534   5.899   6.059  0.6334  0.0006  0.9318
 3860TIP3   OH233070   3.798   3.845  10.712  0.3375  0.0742 -0.1935
 3860TIP3    H133071   3.781   3.762  10.667 -0.5206  0.6616 -1.0192
 3860TIP3    H233072   3.733   3.905  10.675  2.0047  1.5591 -0.8709
 3861TIP3   OH233073   2.224   6.402  12.003 -0.0550 -0.0673 -0.4488
 3861TIP3    H133074   2.262   6.374  12.087  1.6499 -0.5911 -1.3415
 3861TIP3    H233075   2.157   6.337  11.984 -1.5850  0.9182  1.2150
 3862TIP3   OH233076   0.068   2.186  12.121 -0.0114 -0.2589  0.3139
 3862TIP3    H133077   0.063   2.271  12.078 -0.4985 -0.3817  0.1278
 3862TIP3    H233078   0.081   2.124  12.049  1.9316 -0.2114  0.5518
 3863TIP3   OH233079   5.754   4.887  15.838 -0.4121 -0.4114 -0.4919
 3863TIP3    H133080   5.787   4.928  15.758  0.9005  0.2598  0.3626
 3863TIP3    H233081   5.815   4.814  15.854 -1.7539 -1.7311 -1.0865
 3864TIP3   OH233082   4.037   6.140  10.314 -0.3112 -0.0826  0.1604
 3864TIP3    H133083   3.989   6.156  10.395  0.4457 -2.2836  1.1267
 3864TIP3    H233084   3.973   6.098  10.256 -0.1982 -0.9190  0.6176
 3865TIP3   OH233085   6.348   5.052   0.306  0.4792  0.2465  0.2338
 3865TIP3    H133086   6.281   4.984   0.299  0.6062  0.1987 -0.5571
 3865TIP3    H233087   6.319   5.121   0.247  1.2198  0.1452 -0.2549
 3866TIP3   OH233088   3.767   2.202   2.087 -0.9403  0.1599 -0.3215
 3866TIP3    H133089   3.717   2.131   2.046  0.0315  0.9855 -3.1439
 3866TIP3    H233090   3.858   2.184   2.063 -0.5505  1.7477 -0.1283
 3867TIP3   OH233091   0.211   4.822  14.318 -0.0176  0.0942  0.0783
 3867TIP3    H133092   0.177   4.898  14.272 -0.6849 -0.0119  0.3741
 3867TIP3    H233093   0.133   4.771  14.340  0.4317 -0.7673 -0.2737
 3868TIP3   OH233094   4.225   3.280  15.523 -0.1116  0.2981 -0.1857
 3868TIP3    H133095   4.198   3.257  15.612  1.5446  0.8030  0.4797
 3868TIP3    H233096   4.220   3.376  15.521  1.4602  0.4047 -0.0631
 3869TIP3   OH233097   1.327   6.157   6.210  0.4913 -0.8698 -0.6418
 3869TIP3    H133098   1.311   6.239   6.255  1.0934 -0.4389 -1.1859
 3869TIP3    H233099   1.241   6.128   6.180 -0.2645 -2.2394  2.4999
 3870TIP3   OH233100   2.151   6.189   3.292 -0.1416 -0.3305 -0.0565
 3870TIP3    H133101   2.176   6.278   3.317 -2.2057  0.0399  0.9391
 3870TIP3    H233102   2.211   6.166   3.221  2.6633  0.5210  1.8869
 3871TIP3   OH233103   6.051   6.753  16.620  0.2959 -0.0546 -0.3655
 3871TIP3    H133104   6.059   6.832  16.566 -1.9283 -0.2444 -1.1111
 3871TIP3    H233105   6.127   6.699  16.597 -0.4442 -0.0299 -3.2291
 3872TIP3   OH233106   2.265   1.860  12.062  0.7321  0.3363 -0.1095
 3872TIP3    H133107   2.319   1.781  12.062  0.0523 -0.1919 -1.6234
 3872TIP3    H233108   2.310   1.920  12.003  0.8099  0.7542  0.3718
 3873TIP3   OH233109   1.944   0.481   2.598  0.1837  0.1547 -0.0948
 3873TIP3    H133110   1.993   0.409   2.640 -0.7556 -1.3033 -1.3815
 3873TIP3    H233111   1.855   0.471   2.631  0.3493  1.7763  0.9559
 3874TIP3   OH233112   2.783   4.475  10.646  0.4969 -0.2431  0.1662
 3874TIP3    H133113   2.813   4.523  10.569 -0.1388 -0.5487 -0.2768
 3874TIP3    H233114   2.743   4.541  10.702 -1.1117 -0.3535 -0.8097
 3875TIP3   OH233115   4.207   0.418   1.439  0.2289 -0.2828 -0.0506
 3875TIP3    H133116   4.170   0.493   1.392  1.1305  1.9653  2.5832
 3875TIP3    H233117   4.300   0.419   1.416  0.1886 -0.8119 -0.2494
 3876TIP3   OH233118   2.657   1.807   5.889 -0.4818 -0.3158  0.3476
 3876TIP3    H133119   2.722   1.810   5.959 -0.4171  1.1536  0.2532
 3876TIP3    H233120   2.595   1.739   5.917  0.3869 -0.8387  1.0552
 3877TIP3   OH233121   2.218   6.010   4.001 -0.2525  0.0352  0.0921
 3877TIP3    H133122   2.185   5.987   3.914  0.1265 -0.7061  0.1327
 3877TIP3    H233123   2.206   5.931   4.053  1.1555 -0.1083  0.2261
 3878TIP3   OH233124   0.006   5.108  15.113  0.1569 -0.6553  0.1873
 3878TIP3    H133125   0.024   5.085  15.204 -0.5305  0.8528  0.7432
 3878TIP3    H233126   0.039   5.198  15.104  0.3959 -0.8575 -1.1098
 3879TIP3   OH233127   3.824   2.409   5.970 -0.4449 -0.2351 -0.6387
 3879TIP3    H133128   3.733   2.378   5.966 -0.3921 -0.3031 -1.5089
 3879TIP3    H233129   3.823   2.478   6.036 -0.8120 -1.2574  0.4637
 3880TIP3   OH233130   2.682   4.416  13.232  0.3934 -0.5654  0.2828
 3880TIP3    H133131   2.739   4.340  13.225  1.4624  0.3046 -0.8624
 3880TIP3    H233132   2.618   4.391  13.298  1.5541 -1.9184  0.9621
 3881TIP3   OH233133   0.934   0.286  12.343  0.0766  0.1586  0.5854
 3881TIP3    H133134   0.958   0.195  12.322  0.7260  0.4072  0.2248
 3881TIP3    H233135   1.009   0.338  12.315 -0.2725  0.8101  0.8299
 3882TIP3   OH233136   3.555   5.119  16.646  0.2649  0.1554  0.1983
 3882TIP3    H133137   3.496   5.045  16.632  0.2846 -0.2201  1.8557
 3882TIP3    H233138   3.577   5.114  16.739  0.6184  1.9933  0.2453
 3883TIP3   OH233139   5.235   1.194  11.935  0.1098 -0.6306 -0.5282
 3883TIP3    H133140   5.161   1.176  11.992  0.5974 -1.0271 -0.0130
 3883TIP3    H233141   5.312   1.191  11.992  0.4501  0.6793 -0.8749
 3884TIP3   OH233142   6.318   3.510  14.031  0.1352  0.2657  0.1931
 3884TIP3    H133143   6.351   3.529  13.943 -0.1633  0.2568  0.0765
 3884TIP3    H233144   6.223   3.507  14.020  0.1027  0.1716  0.4989
 3885TIP3   OH233145   1.802   3.413   6.107 -0.0040  0.6923  0.6156
 3885TIP3    H133146   1.747   3.487   6.131 -0.7032  0.3565  0.0915
 3885TIP3    H233147   1.832   3.434   6.019 -1.9948 -0.6178 -0.4505
 3886TIP3   OH233148   0.648   0.608   4.658  0.9152  0.5347 -0.0914
 3886TIP3    H133149   0.678   0.692   4.624  1.1904  1.1755  1.6068
 3886TIP3    H233150   0.598   0.569   4.586  1.5699  1.7238 -1.2281
 3887TIP3   OH233151   1.565   3.893   2.582 -0.9643 -0.4486  0.0993
 3887TIP3    H133152   1.648   3.852   2.607 -0.3408  0.7106  0.0129
 3887TIP3    H233153   1.544   3.950   2.655 -1.6544 -0.6736  0.0826
 3888TIP3   OH233154   2.614   5.628  12.323 -0.0571 -0.7091 -0.1654
 3888TIP3    H133155   2.578   5.613  12.411 -2.0556  0.0102 -0.8014
 3888TIP3    H233156   2.639   5.541  12.293  0.8744 -0.9389  1.1887
 3889TIP3   OH233157   6.463   0.320  13.088  0.0233  0.2564 -0.5118
 3889TIP3    H133158   6.442   0.388  13.152  0.7704  0.3245 -0.3306
 3889TIP3    H233159   6.432   0.355  13.005  0.9189  1.0747 -0.5150
 3890TIP3   OH233160   6.430   0.520  12.055 -0.4419 -0.3826  0.6441
 3890TIP3    H133161   6.496   0.452  12.061  1.3567  1.1217 -0.7575
 3890TIP3    H233162   6.347   0.475  12.070  0.6801 -2.8154 -0.0231
 3891TIP3   OH233163   0.294   0.475   5.681  0.5396  0.0286 -0.8304
 3891TIP3    H133164   0.346   0.417   5.626  0.8475 -2.9117  2.2994
 3891TIP3    H233165   0.239   0.417   5.734 -1.9720  2.7904 -0.1086
 3892TIP3   OH233166   5.560   4.861   4.849  0.0853 -0.0060  0.1705
 3892TIP3    H133167   5.636   4.802   4.856  1.2005  1.2994 -0.5256
 3892TIP3    H233168   5.520   4.838   4.765  0.1085 -0.2428  0.2236
 3893TIP3   OH233169   2.408   0.065  13.378  0.4042 -0.2256 -0.4994
 3893TIP3    H133170   2.405   0.124  13.453  1.2520 -0.4222 -0.2982
 3893TIP3    H233171   2.341  -0.001  13.397 -0.4614  0.5783 -0.6643
 3894TIP3   OH233172   4.334   6.293   1.966 -0.0394  0.3726  0.0413
 3894TIP3    H133173   4.386   6.367   1.935 -1.1200  1.0244 -0.2708
 3894TIP3    H233174   4.280   6.329   2.037 -0.7970 -0.0302 -0.3151
 3895TIP3   OH233175   4.306   3.819   3.213 -0.6836  0.2672  0.1789
 3895TIP3    H133176   4.231   3.861   3.256 -0.4477 -0.1511  1.0288
 3895TIP3    H233177   4.273   3.793   3.128 -1.3514  0.5794  0.3347
 3896TIP3   OH233178   4.946   2.615  13.740  0.3384 -0.7831 -0.3798
 3896TIP3    H133179   4.974   2.524  13.742  2.4411 -0.1764 -0.3080
 3896TIP3    H233180   4.988   2.655  13.816 -0.6201  0.2403 -0.3571
 3897TIP3   OH233181   5.236   5.318   4.265  0.0188  0.2366 -0.3394
 3897TIP3    H133182   5.314   5.269   4.289  1.4996  2.3168 -0.5998
 3897TIP3    H233183   5.163   5.257   4.278  1.7351 -2.0674 -0.9128
 3898TIP3   OH233184   3.019   1.963   3.716 -0.3709 -0.0343 -0.2665
 3898TIP3    H133185   3.082   2.035   3.713 -0.5968  0.1418 -2.7594
 3898TIP3    H233186   3.064   1.893   3.763  1.2377  0.4932 -0.9536
 3899TIP3   OH233187   0.726   5.225  13.474  0.6062 -0.0649 -0.1704
 3899TIP3    H133188   0.703   5.308  13.433  2.6595  1.3201  1.2564
 3899TIP3    H233189   0.659   5.212  13.541  0.8808  1.0790  0.3551
 3900TIP3   OH233190   5.781   3.143   5.387  0.5051  0.1938 -0.6297
 3900TIP3    H133191   5.764   3.068   5.331  0.0586 -0.9575  0.9830
 3900TIP3    H233192   5.702   3.196   5.382 -0.1125 -0.6540  0.0280
 3901TIP3   OH233193   3.313   2.772  16.267  0.2484 -0.0094 -0.0931
 3901TIP3    H133194   3.378   2.821  16.217 -1.0502 -0.3033 -2.1812
 3901TIP3    H233195   3.362   2.698  16.303  1.8587  1.7871  1.6861
 3902TIP3   OH233196   6.550   4.221  16.374 -0.3338 -0.2986  0.1888
 3902TIP3    H133197   6.532   4.237  16.467 -0.6845 -1.0030  0.2461
 3902TIP3    H233198   6.577   4.307  16.340 -3.0893  0.7340  0.2770
 3903TIP3   OH233199   2.892   4.598   3.635  0.3109  0.3105  0.2705
 3903TIP3    H133200   2.925   4.678   3.593 -0.4533  0.7255  0.4419
 3903TIP3    H233201   2.797   4.610   3.638  0.2038 -0.5258  0.4720
 3904TIP3   OH233202   2.104   2.979  14.423  0.5948  1.0994 -0.1430
 3904TIP3    H133203   2.063   3.059  14.456  1.9174  1.3125  1.0595
 3904TIP3    H233204   2.157   2.947  14.495  1.5223  0.1246 -1.2134
 3905TIP3   OH233205   2.619   5.987   1.902  0.0137  0.0028  0.1954
 3905TIP3    H133206   2.613   5.896   1.874  1.3326  0.4944 -1.8642
 3905TIP3    H233207   2.707   5.995   1.940  0.0976  0.5352 -0.1004
 3906TIP3   OH233208   6.618   4.733   1.737  0.0658 -0.0749 -0.0995
 3906TIP3    H133209   6.573   4.650   1.723  1.2964 -1.0230  1.2868
 3906TIP3    H233210   6.557   4.783   1.792 -0.3500 -0.3446 -0.3040
 3907TIP3   OH233211   5.679   5.170  10.237  0.5684  0.5281 -0.6861
 3907TIP3    H133212   5.636   5.234  10.293  1.2725  0.8509 -0.5023
 3907TIP3    H233213   5.639   5.183  10.151  0.0631  0.5875 -0.4464
 3908TIP3   OH233214   4.226   0.812   3.664  0.1495  0.0850 -0.4190
 3908TIP3    H133215   4.298   0.828   3.604 -0.0077 -1.5100 -1.1085
 3908TIP3    H233216   4.265   0.761   3.736 -0.4122 -1.6814 -1.2972
 3909TIP3   OH233217   0.478   0.637  13.959 -0.7650  0.1865  1.4833
 3909TIP3    H133218   0.470   0.554  13.912 -2.4014 -0.1655  2.2974
 3909TIP3    H233219   0.537   0.617  14.032 -0.5776 -0.0818  1.2581
 3910TIP3   OH233220   2.039   3.842  14.042 -0.4042 -0.2298 -0.0447
 3910TIP3    H133221   2.060   3.932  14.018  1.2403 -0.5845 -0.0084
 3910TIP3    H233222   2.027   3.844  14.137  0.6676 -0.2360  0.0960
 3911TIP3   OH233223   0.701   4.321   2.346 -0.0484 -0.0461  0.4693
 3911TIP3    H133224   0.734   4.321   2.256 -0.4573  0.2842  0.3196
 3911TIP3    H233225   0.776   4.293   2.398 -0.1878 -1.5821 -0.1090
 3912TIP3   OH233226   0.646   3.423   1.892 -0.1172  0.0491  0.4744
 3912TIP3    H133227   0.632   3.494   1.830  0.3913  0.2408  0.5789
 3912TIP3    H233228   0.705   3.459   1.958  0.4056 -0.5720  0.3546
 3913TIP3   OH233229   0.002   6.633  16.415 -0.2816  0.2369 -0.0281
 3913TIP3    H133230   0.010   6.544  16.381 -1.6334  0.0810  0.0190
 3913TIP3    H233231   0.054   6.687  16.355  1.2087 -0.6666  0.4011
 3914TIP3   OH233232   3.775   3.979  14.395 -0.6923 -0.0997 -0.2626
 3914TIP3    H133233   3.718   3.956  14.322 -0.7973 -1.3164  0.1696
 3914TIP3    H233234   3.788   3.896  14.442  1.7527  0.0498 -0.5612
 3915TIP3   OH233235   1.315   5.196   4.743 -0.5786  0.2870 -0.4563
 3915TIP3    H133236   1.250   5.130   4.765 -0.2773 -0.1700 -0.9138
 3915TIP3    H233237   1.396   5.147   4.729 -0.2374  0.8024 -0.3223
 3916TIP3   OH233238   3.581   1.434  14.808 -0.2716  0.4786  1.0887
 3916TIP3    H133239   3.536   1.372  14.750 -1.0756  0.4519  1.7367
 3916TIP3    H233240   3.576   1.394  14.895 -1.8219  1.9541  1.7347
 3917TIP3   OH233241   2.629   1.678  16.865  0.0047 -0.1092 -0.6595
 3917TIP3    H133242   2.582   1.596  16.853 -3.0407  1.4247 -0.2451
 3917TIP3    H233243   2.663   1.674  16.954  0.0068 -0.9830 -0.6967
 3918TIP3   OH233244   0.199   0.870   5.356  0.1704 -0.2482 -0.4331
 3918TIP3    H133245   0.124   0.840   5.406  1.5835  0.9781  2.6681
 3918TIP3    H233246   0.164   0.939   5.299 -1.0313  0.6426  1.2941
 3919TIP3   OH233247   1.088   6.697  15.442 -0.2374 -0.2095  0.4400
 3919TIP3    H133248   1.125   6.743  15.367 -0.3285  1.9950  1.6780
 3919TIP3    H233249   1.019   6.754  15.475  0.9097 -0.2463  3.2163
 3920TIP3   OH233250   3.968   6.003   0.384 -0.0053 -0.0634 -0.1218
 3920TIP3    H133251   4.060   5.999   0.411  0.0232  0.1426 -0.1829
 3920TIP3    H233252   3.942   5.912   0.373  0.0358 -0.1456  0.4298
 3921TIP3   OH233253   1.893   0.417   1.581  0.2212 -0.2553  0.1027
 3921TIP3    H133254   1.927   0.330   1.601 -0.7631 -0.4870  0.8625
 3921TIP3    H233255   1.897   0.423   1.486 -0.0300 -1.2812  0.0143
 3922TIP3   OH233256   5.132   0.348   1.452 -0.3184 -0.1814 -0.1408
 3922TIP3    H133257   5.062   0.355   1.387 -0.0940 -0.9290 -0.4758
 3922TIP3    H233258   5.095   0.386   1.531 -0.5626  0.8321 -0.7296
 3923TIP3   OH233259   5.799   1.864   5.637  0.3494 -0.1410  0.4629
 3923TIP3    H133260   5.879   1.916   5.651 -0.4926  1.8143 -1.4610
 3923TIP3    H233261   5.829   1.788   5.588  0.8312  1.7061 -2.3096
 3924TIP3   OH233262   1.147   6.007   3.450 -0.1702  0.6691  0.0997
 3924TIP3    H133263   1.160   5.935   3.389 -2.2120  0.7876 -0.5621
 3924TIP3    H233264   1.180   5.975   3.534 -1.2772 -1.1621 -0.1219
 3925TIP3   OH233265   5.738   2.789  12.263  0.0533 -0.3517 -0.1011
 3925TIP3    H133266   5.782   2.870  12.238  1.7802 -0.0440  3.2470
 3925TIP3    H233267   5.807   2.737  12.304 -1.6895 -2.1360  0.7178
 3926TIP3   OH233268   4.718   3.193  12.685 -0.1165  0.9586 -0.0977
 3926TIP3    H133269   4.706   3.217  12.594  0.5193  1.0725 -0.1513
 3926TIP3    H233270   4.813   3.182  12.696 -0.2194  0.4965  0.4312
 3927TIP3   OH233271   1.921   1.988  14.733 -0.1876 -0.0013  0.2294
 3927TIP3    H133272   1.929   2.055  14.801 -1.1090 -1.2231  1.6306
 3927TIP3    H233273   1.843   2.013  14.684  0.8953  1.2956 -0.9247
 3928TIP3   OH233274   2.856   4.484   5.581  0.5682  0.3849  0.1101
 3928TIP3    H133275   2.814   4.534   5.651  1.1760  1.1416 -0.0410
 3928TIP3    H233276   2.948   4.480   5.608  0.4137 -1.3252  0.4954
 3929TIP3   OH233277   5.072   4.190   5.176 -0.1723  0.0150  0.7799
 3929TIP3    H133278   5.082   4.133   5.099  0.3806 -1.8751  2.1608
 3929TIP3    H233279   5.029   4.268   5.143  0.6658 -0.4436 -1.5740
 3930TIP3   OH233280   5.898   2.738   4.961 -0.4668 -0.1897  0.2963
 3930TIP3    H133281   5.872   2.654   4.998 -0.2251  0.7704  2.8432
 3930TIP3    H233282   5.850   2.744   4.878 -1.3868 -2.2856  0.6235
 3931TIP3   OH233283   2.296   6.498   1.266  0.2176 -0.2371 -0.1894
 3931TIP3    H133284   2.211   6.528   1.298 -0.8507 -2.5670 -0.6996
 3931TIP3    H233285   2.359   6.531   1.331 -1.3262 -0.4380  1.4770
 3932TIP3   OH233286   2.079   2.295  15.100 -0.0830  0.5643 -0.6119
 3932TIP3    H133287   2.153   2.335  15.146 -1.0508  0.1975  1.3613
 3932TIP3    H233288   2.053   2.222  15.156 -3.3572  2.0085 -0.0134
 3933TIP3   OH233289   5.497   3.435   4.750 -0.2079  0.1038 -0.1505
 3933TIP3    H133290   5.475   3.408   4.661  1.7341  0.0975 -0.6756
 3933TIP3    H233291   5.528   3.356   4.793  0.0099  0.3484  0.1547
 3934TIP3   OH233292   5.331   3.224   2.127 -0.0049 -0.3045  0.1484
 3934TIP3    H133293   5.237   3.238   2.126 -0.5122 -3.0598  1.4453
 3934TIP3    H233294   5.342   3.130   2.141  2.9612 -0.3078 -1.4468
 3935TIP3   OH233295   5.507   1.128  16.266 -0.5591  0.1128  0.3571
 3935TIP3    H133296   5.416   1.115  16.239 -0.6224  0.0138  0.6179
 3935TIP3    H233297   5.521   1.222  16.261 -1.2797  0.3573  2.2499
 3936TIP3   OH233298   5.808   3.448   2.668 -0.5796  0.6216  0.2314
 3936TIP3    H133299   5.901   3.467   2.679 -1.1842  3.5715  1.0786
 3936TIP3    H233300   5.768   3.474   2.750 -2.3096  0.5079 -0.5355
 3937TIP3   OH233301   2.660   2.046  15.748 -0.0366 -0.3410 -0.3329
 3937TIP3    H133302   2.689   2.122  15.698  1.5446 -0.2012  0.7087
 3937TIP3    H233303   2.640   2.081  15.835 -0.1654 -0.9697 -0.1034
 3938TIP3   OH233304   3.067   1.712   3.838 -0.2473 -0.1362  0.4390
 3938TIP3    H133305   2.985   1.691   3.882  0.3511  0.4989  1.9491
 3938TIP3    H233306   3.132   1.712   3.908  0.4507  2.7300 -0.0968
 3939TIP3   OH233307   1.736   1.097  15.405 -0.6469 -0.0243  0.1844
 3939TIP3    H133308   1.780   1.045  15.473  0.8283  2.6385  1.4252
 3939TIP3    H233309   1.796   1.169  15.388 -1.9536  0.5377 -2.4890
 3940TIP3   OH233310   6.371   4.532   2.427 -0.3783 -0.1561 -0.9129
 3940TIP3    H133311   6.362   4.591   2.352 -0.8062  0.1510 -0.6226
 3940TIP3    H233312   6.460   4.498   2.420  0.2663  1.3618 -0.4700
 3941TIP3   OH233313   5.864   6.662   3.472  0.4208 -0.3333  0.0043
 3941TIP3    H133314   5.926   6.705   3.532  0.2167 -0.3893  0.2562
 3941TIP3    H233315   5.920   6.607   3.416  0.8696  1.4736 -1.4048
 3942TIP3   OH233316   2.631   5.332   2.713  0.3208 -0.2868  0.1182
 3942TIP3    H133317   2.659   5.256   2.763  2.6978 -0.6752 -1.6571
 3942TIP3    H233318   2.710   5.363   2.669 -1.3178  0.9649 -2.1336
 3943TIP3   OH233319   6.332   5.926   4.501 -0.1522 -0.0808 -0.1123
 3943TIP3    H133320   6.314   5.961   4.414 -0.9464 -1.0849 -0.3739
 3943TIP3    H233321   6.292   5.839   4.500  2.1576 -1.2137  0.3235
 3944TIP3   OH233322   2.837   6.767   0.934  0.4129 -0.3471  1.1142
 3944TIP3    H133323   2.780   6.737   1.005  0.9767 -2.1263  0.8472
 3944TIP3    H233324   2.923   6.729   0.954  1.0746  0.7885  0.5337
 3945TIP3   OH233325   2.417   2.998   0.529  0.1283  0.5745  0.1517
 3945TIP3    H133326   2.371   3.071   0.571  1.0309  1.7414 -0.7909
 3945TIP3    H233327   2.377   2.992   0.443 -1.2076 -1.3179  0.8466
 3946TIP3   OH233328   3.104   3.008  10.248 -0.5026 -0.7656 -0.8649
 3946TIP3    H133329   3.165   3.004  10.174  0.1995 -1.0888 -0.2891
 3946TIP3    H233330   3.096   3.101  10.268 -2.7742 -0.4297 -2.9961
 3947TIP3   OH233331   1.114   6.575   4.566 -0.1962  0.8635  0.0595
 3947TIP3    H133332   1.137   6.506   4.503 -0.5487  0.0799  0.7679
 3947TIP3    H233333   1.087   6.649   4.511  2.1976  1.2076 -0.7817
 3948TIP3   OH233334   0.015   2.460   3.948  0.3384 -0.3049 -0.2819
 3948TIP3    H133335  -0.048   2.425   3.883  0.4078  1.6541 -1.4808
 3948TIP3    H233336   0.095   2.410   3.933 -0.0025 -0.6738 -0.9191
 3949TIP3   OH233337   6.181   0.838  13.745  0.1401 -0.4012 -0.1751
 3949TIP3    H133338   6.193   0.861  13.652  1.8973  2.0815  0.5454
 3949TIP3    H233339   6.093   0.801  13.749 -0.6817  1.0223 -2.5723
 3950TIP3   OH233340   2.290   1.181   5.453  0.9235  0.3993 -0.0821
 3950TIP3    H133341   2.293   1.162   5.547  1.8907 -0.0055 -0.1837
 3950TIP3    H233342   2.242   1.264   5.447 -2.2619 -1.2318  0.4744
 3951TIP3   OH233343   2.371   1.491  12.788 -0.0025  0.2388 -0.4290
 3951TIP3    H133344   2.355   1.417  12.847  0.3202  0.5664  0.0827
 3951TIP3    H233345   2.405   1.560  12.845 -0.0544  0.6960 -0.9418
 3952TIP3   OH233346   3.404   3.316  13.224 -0.4375  0.3408 -0.3602
 3952TIP3    H133347   3.450   3.392  13.186 -1.0107  0.6095 -0.5359
 3952TIP3    H233348   3.332   3.355  13.274 -0.7080 -0.0852 -0.4161
 3953TIP3   OH233349   4.736   1.986   2.594 -0.1134  0.0446  0.1097
 3953TIP3    H133350   4.802   1.991   2.663  0.2312 -0.9193 -0.1414
 3953TIP3    H233351   4.740   1.896   2.563 -0.3432  0.4274 -1.0908
 3954TIP3   OH233352   2.679   1.831   4.199  0.4576  0.3808  0.3562
 3954TIP3    H133353   2.728   1.883   4.135  0.8642 -0.2334  0.1639
 3954TIP3    H233354   2.639   1.762   4.147 -1.4468  1.4290  0.3460
 3955TIP3   OH233355   1.676   3.008  10.943  0.2278  0.4813  0.0188
 3955TIP3    H133356   1.724   2.955  10.879 -2.0562 -1.1337 -0.5009
 3955TIP3    H233357   1.627   3.071  10.890 -1.9992 -1.1282 -0.0231
 3956TIP3   OH233358   6.213   2.294  16.065  0.4632  0.3345 -0.0825
 3956TIP3    H133359   6.178   2.209  16.091  1.4954 -0.4420 -1.0737
 3956TIP3    H233360   6.168   2.315  15.983  0.8807  0.2743 -0.3324
 3957TIP3   OH233361   0.033   1.415  14.573 -0.4051 -0.1533 -0.7968
 3957TIP3    H133362   0.118   1.374  14.558  0.1322  0.7389 -0.2842
 3957TIP3    H233363   0.029   1.487  14.511  0.2122  1.2122  0.6768
 3958TIP3   OH233364   5.983   2.204  16.919  0.5109  0.0695  0.2728
 3958TIP3    H133365   5.931   2.284  16.911  0.7327  0.2206  0.3319
 3958TIP3    H233366   6.016   2.206  17.009  0.2736 -0.2400  0.3662
 3959TIP3   OH233367   1.023   4.079  11.162  0.1758  0.3640 -0.4845
 3959TIP3    H133368   1.041   4.130  11.082  1.2023  0.5925 -0.1223
 3959TIP3    H233369   1.103   4.089  11.215 -0.0549 -0.7065  0.0821
 3960TIP3   OH233370   3.155   3.423  15.633 -0.0867 -0.6050  0.1191
 3960TIP3    H133371   3.237   3.375  15.621 -0.2986 -1.2873  1.1975
 3960TIP3    H233372   3.154   3.488  15.563  1.3828 -0.5749  0.0995
 3961TIP3   OH233373   6.151   5.297   5.523  0.3681 -0.2289 -0.0996
 3961TIP3    H133374   6.176   5.204   5.520 -0.8162 -0.5481 -1.8427
 3961TIP3    H233375   6.059   5.296   5.550  0.5513  0.4945  0.5584
 3962TIP3   OH233376   3.291   2.857   1.594 -0.2216 -0.2253 -0.6929
 3962TIP3    H133377   3.239   2.916   1.539 -1.1466  1.2791  1.6338
 3962TIP3    H233378   3.231   2.786   1.617 -0.3022 -0.0683 -0.4200
 3963TIP3   OH233379   3.552   1.228  15.994 -0.0281 -0.2964  0.1297
 3963TIP3    H133380   3.621   1.205  16.055 -1.3976 -2.2787  1.0634
 3963TIP3    H233381   3.596   1.242  15.910  1.9195  2.6845  1.5080
 3964TIP3   OH233382   4.530   4.197  15.129 -0.2079 -0.0322  0.0317
 3964TIP3    H133383   4.592   4.219  15.199  1.4373 -0.4053 -1.2445
 3964TIP3    H233384   4.585   4.175  15.054 -1.7925  3.5121 -2.4800
 3965TIP3   OH233385   0.680   0.009   0.369 -0.8811  0.0990  0.6146
 3965TIP3    H133386   0.625   0.053   0.304 -0.6138 -1.3331 -0.6523
 3965TIP3    H233387   0.765   0.000   0.326 -0.5201 -0.3270  1.4040
 3966TIP3   OH233388   0.988   2.956  17.117  0.2015  0.0444  0.5353
 3966TIP3    H133389   0.935   2.966  17.196  1.4548 -2.5551  1.8173
 3966TIP3    H233390   0.931   2.910  17.056  0.5131 -1.6145  1.4562
 3967TIP3   OH233391   5.117   5.071   1.328  0.4752  0.1921 -0.1498
 3967TIP3    H133392   5.140   4.991   1.375 -0.0893  0.0441 -0.1180
 3967TIP3    H233393   5.022   5.065   1.314  0.6196  0.2717 -1.2496
 3968TIP3   OH233394   4.725   2.663   3.559  0.0164 -0.0579 -0.0829
 3968TIP3    H133395   4.819   2.648   3.549  0.0481  0.7611 -1.0714
 3968TIP3    H233396   4.719   2.723   3.633  0.4107  1.3119 -1.1234
 3969TIP3   OH233397   2.414   1.666   0.378  0.2344 -0.4824 -0.1752
 3969TIP3    H133398   2.377   1.642   0.463  0.6110 -1.9293 -0.3851
 3969TIP3    H233399   2.340   1.661   0.317 -0.4421  2.2974  0.2938
 3970TIP3   OH233400   5.979   2.192  16.189 -0.3586  0.6547  0.1832
 3970TIP3    H133401   5.982   2.097  16.174  0.2532  0.8154 -0.8247
 3970TIP3    H233402   5.989   2.202  16.284  1.4494 -0.2315  0.1232
 3971TIP3   OH233403   2.877   0.005   3.340 -0.0000  0.9844 -0.6200
 3971TIP3    H133404   2.786   0.026   3.363 -0.8785 -0.9727 -1.9935
 3971TIP3    H233405   2.921  -0.006   3.424 -1.4995  0.2037  0.1129
 3972TIP3   OH233406   6.673   3.983   0.194  0.3835  0.0561  0.2174
 3972TIP3    H133407   6.752   4.027   0.163  0.7026  1.3867  2.6495
 3972TIP3    H233408   6.631   4.047   0.251 -1.9395 -0.9941 -0.2062
 3973TIP3   OH233409   0.147   2.589   2.053 -0.5638 -0.7744  0.2870
 3973TIP3    H133410   0.167   2.518   1.992  1.8962 -0.4133  0.5618
 3973TIP3    H233411   0.115   2.660   1.997 -1.3787 -1.5056 -0.1889
 3974TIP3   OH233412   2.142   3.117  17.068  0.0100 -0.0703  0.3942
 3974TIP3    H133413   2.178   3.196  17.109 -2.4204  1.7413 -0.6910
 3974TIP3    H233414   2.074   3.088  17.129  1.6890 -2.1751  1.3945
 3975TIP3   OH233415   6.820   1.185   4.785  0.0280  0.2213  0.4566
 3975TIP3    H133416   6.764   1.134   4.726  2.1490 -0.3007 -1.2603
 3975TIP3    H233417   6.775   1.269   4.794 -1.2775 -0.3424 -0.3940
 3976TIP3   OH233418   4.338   6.174   3.132 -0.2367  0.1531 -0.4079
 3976TIP3    H133419   4.266   6.225   3.094 -1.7992 -1.8957 -0.3709
 3976TIP3    H233420   4.325   6.085   3.097  1.6648 -0.5160  0.4592
 3977TIP3   OH233421   2.775   2.793  15.555  0.1252 -0.2674  0.1060
 3977TIP3    H133422   2.861   2.765  15.584  1.7218  2.7758 -1.2020
 3977TIP3    H233423   2.788   2.823  15.465 -2.1223  0.9852  0.1122
 3978TIP3   OH233424   5.950   5.083  13.061 -0.1701  0.0879 -0.0920
 3978TIP3    H133425   6.001   5.031  12.998 -0.4715  0.5317 -0.7117
 3978TIP3    H233426   5.985   5.172  13.052  0.7095 -0.0806  1.3479
 3979TIP3   OH233427   5.873   6.634  11.561 -0.8864 -0.1861 -0.0703
 3979TIP3    H133428   5.909   6.637  11.649  0.3225 -2.0573 -0.4478
 3979TIP3    H233429   5.832   6.548  11.554  0.3019 -0.6649 -1.7647
 3980TIP3   OH233430   4.001   5.328   1.279 -0.1952 -0.0806  0.4087
 3980TIP3    H133431   3.987   5.370   1.194 -0.6809  1.0202  1.0150
 3980TIP3    H233432   4.097   5.323   1.287 -0.1480 -0.3633 -0.2803
 3981TIP3   OH233433   1.943   2.270  15.415 -0.4376 -0.8263 -0.1762
 3981TIP3    H133434   1.955   2.201  15.350  0.1323 -0.6039 -0.3144
 3981TIP3    H233435   1.874   2.237  15.472 -1.1851 -0.8729 -1.0866
 3982TIP3   OH233436   5.279   5.953   1.546 -0.9245  0.0400  0.7004
 3982TIP3    H133437   5.200   5.963   1.599 -2.3798  1.7344 -1.5326
 3982TIP3    H233438   5.287   6.037   1.501  2.1898 -0.0968  0.7949
 3983TIP3   OH233439   6.002   6.750   1.508 -0.3296 -0.5021  0.0500
 3983TIP3    H133440   5.955   6.816   1.456 -0.6256 -0.0304  0.9017
 3983TIP3    H233441   5.933   6.704   1.556 -0.0573 -0.9512  0.0150
 3984TIP3   OH233442   3.787   3.430   5.526 -0.1610  0.4458  0.2097
 3984TIP3    H133443   3.699   3.414   5.561 -0.1606  2.0026  1.0285
 3984TIP3    H233444   3.810   3.517   5.558  1.9698 -0.1912  0.5931
 3985TIP3   OH233445   5.828   1.872   5.161 -0.0992 -0.2470  0.0351
 3985TIP3    H133446   5.916   1.835   5.163  0.1265  0.3114  0.5613
 3985TIP3    H233447   5.820   1.908   5.072  0.2262 -0.2454  0.0027
 3986TIP3   OH233448   4.297   4.395  15.461  0.0544  0.6239 -0.1312
 3986TIP3    H133449   4.345   4.398  15.544  0.2100  0.8721 -0.2281
 3986TIP3    H233450   4.213   4.439  15.480  0.1871  0.8970 -0.1648
 3987TIP3   OH233451   1.600   2.563   5.670  0.4200 -0.0781  0.4809
 3987TIP3    H133452   1.609   2.605   5.756  1.2658 -1.2221  0.9791
 3987TIP3    H233453   1.677   2.593   5.621 -0.3727  1.0553 -0.1180
 3988TIP3   OH233454   5.589   5.281  16.294  0.0419  0.3254 -0.0941
 3988TIP3    H133455   5.637   5.354  16.254 -0.2416  1.0489  0.8546
 3988TIP3    H233456   5.586   5.303  16.387  1.0122 -1.4969  0.4166
 3989TIP3   OH233457   4.834   3.344   5.121 -0.1414 -0.2361 -0.1935
 3989TIP3    H133458   4.916   3.299   5.140  0.0742  0.2209 -0.0368
 3989TIP3    H233459   4.856   3.437   5.124 -0.6747 -0.1093 -0.0834
 3990TIP3   OH233460   4.454   2.630   3.284 -0.1294  0.4967  0.2651
 3990TIP3    H133461   4.462   2.554   3.227 -0.6613  0.0251  0.8056
 3990TIP3    H233462   4.363   2.658   3.272 -0.2773  0.3223  0.9655
 3991TIP3   OH233463   2.048   1.157   4.868 -0.0069 -0.4624  0.5832
 3991TIP3    H133464   2.094   1.079   4.838  0.0051 -0.4712  0.6237
 3991TIP3    H233465   2.107   1.195   4.933  0.8307  0.5694 -0.7250
 3992TIP3   OH233466   1.014   6.126  12.144 -0.3564 -0.6962  0.3959
 3992TIP3    H133467   1.001   6.220  12.130  0.9754 -0.3032  1.6087
 3992TIP3    H233468   1.015   6.089  12.056 -0.8662  0.4261 -0.1017
 3993TIP3   OH233469   3.379   6.187   1.126  0.3016 -0.3111 -0.2898
 3993TIP3    H133470   3.307   6.250   1.131 -0.8787 -1.6110 -0.3870
 3993TIP3    H233471   3.437   6.213   1.198 -0.1472  0.8760 -0.3240
 3994TIP3   OH233472   2.535   4.561   3.064  0.1606 -0.1390 -0.0122
 3994TIP3    H133473   2.526   4.579   3.157 -0.0838  1.3484 -0.2952
 3994TIP3    H233474   2.481   4.628   3.021  0.8733 -0.3138 -1.2413
 3995TIP3   OH233475   1.631   6.446   2.038 -0.4264 -0.5039  0.2569
 3995TIP3    H133476   1.546   6.455   2.082 -1.0294 -2.0872 -0.5072
 3995TIP3    H233477   1.674   6.373   2.084  1.0938  1.0683  1.4580
 3996TIP3   OH233478   0.949   5.825  11.698 -0.3734  0.3207 -0.4294
 3996TIP3    H133479   0.943   5.801  11.605 -0.7380  0.3239 -0.4092
 3996TIP3    H233480   0.929   5.743  11.745 -1.8859  0.6954 -0.3587
 3997TIP3   OH233481   5.341   0.301  15.919 -0.7230  0.6016  0.0273
 3997TIP3    H133482   5.343   0.291  16.014 -1.9208 -1.3788 -0.0922
 3997TIP3    H233483   5.259   0.260  15.892 -0.3657  1.0303 -1.8680
 3998TIP3   OH233484   0.692   0.261  14.665 -0.4341 -0.2559 -0.0739
 3998TIP3    H133485   0.749   0.338  14.668 -0.1953 -0.2736 -2.3042
 3998TIP3    H233486   0.663   0.257  14.574 -1.2176 -2.2543  0.2191
 3999TIP3   OH233487   1.693   1.931   4.558  0.0624  0.1326 -0.5123
 3999TIP3    H133488   1.669   1.929   4.465 -0.1171  1.4682 -0.5210
 3999TIP3    H233489   1.630   1.991   4.597  0.4774  0.0002  0.3719
 4000TIP3   OH233490   0.239   0.544  11.021 -0.6504 -0.0234  0.6470
 4000TIP3    H133491   0.310   0.608  11.028 -0.1967 -0.2965 -0.9571
 4000TIP3    H233492   0.281   0.459  11.034 -0.5258 -0.2316 -0.9153
 4001TIP3   OH233493   1.589   0.599   1.354  0.1193  0.7680 -0.8468
 4001TIP3    H133494   1.684   0.608   1.342  0.2251 -2.0973 -3.1638
 4001TIP3    H233495   1.552   0.641   1.276 -0.7602  3.4803  0.8788
 4002TIP3   OH233496   4.264   0.441   0.131 -0.5033 -0.7045 -0.7844
 4002TIP3    H133497   4.345   0.407   0.094  0.6577 -0.4377  1.4086
 4002TIP3    H233498   4.195   0.384   0.095  0.4654 -0.3321 -3.4716
 4003TIP3   OH233499   4.390   0.491   5.938 -0.4732 -0.5460 -0.2997
 4003TIP3    H133500   4.318   0.548   5.909 -1.5368 -1.7523 -0.0886
 4003TIP3    H233501   4.386   0.495   6.034  0.6835  0.5077 -0.2698
 4004TIP3   OH233502   6.762   4.474   2.767  0.6215  0.2578  0.0868
 4004TIP3    H133503   6.787   4.383   2.783  1.5974  0.2970 -1.0952
 4004TIP3    H233504   6.829   4.526   2.811  0.7620  0.3920 -0.2809
 4005TIP3   OH233505   3.945   6.513  13.118 -0.3613  0.4616  0.1450
 4005TIP3    H133506   3.991   6.429  13.124  0.5843  0.6617 -2.7323
 4005TIP3    H233507   3.855   6.493  13.141  0.0375 -1.1637  0.4070
 4006TIP3   OH233508   4.802   4.117  12.287 -0.7276 -0.2837 -0.4869
 4006TIP3    H133509   4.865   4.110  12.214 -0.8868 -0.6967 -0.5871
 4006TIP3    H233510   4.835   4.057  12.353  0.2132  1.1317  0.3911
 4007TIP3   OH233511   0.637   2.550   0.987  0.0479 -0.6135 -0.1967
 4007TIP3    H133512   0.682   2.465   0.986 -1.1688 -1.2738 -1.5808
 4007TIP3    H233513   0.546   2.529   1.008  0.0117  0.5324  0.9181
 4008TIP3   OH233514   3.642   6.753   4.887 -0.4783 -0.1758 -0.0761
 4008TIP3    H133515   3.574   6.771   4.823 -0.3311  0.2166 -0.1259
 4008TIP3    H233516   3.630   6.661   4.910 -1.2486 -0.0183  0.1877
 4009TIP3   OH233517   5.363   4.073  12.714 -0.5996  0.0330  0.4101
 4009TIP3    H133518   5.436   4.116  12.758 -0.5964  0.2202  0.2190
 4009TIP3    H233519   5.403   4.031  12.637 -0.0414 -2.7068  2.0331
 4010TIP3   OH233520   1.824   6.103  10.470  0.1060 -0.2095  0.3430
 4010TIP3    H133521   1.843   6.075  10.560 -0.7794 -1.7584  0.0935
 4010TIP3    H233522   1.787   6.025  10.429 -0.3070  0.7274 -1.1200
 4011TIP3   OH233523   6.209   2.054   1.075 -0.4464 -0.0896 -0.2743
 4011TIP3    H133524   6.224   2.095   0.990  1.6667 -0.1773  0.0136
 4011TIP3    H233525   6.220   1.960   1.059 -0.8807 -0.1777 -0.0678
 4012TIP3   OH233526   5.133   5.560  12.800  0.1954 -0.9026  0.8726
 4012TIP3    H133527   5.176   5.577  12.884  2.0572 -1.8129  0.1667
 4012TIP3    H233528   5.202   5.568  12.735 -0.3837 -3.5544 -0.2233
 4013TIP3   OH233529   4.694   0.907  13.709  0.0202  0.4839 -0.0742
 4013TIP3    H133530   4.701   0.900  13.614 -1.3169  3.1166 -0.4485
 4013TIP3    H233531   4.754   0.839  13.742 -0.4019 -1.3611 -2.7346
 4014TIP3   OH233532   3.426   5.797  14.198  0.1756  0.0018 -0.0601
 4014TIP3    H133533   3.338   5.828  14.218  0.6008  1.8274 -0.7902
 4014TIP3    H233534   3.417   5.703  14.187 -1.1310 -0.3081  2.7909
 4015TIP3   OH233535   1.518   5.859  15.287 -0.0682  0.3092 -0.9137
 4015TIP3    H133536   1.592   5.812  15.326 -1.3416 -0.7627  0.3218
 4015TIP3    H233537   1.518   5.944  15.330  1.1099  0.7600 -1.7638
 4016TIP3   OH233538   2.645   0.770   3.590  0.3874  0.2801 -0.2007
 4016TIP3    H133539   2.726   0.734   3.554 -0.7905 -0.3933 -2.3638
 4016TIP3    H233540   2.655   0.865   3.582  0.2589  0.1668 -2.2646
 4017TIP3   OH233541   2.914   4.517  13.520  0.1070  0.6344 -0.0732
 4017TIP3    H133542   2.944   4.504  13.430  0.0875  2.3484 -0.3588
 4017TIP3    H233543   2.983   4.570  13.561  0.5187 -0.8057  1.1953
 4018TIP3   OH233544   0.963   6.542   0.585 -0.0057 -0.2295  0.3193
 4018TIP3    H133545   0.992   6.451   0.575  0.2755  0.0003 -1.1955
 4018TIP3    H233546   0.888   6.537   0.644  0.2645 -1.3972  0.5821
 4019TIP3   OH233547   2.322   1.743  16.972 -0.4799  0.2794  0.2845
 4019TIP3    H133548   2.360   1.755  16.885  0.3686  1.5171  0.8045
 4019TIP3    H233549   2.349   1.820  17.022 -1.8411  0.1223  1.3489
 4020TIP3   OH233550   1.357   4.095  17.212  0.0185  0.1012 -0.4749
 4020TIP3    H133551   1.408   4.033  17.159  1.7549  1.2839 -0.2841
 4020TIP3    H233552   1.404   4.099  17.295 -0.0410  1.6818 -0.4962
 4021TIP3   OH233553   4.857   2.713   1.704  0.1667 -0.3077  0.1965
 4021TIP3    H133554   4.769   2.726   1.667  0.0147 -0.5393  0.4691
 4021TIP3    H233555   4.858   2.769   1.782  0.0379 -0.7832  0.5423
 4022TIP3   OH233556   2.966   3.990   4.292  0.3988 -0.5672  0.3718
 4022TIP3    H133557   2.960   4.086   4.294  1.1928 -0.3912 -2.2292
 4022TIP3    H233558   3.028   3.969   4.361  0.9327  0.8964  0.3845
 4023TIP3   OH233559   0.170   1.773   5.960 -0.1359  0.0167 -0.0151
 4023TIP3    H133560   0.180   1.812   5.873 -1.1494 -0.5141 -0.3931
 4023TIP3    H233561   0.165   1.848   6.019  1.6337  0.3679 -0.2663
 4024TIP3   OH233562   1.900   2.553  16.997 -0.1578  0.2246 -0.1449
 4024TIP3    H133563   1.898   2.572  16.903  2.1305 -2.2932 -0.8553
 4024TIP3    H233564   1.993   2.539  17.016 -0.7446 -1.0979  2.0735
 4025TIP3   OH233565   0.987   0.343  14.514  0.2259  0.1791 -0.1352
 4025TIP3    H133566   1.033   0.426  14.529 -0.7645  0.4711  1.6278
 4025TIP3    H233567   0.915   0.365  14.456  0.9679  0.1710 -1.0878
 4026TIP3   OH233568   3.214   3.305  12.059  0.1441  0.1310 -0.0991
 4026TIP3    H133569   3.154   3.262  11.997  1.8442 -1.7306 -0.5611
 4026TIP3    H233570   3.180   3.282  12.145 -1.3894  1.4934 -0.2891
 4027TIP3   OH233571   0.589   4.494  12.227 -0.2613 -0.0288  0.2312
 4027TIP3    H133572   0.652   4.558  12.195 -0.2113 -0.4185 -0.4701
 4027TIP3    H233573   0.503   4.533  12.206 -0.2265 -0.3544 -0.5281
 4028TIP3   OH233574   4.124   4.092   2.990 -0.2916 -0.2029  0.3578
 4028TIP3    H133575   4.056   4.145   3.032  0.2201  1.6009 -0.9903
 4028TIP3    H233576   4.086   4.067   2.905 -0.0250 -0.9019  0.4392
 4029TIP3   OH233577   1.665   1.662  16.837 -0.2939 -0.2576 -0.3831
 4029TIP3    H133578   1.690   1.618  16.918 -0.2934 -0.5273 -0.5269
 4029TIP3    H233579   1.602   1.729  16.864 -2.4278 -2.1367 -0.4572
 4030TIP3   OH233580   2.142   3.791   4.761  0.2270  0.7143 -0.2443
 4030TIP3    H133581   2.128   3.848   4.837 -0.0513 -0.1355  0.3552
 4030TIP3    H233582   2.228   3.817   4.727  0.2899  1.2066  0.2735
 4031TIP3   OH233583   0.800   2.469   5.981 -0.9141  0.3318  0.5064
 4031TIP3    H133584   0.866   2.420   5.933 -3.4304 -1.7471 -1.1165
 4031TIP3    H233585   0.799   2.429   6.068  0.3495  0.8472  0.7841
 4032TIP3   OH233586   0.769   0.790  15.462  0.0438  0.1122  0.5715
 4032TIP3    H133587   0.820   0.770  15.384 -1.5943  5.1592 -2.2894
 4032TIP3    H233588   0.835   0.809  15.529  1.7744  0.5033 -1.1442
 4033TIP3   OH233589   0.631   4.859   0.049  0.2407  0.0065 -0.1876
 4033TIP3    H133590   0.684   4.893  -0.023  1.1643  0.0131  0.4809
 4033TIP3    H233591   0.673   4.777   0.073 -2.2224 -2.0034 -2.0991
 4034TIP3   OH233592   3.526   4.844  15.459  0.8272 -0.7001  0.1893
 4034TIP3    H133593   3.445   4.844  15.510  0.5891 -2.4150 -0.1029
 4034TIP3    H233594   3.579   4.914  15.496 -0.6166  0.1545  0.6771
 4035TIP3   OH233595   2.797   6.601  13.870  0.1911  0.3892  0.5889
 4035TIP3    H133596   2.872   6.661  13.875  0.5199 -0.0459  1.0207
 4035TIP3    H233597   2.750   6.628  13.792 -0.4067  2.0642  1.4803
 4036TIP3   OH233598   5.392   5.689   0.224 -0.4481  0.2671 -0.1703
 4036TIP3    H133599   5.313   5.651   0.186 -0.8030  2.0789 -1.3206
 4036TIP3    H233600   5.407   5.637   0.303 -1.1836 -1.9185 -1.3609
 4037TIP3   OH233601   0.529   4.146   3.622  0.1374  0.4982 -0.0679
 4037TIP3    H133602   0.476   4.076   3.661  2.8303 -0.9768  1.1805
 4037TIP3    H233603   0.509   4.223   3.675 -1.0743  0.1168  0.0738
 4038TIP3   OH233604   3.509   0.376  14.421  0.1784  0.0745  0.4217
 4038TIP3    H133605   3.443   0.334  14.366  0.8307  0.3005 -0.5613
 4038TIP3    H233606   3.591   0.330  14.400  0.5243  0.4811  0.8536
 4039TIP3   OH233607   5.989   5.148   4.152 -0.1910 -0.5703  0.1013
 4039TIP3    H133608   6.016   5.099   4.074  2.3008  0.3210  0.2947
 4039TIP3    H233609   6.001   5.240   4.128  0.5098 -0.2748  1.4599
 4040TIP3   OH233610   0.844   3.665   4.132  0.2907  0.4080  0.1312
 4040TIP3    H133611   0.826   3.721   4.056 -3.2749 -0.8212 -0.0629
 4040TIP3    H233612   0.920   3.613   4.105  0.2258  1.2371 -1.8607
 4041TIP3   OH233613   3.777   3.596   4.692  0.0109 -0.4970 -0.2542
 4041TIP3    H133614   3.794   3.627   4.781 -1.1661 -1.0138  0.1746
 4041TIP3    H233615   3.818   3.661   4.635  0.5015  0.0077  0.6538
 4042TIP3   OH233616   2.779   1.147   1.387  0.8195 -0.1065  0.0861
 4042TIP3    H133617   2.727   1.153   1.467 -1.0513  0.7657 -1.1334
 4042TIP3    H233618   2.779   1.235   1.351  0.1579 -0.8064 -1.7458
 4043TIP3   OH233619   3.477   0.599  16.026  0.0457  0.2382 -0.0112
 4043TIP3    H133620   3.396   0.650  16.022  0.6128  1.1676  0.1281
 4043TIP3    H233621   3.523   0.622  15.945 -0.1514 -0.8522 -0.4479
 4044TIP3   OH233622   2.577   5.653   0.670 -0.3929 -0.2149 -0.2644
 4044TIP3    H133623   2.636   5.625   0.600  1.7361 -2.7756  2.2537
 4044TIP3    H233624   2.603   5.743   0.689  1.2118 -0.5504 -0.7062
 4045TIP3   OH233625   2.222   5.808  13.018  0.5571  0.4102 -0.4860
 4045TIP3    H133626   2.129   5.834  13.017 -0.0468 -1.1016  2.7326
 4045TIP3    H233627   2.269   5.887  12.992 -1.5591  2.1510  0.5993
 4046TIP3   OH233628   6.239   5.664  17.253 -0.3011 -0.0204  0.2001
 4046TIP3    H133629   6.299   5.622  17.192  0.0091  0.7033  0.0011
 4046TIP3    H233630   6.190   5.591  17.293  1.0534 -0.6580  0.7535
 4047TIP3   OH233631   0.201   3.591  14.906 -0.1133 -0.6416 -0.2154
 4047TIP3    H133632   0.135   3.594  14.976  0.7544  0.3548  0.5996
 4047TIP3    H233633   0.263   3.525  14.935  1.8165  1.7403  1.5004
 4048TIP3   OH233634   1.443   6.587  17.132  0.2289  0.0219 -0.2138
 4048TIP3    H133635   1.371   6.648  17.117 -0.8268 -1.6782 -2.8966
 4048TIP3    H233636   1.522   6.634  17.106 -0.2053  1.0711  0.3133
 4049TIP3   OH233637   1.376   3.429  15.868  0.4613 -0.1413 -0.1773
 4049TIP3    H133638   1.349   3.497  15.807 -1.4731 -0.3350  0.3968
 4049TIP3    H233639   1.417   3.476  15.940  0.4318  0.2944 -0.4401
 4050TIP3   OH233640   0.149   5.530  11.146  0.0089  0.2690  0.2989
 4050TIP3    H133641   0.145   5.496  11.057  0.0878 -0.6864  0.6467
 4050TIP3    H233642   0.178   5.456  11.199  0.0007  0.8320  1.1179
 4051TIP3   OH233643   4.683   0.277   1.571  0.2459 -0.4290 -0.0338
 4051TIP3    H133644   4.624   0.262   1.498 -1.0547  0.1422  0.8500
 4051TIP3    H233645   4.630   0.260   1.649  0.7970  1.5076  0.8333
 4052TIP3   OH233646   0.274   3.608   4.888 -0.2419  0.2318  1.2166
 4052TIP3    H133647   0.283   3.522   4.846  0.5507  0.2867  1.2553
 4052TIP3    H233648   0.364   3.634   4.907  0.2009  3.5330 -3.6117
 4053TIP3   OH233649   2.613   2.722  15.281 -0.3860 -0.2782  0.3032
 4053TIP3    H133650   2.700   2.760  15.268 -0.6586  0.0297 -0.8042
 4053TIP3    H233651   2.563   2.791  15.325 -0.6684  0.4125 -1.0347
 4054TIP3   OH233652   4.499   5.289   2.899  0.8125 -0.2036  0.0280
 4054TIP3    H133653   4.565   5.325   2.959  1.4840 -1.0270 -0.1907
 4054TIP3    H233654   4.551   5.254   2.826  0.1208 -0.8030 -0.1813
 4055TIP3   OH233655   3.165   6.601  13.801  0.1674  0.3434  0.5454
 4055TIP3    H133656   3.136   6.549  13.875 -1.1529 -0.1513 -0.2812
 4055TIP3    H233657   3.121   6.563  13.725  3.3113 -0.7200 -0.9317
 4056TIP3   OH233658   4.002   4.541  14.037  0.3499  0.0695 -0.3270
 4056TIP3    H133659   3.973   4.576  13.953 -0.0942 -1.6712 -0.9242
 4056TIP3    H233660   4.095   4.521  14.024  0.4250  0.3335 -0.2102
 4057TIP3   OH233661   6.263   3.425   6.447  0.3456 -0.0021 -0.4145
 4057TIP3    H133662   6.217   3.424   6.531  1.5196  1.0443  0.2743
 4057TIP3    H233663   6.278   3.333   6.427 -0.5233 -0.2908  0.1824
 4058TIP3   OH233664   5.724   0.091   3.178 -0.1287  0.1495 -0.9024
 4058TIP3    H133665   5.686   0.064   3.261 -2.6107  1.7160 -1.4358
 4058TIP3    H233666   5.782   0.164   3.201 -0.6755  0.4681 -0.5107
 4059TIP3   OH233667   2.905   5.685  13.432  0.0630 -0.5188 -0.0502
 4059TIP3    H133668   2.848   5.608  13.436  1.2443 -1.4087  0.0907
 4059TIP3    H233669   2.977   5.665  13.491 -0.8893  1.8347  2.0937
 4060TIP3   OH233670   6.542   0.386   4.974 -0.0050  0.0968 -0.2640
 4060TIP3    H133671   6.632   0.359   4.991  0.0502  1.2387  1.5393
 4060TIP3    H233672   6.494   0.304   4.960  0.9049 -0.6759  0.9791
 4061TIP3   OH233673   5.839   6.043  11.876 -0.5187  0.2579  0.2771
 4061TIP3    H133674   5.786   6.112  11.917 -0.9320  0.3651 -0.4318
 4061TIP3    H233675   5.807   5.962  11.916  1.6103  0.5837  2.9592
 4062TIP3   OH233676   0.596   3.810  16.085  0.1135  0.0796 -0.3777
 4062TIP3    H133677   0.621   3.718  16.076 -0.4981 -0.1582  0.2372
 4062TIP3    H233678   0.614   3.849  15.999  0.2860 -0.6305 -0.6679
 4063TIP3   OH233679   6.558   6.131  13.160 -0.0360  0.4252  0.4220
 4063TIP3    H133680   6.522   6.062  13.104  0.2880  1.0125 -0.5435
 4063TIP3    H233681   6.589   6.198  13.099 -1.9150  2.2571  1.3663
 4064TIP3   OH233682   0.066   5.639  13.131  0.1823 -0.0714  0.4160
 4064TIP3    H133683   0.119   5.615  13.055 -2.2876 -0.7027 -1.2082
 4064TIP3    H233684   0.073   5.563  13.190  0.3272 -0.5477 -0.2044
 4065TIP3   OH233685   2.444   2.918  16.271 -0.0268  0.3567 -0.1817
 4065TIP3    H133686   2.529   2.940  16.310 -0.1535 -0.8956  0.8686
 4065TIP3    H233687   2.445   2.961  16.185  0.4313  2.8587  1.0160
 4066TIP3   OH233688   0.397   2.514  13.245 -0.2297  0.1403  0.1078
 4066TIP3    H133689   0.337   2.496  13.173 -1.7591 -1.4161  1.6842
 4066TIP3    H233690   0.478   2.470  13.221 -1.1569 -1.5297 -0.0909
 4067TIP3   OH233691   3.163   5.838  11.918 -0.0146 -0.0343  0.0810
 4067TIP3    H133692   3.201   5.844  12.006  1.1768  0.5722 -0.4492
 4067TIP3    H233693   3.150   5.929  11.891 -1.3809 -0.2240  0.0309
 4068TIP3   OH233694   3.374   3.889   5.875  0.0495  0.0407  0.5221
 4068TIP3    H133695   3.451   3.913   5.927 -0.4710  1.5249  0.6610
 4068TIP3    H233696   3.302   3.939   5.915 -0.5001  0.6381 -1.1362
 4069TIP3   OH233697   6.735   1.675   1.240 -0.2556 -0.0913  0.5843
 4069TIP3    H133698   6.766   1.760   1.211  1.9929 -0.3628  1.9823
 4069TIP3    H233699   6.674   1.694   1.311 -2.3467  0.3980 -1.2383
 4070TIP3   OH233700   0.323   4.599   2.377  0.2806 -0.3639  0.0452
 4070TIP3    H133701   0.384   4.647   2.433  0.1510  0.1002 -0.2075
 4070TIP3    H233702   0.296   4.663   2.310 -1.6860 -0.0760  1.0378
 4071TIP3   OH233703   0.810   5.996   5.322 -0.7835 -0.1080 -0.2431
 4071TIP3    H133704   0.865   5.918   5.320 -0.6131 -0.0445  1.1317
 4071TIP3    H233705   0.812   6.025   5.413  0.6108  2.5556 -1.0402
 4072TIP3   OH233706   1.753   5.768   0.465  0.2429 -0.3569 -0.3279
 4072TIP3    H133707   1.752   5.677   0.494 -0.3266 -0.9862 -2.1508
 4072TIP3    H233708   1.837   5.779   0.420  0.6217  0.2504  0.4987
 4073TIP3   OH233709   0.115   6.557   1.447  0.1905  0.1107 -0.7364
 4073TIP3    H133710   0.076   6.570   1.361  0.3403  0.8269 -0.7006
 4073TIP3    H233711   0.206   6.583   1.436  0.2752 -0.0452 -0.4242
 4074TIP3   OH233712   5.563   3.052  17.056 -0.2826  0.3028  0.5015
 4074TIP3    H133713   5.638   3.007  17.095 -0.2759 -0.5010 -0.3981
 4074TIP3    H233714   5.545   3.125  17.116  0.1637 -0.4663  1.6118
 4075TIP3   OH233715   0.254   0.604   3.269 -0.0498  0.1214  0.1332
 4075TIP3    H133716   0.176   0.653   3.244  0.0113  0.8478  1.2761
 4075TIP3    H233717   0.221   0.520   3.300 -0.4437  0.5862  1.0311
 4076TIP3   OH233718   5.738   4.179  11.701  0.1802 -0.3183 -0.4498
 4076TIP3    H133719   5.655   4.220  11.679 -0.1991 -1.0540 -0.4177
 4076TIP3    H233720   5.804   4.240  11.669 -0.3389 -0.9507 -2.9432
 4077TIP3   OH233721   1.210   2.952  10.554  0.2634 -0.4571 -0.6413
 4077TIP3    H133722   1.278   3.018  10.544 -0.7569  0.8087  0.3848
 4077TIP3    H233723   1.141   2.979  10.493 -0.8261  0.4035  0.8761
 4078TIP3   OH233724   4.807   5.282  12.091  0.3535  0.3681  0.7347
 4078TIP3    H133725   4.741   5.303  12.025  1.4598  0.1159 -0.5039
 4078TIP3    H233726   4.862   5.216  12.049 -0.4614 -1.8195  2.8983
 4079TIP3   OH233727   6.732   1.776  13.143 -0.0013 -0.5533 -0.0054
 4079TIP3    H133728   6.819   1.805  13.169  0.7811 -2.5977 -0.1525
 4079TIP3    H233729   6.682   1.772  13.224  0.2042  0.0579  0.1576
 4080TIP3   OH233730   1.618   2.383   1.262 -0.8201  0.1024 -0.5152
 4080TIP3    H133731   1.701   2.367   1.217 -0.7704  0.9690 -0.7454
 4080TIP3    H233732   1.596   2.474   1.242 -1.8109 -0.1003 -0.4270
 4081TIP3   OH233733   3.550   6.159   6.195  0.2862  0.1521 -0.1501
 4081TIP3    H133734   3.592   6.244   6.182  1.4851 -0.4596 -0.3615
 4081TIP3    H233735   3.496   6.171   6.273  0.7968  0.9802  0.0839
 4082TIP3   OH233736   2.369   1.342   0.573  0.9723 -0.0770 -0.1459
 4082TIP3    H133737   2.281   1.304   0.577  0.4430  0.8071 -2.1402
 4082TIP3    H233738   2.412   1.296   0.501  0.8849  1.8829 -1.5256
 4083TIP3   OH233739   1.410   6.291   1.520  0.2203  0.2974  0.5521
 4083TIP3    H133740   1.502   6.272   1.539  0.4067  1.4657  0.9010
 4083TIP3    H233741   1.413   6.351   1.446 -0.3699 -1.2528 -0.8075
 4084TIP3   OH233742   2.435   4.621   3.950 -0.1737  0.2125 -0.3552
 4084TIP3    H133743   2.365   4.600   4.011 -1.1992  2.0956 -0.8187
 4084TIP3    H233744   2.422   4.562   3.876 -0.8386  0.0628 -0.1226
 4085TIP3   OH233745   2.674   6.208   2.642  0.1646 -0.0163 -0.8128
 4085TIP3    H133746   2.622   6.183   2.718  2.3839 -0.9228  0.4641
 4085TIP3    H233747   2.636   6.158   2.570  0.3128 -1.9847  0.4240
 4086TIP3   OH233748   3.824   2.655   3.246 -0.0512 -0.0324 -0.2583
 4086TIP3    H133749   3.906   2.644   3.197  1.0137  1.1430  1.1873
 4086TIP3    H233750   3.793   2.742   3.220 -1.1954 -0.6973 -1.2367
 4087TIP3   OH233751   6.285   6.214  12.008 -0.0031  0.3578  0.5246
 4087TIP3    H133752   6.211   6.225  11.948 -0.1099 -2.5225 -0.0014
 4087TIP3    H233753   6.354   6.267  11.969 -0.6283  0.0086 -1.1635
 4088TIP3   OH233754   5.336   3.104  12.044  0.2517  0.5902  0.5767
 4088TIP3    H133755   5.407   3.135  11.989  2.2151 -0.2882  2.4647
 4088TIP3    H233756   5.367   3.021  12.079 -2.0207 -0.1749  0.9533
 4089TIP3   OH233757   6.157   3.407   1.467  0.0582  0.0143  0.0334
 4089TIP3    H133758   6.099   3.430   1.395 -2.4679  1.1120  2.2471
 4089TIP3    H233759   6.227   3.472   1.463 -1.9466  2.3661  0.5730
 4090TIP3   OH233760   2.250   2.788   1.164 -0.0926  0.3096 -0.3870
 4090TIP3    H133761   2.246   2.868   1.113  2.3320  1.9576  1.7531
 4090TIP3    H233762   2.233   2.816   1.254  2.5205 -1.1969  0.6839
 4091TIP3   OH233763   2.783   4.232  16.783 -0.6851 -0.3000 -0.6162
 4091TIP3    H133764   2.823   4.237  16.697 -1.0347 -2.3179 -0.9431
 4091TIP3    H233765   2.803   4.144  16.815 -2.2098 -0.2969  0.5087
 4092TIP3   OH233766   3.166   6.415   6.140  0.2709  0.1853  0.4941
 4092TIP3    H133767   3.246   6.420   6.192 -0.0063 -1.2565  1.1201
 4092TIP3    H233768   3.196   6.419   6.049  0.9692  0.4602  0.7300
 4093TIP3   OH233769   1.311   4.629  14.036  0.2335  0.6083 -0.0310
 4093TIP3    H133770   1.357   4.702  13.995  0.5843  0.1769 -0.4186
 4093TIP3    H233771   1.353   4.618  14.121 -1.5536  2.5602  1.2214
 4094TIP3   OH233772   5.548   2.201  13.288  0.4055 -0.7908 -0.0416
 4094TIP3    H133773   5.547   2.233  13.197  0.9048 -0.5512  0.0324
 4094TIP3    H233774   5.456   2.188  13.310  0.2895 -1.0106 -0.6403
 4095TIP3   OH233775   3.894   3.814   2.656  0.3781 -0.3199  0.3447
 4095TIP3    H133776   3.924   3.876   2.589 -1.0518 -0.5940 -0.5990
 4095TIP3    H233777   3.901   3.729   2.614 -0.7572 -0.4742  0.4554
 4096TIP3   OH233778   3.207   0.202  11.750  0.0297 -1.1548 -0.7780
 4096TIP3    H133779   3.112   0.189  11.742  0.1144 -2.7141  0.2401
 4096TIP3    H233780   3.216   0.288  11.790 -0.9507 -0.8351 -1.2230
 4097TIP3   OH233781   4.920   0.010  14.632  0.0462 -0.9434  0.5140
 4097TIP3    H133782   4.989  -0.001  14.566  0.5615 -0.5129  0.9642
 4097TIP3    H233783   4.859   0.072  14.593  0.3660 -0.6634  0.4551
 4098TIP3   OH233784   5.041   5.451  16.835 -0.1602  0.4934 -0.2087
 4098TIP3    H133785   5.103   5.497  16.893  0.0333 -0.7564  0.6203
 4098TIP3    H233786   5.090   5.437  16.754 -0.4199  2.2284 -0.7282
 4099TIP3   OH233787   6.208   1.592  13.935  0.0358  0.6919  0.0127
 4099TIP3    H133788   6.172   1.536  13.866 -0.0384 -0.9980  1.3782
 4099TIP3    H233789   6.166   1.677  13.920 -0.3573  0.2422 -1.7059
 4100TIP3   OH233790   3.378   2.672   5.250  0.2410  0.2154  0.0579
 4100TIP3    H133791   3.384   2.667   5.155  0.9552  2.4713 -0.0706
 4100TIP3    H233792   3.454   2.623   5.281  0.0583 -0.4489 -0.5223
 4101TIP3   OH233793   2.633   0.469  13.202 -0.0078  0.1604 -0.2802
 4101TIP3    H133794   2.718   0.482  13.244  0.1370 -0.7653 -0.2748
 4101TIP3    H233795   2.650   0.484  13.109 -0.2978  2.0690 -0.0759
 4102TIP3   OH233796   4.272   2.043   0.224 -0.0396  0.6779  0.1741
 4102TIP3    H133797   4.306   2.128   0.195  1.3586  0.2620  0.4911
 4102TIP3    H233798   4.179   2.046   0.204  0.3762  1.4302 -1.9260
 4103TIP3   OH233799   4.750   3.904  14.667  0.7532 -0.9065  0.3044
 4103TIP3    H133800   4.792   3.833  14.716 -0.9166 -1.0743  1.5899
 4103TIP3    H233801   4.803   3.981  14.685  2.2636 -1.6699 -0.6531
 4104TIP3   OH233802   1.193   0.648  11.939 -0.1369 -0.1462 -0.3365
 4104TIP3    H133803   1.119   0.691  11.983  0.9042  0.3550  1.0050
 4104TIP3    H233804   1.214   0.705  11.865 -0.7311  0.0008 -0.3946
 4105TIP3   OH233805   1.185   5.449   3.802 -0.0518 -0.5284 -0.1959
 4105TIP3    H133806   1.144   5.366   3.824  1.3439 -1.1059  0.2895
 4105TIP3    H233807   1.130   5.484   3.731 -0.2799 -2.1631 -0.8640
 4106TIP3   OH233808   4.281   5.640  15.569 -0.9132 -0.7956  0.1635
 4106TIP3    H133809   4.293   5.583  15.645 -2.5241  0.1378  1.1942
 4106TIP3    H233810   4.186   5.642  15.556 -0.9764  1.9163  0.4385
 4107TIP3   OH233811   6.022   5.372  13.600  0.0961  0.2107  0.6214
 4107TIP3    H133812   6.059   5.398  13.515  1.9294 -0.6526  1.1029
 4107TIP3    H233813   5.936   5.336  13.578 -1.0546  3.2914 -0.4391
 4108TIP3   OH233814   4.378   2.059  16.491 -0.5104 -0.0966  0.3026
 4108TIP3    H133815   4.343   2.094  16.409 -1.4957  1.5947  1.3878
 4108TIP3    H233816   4.377   1.964  16.479  0.1297  0.1184 -1.9180
 4109TIP3   OH233817   2.131   2.944  11.045  0.2346  0.6003 -0.1009
 4109TIP3    H133818   2.208   2.974  11.094  0.2543  0.2274  0.1037
 4109TIP3    H233819   2.059   2.996  11.079  0.4444  1.1623 -0.5032
 4110TIP3   OH233820   0.070   5.228  15.381 -0.4377  0.1998 -0.4936
 4110TIP3    H133821   0.012   5.303  15.366  1.2278  1.5150 -0.6356
 4110TIP3    H233822   0.158   5.263  15.368  0.4279 -1.6264  0.1508
 4111TIP3   OH233823   2.645   3.605   0.503 -0.6713 -0.5236 -0.2168
 4111TIP3    H133824   2.656   3.657   0.582 -0.4051 -1.0455  0.0934
 4111TIP3    H233825   2.626   3.517   0.535 -1.8178 -0.4765 -0.7328
 4112TIP3   OH233826   1.291   1.812  16.703  0.2625  0.1442  0.3978
 4112TIP3    H133827   1.246   1.847  16.626 -0.6806 -0.6743  0.5570
 4112TIP3    H233828   1.380   1.846  16.696  0.3314 -0.2850 -1.3232
 4113TIP3   OH233829   1.802   6.586   2.794 -0.6533 -0.0389  0.2088
 4113TIP3    H133830   1.852   6.524   2.741  1.2975  0.6880  1.1198
 4113TIP3    H233831   1.722   6.601   2.743  1.1710  0.7968 -2.7160
 4114TIP3   OH233832   1.549   3.438   0.660  0.6269  0.9177 -0.4849
 4114TIP3    H133833   1.538   3.533   0.656 -0.0376  0.9291  0.8521
 4114TIP3    H233834   1.620   3.419   0.599  1.6893  2.4265  0.2210
 4115TIP3   OH233835   1.058   4.757   1.206 -0.2217 -0.1073 -0.7982
 4115TIP3    H133836   1.029   4.685   1.150 -0.8067 -0.7989  0.3552
 4115TIP3    H233837   1.005   4.832   1.180 -1.1868 -0.6768 -0.5158
 4116TIP3   OH233838   6.328   3.180   3.537 -0.0901  0.4811  0.3327
 4116TIP3    H133839   6.419   3.210   3.540 -0.1105  0.4811  1.9247
 4116TIP3    H233840   6.277   3.259   3.521  0.2005  0.3998 -1.1187
 4117TIP3   OH233841   1.281   2.277  13.538 -0.0600 -0.2624 -0.3449
 4117TIP3    H133842   1.345   2.207  13.530  0.1851 -0.1374  0.5037
 4117TIP3    H233843   1.200   2.234  13.565  0.3448 -0.1201  1.1783
 4118TIP3   OH233844   3.970   6.188   0.570 -0.0901 -0.9180 -0.1653
 4118TIP3    H133845   4.048   6.184   0.625  0.1838 -1.3485 -0.5765
 4118TIP3    H233846   3.971   6.107   0.521 -0.3974 -0.5943 -0.7195
 4119TIP3   OH233847   0.595   3.018  12.243 -0.1654 -0.0304  0.0954
 4119TIP3    H133848   0.596   3.104  12.199  0.4252  0.5906  1.2857
 4119TIP3    H233849   0.563   2.958  12.176  0.8289  0.8687 -1.2404
 4120TIP3   OH233850   2.527   5.707  12.050  0.5547 -0.0617  0.3149
 4120TIP3    H133851   2.550   5.626  12.004 -1.6224 -0.4419 -0.2129
 4120TIP3    H233852   2.551   5.689  12.141  0.9685 -0.9497  0.0485
 4121TIP3   OH233853   1.570   4.333   2.747  0.1642 -0.0849 -0.1979
 4121TIP3    H133854   1.664   4.324   2.764  0.1374 -0.1962 -0.1099
 4121TIP3    H233855   1.551   4.425   2.767  0.5304  0.3194 -1.5486
 4122TIP3   OH233856   0.332   6.800  17.198  0.0302 -0.6824 -0.2346
 4122TIP3    H133857   0.357   6.875  17.144  0.6452 -1.6358 -1.3320
 4122TIP3    H233858   0.408   6.786  17.255 -0.7729  0.5662  1.2198
 4123TIP3   OH233859   6.693   1.940   1.632 -0.1302  0.6262 -0.7977
 4123TIP3    H133860   6.632   1.921   1.561 -0.8987 -1.6262  0.4087
 4123TIP3    H233861   6.780   1.931   1.591 -0.5196  2.1234 -2.0817
 4124TIP3   OH233862   1.954   4.861   5.884 -0.6164 -0.0608 -0.2388
 4124TIP3    H133863   1.914   4.774   5.886  1.6097 -1.1320  0.3735
 4124TIP3    H233864   2.006   4.861   5.804 -0.0819  0.4610  0.1066
 4125TIP3   OH233865   6.730   1.113   1.160 -0.5586 -0.4658  0.3605
 4125TIP3    H133866   6.645   1.120   1.204 -0.3617  2.6374  0.4962
 4125TIP3    H233867   6.793   1.105   1.232 -0.5777 -0.2865  0.3984
 4126TIP3   OH233868   1.224   0.374  11.888 -0.5553  0.1948  0.4344
 4126TIP3    H133869   1.220   0.337  11.799  0.0552 -0.0003  0.4831
 4126TIP3    H233870   1.201   0.467  11.876 -1.0636  0.0417  0.1633
 4127TIP3   OH233871   3.798   0.543  16.574  0.1902 -0.3447 -0.3226
 4127TIP3    H133872   3.804   0.561  16.668 -0.7689 -0.2974 -0.2641
 4127TIP3    H233873   3.830   0.623  16.532 -0.2735 -0.0040 -0.0388
 4128TIP3   OH233874   4.001   0.795  14.186 -0.0274 -0.0917  0.0503
 4128TIP3    H133875   3.972   0.829  14.270 -0.7554  0.6442 -0.4850
 4128TIP3    H233876   3.995   0.700  14.195  0.1416 -0.0247  0.9055
 4129TIP3   OH233877   5.586   1.794  13.677 -0.7080 -0.4347  0.1113
 4129TIP3    H133878   5.677   1.766  13.663 -1.0910 -0.8959 -1.8456
 4129TIP3    H233879   5.593   1.888  13.696  0.1635 -0.2246 -1.0684
 4130TIP3   OH233880   4.769   5.591  13.263  0.6294  0.1177  0.3293
 4130TIP3    H133881   4.756   5.517  13.321 -1.2473  0.5421  0.4988
 4130TIP3    H233882   4.683   5.632  13.256  1.2023  1.1343 -1.3199
 4131TIP3   OH233883   6.675   1.139  16.092 -0.3412 -0.4479 -0.3320
 4131TIP3    H133884   6.733   1.129  16.016  1.2751 -1.0913  0.9182
 4131TIP3    H233885   6.682   1.055  16.138 -0.2330  0.3819  1.2270
 4132TIP3   OH233886   2.063   5.499  16.209 -0.2320 -0.1863 -0.0061
 4132TIP3    H133887   1.977   5.530  16.237  0.1843  3.1709 -1.9039
 4132TIP3    H233888   2.048   5.466  16.120  0.3127 -0.4884  0.0119
 4133TIP3   OH233889   0.444   6.472  13.642  0.0435 -0.8021 -0.6010
 4133TIP3    H133890   0.349   6.473  13.643  0.0521 -0.0520  0.1051
 4133TIP3    H233891   0.469   6.558  13.607  0.4591 -0.9497 -0.6741
 4134TIP3   OH233892   1.550   2.830  13.408  0.4160 -0.1345  0.4292
 4134TIP3    H133893   1.572   2.800  13.319  0.3041  0.2154  0.2799
 4134TIP3    H233894   1.456   2.819  13.414  0.1974  1.2041 -0.0337
 4135TIP3   OH233895   2.903   4.996  15.420 -0.6716 -0.1256  0.3689
 4135TIP3    H133896   2.858   5.073  15.454 -1.4939  0.0306 -1.0219
 4135TIP3    H233897   2.879   4.926  15.481 -2.4391  0.0608 -0.0673
 4136TIP3   OH233898   4.390   3.514  12.313 -0.2576 -0.6927 -0.0919
 4136TIP3    H133899   4.430   3.589  12.357 -1.8108 -0.6392  1.3313
 4136TIP3    H233900   4.461   3.451  12.303  0.6863  0.2912  0.2523
 4137TIP3   OH233901   1.237   4.114   5.698  0.5388 -0.1521 -0.0445
 4137TIP3    H133902   1.198   4.068   5.773  0.5852  0.3688  0.2993
 4137TIP3    H233903   1.272   4.195   5.734  0.8307 -0.0329 -0.5782
 4138TIP3   OH233904   3.878   2.095   0.994  0.0218  0.1410  0.1193
 4138TIP3    H133905   3.913   2.007   0.978  0.4963  0.2177  0.6917
 4138TIP3    H233906   3.822   2.085   1.071 -0.0544  0.3028  0.0849
 4139TIP3   OH233907   4.977   2.631  16.779 -0.1561  0.4600  0.0875
 4139TIP3    H133908   5.004   2.677  16.859  0.0615  0.3666  0.0666
 4139TIP3    H233909   4.939   2.549  16.811  2.7503 -1.0409 -0.0259
 4140TIP3   OH233910   5.568   0.082   0.339 -0.5439 -0.0023  0.0204
 4140TIP3    H133911   5.613   0.070   0.422  0.0806 -0.2539 -0.3480
 4140TIP3    H233912   5.559  -0.006   0.302  1.0787  0.2781 -1.1436
 4141TIP3   OH233913   4.530   6.317   3.582  0.3817 -0.1355  0.3062
 4141TIP3    H133914   4.498   6.269   3.506  2.5244  0.7722 -1.2911
 4141TIP3    H233915   4.470   6.295   3.653 -0.9004 -2.0946 -1.3096
 4142TIP3   OH233916   6.289   2.417  14.576  0.1454  0.0079 -0.3889
 4142TIP3    H133917   6.295   2.426  14.671 -0.2088 -1.5676 -0.1859
 4142TIP3    H233918   6.277   2.506  14.544  0.8076  0.6246  0.9918
 4143TIP3   OH233919   2.640   1.427  10.129  0.1967 -0.0869  0.7512
 4143TIP3    H133920   2.676   1.339  10.120 -0.9727 -0.5838  0.7691
 4143TIP3    H233921   2.651   1.448  10.221  0.8662 -0.0301  0.6649
 4144TIP3   OH233922   6.273   4.939   2.810 -0.3228 -0.4483  0.1699
 4144TIP3    H133923   6.295   4.923   2.718 -1.2705 -0.3930 -0.0696
 4144TIP3    H233924   6.350   4.985   2.845 -0.7049  1.2339 -1.0781
 4145TIP3   OH233925   4.251   6.506  16.068 -0.3181  0.0582  0.1818
 4145TIP3    H133926   4.338   6.469  16.053 -0.8509 -1.3717  0.5044
 4145TIP3    H233927   4.259   6.598  16.042  0.8798 -0.4140 -1.2469
 4146TIP3   OH233928   3.767   0.266   3.289  0.0054  0.5078  0.0970
 4146TIP3    H133929   3.729   0.309   3.366 -0.1806  1.0726 -0.3059
 4146TIP3    H233930   3.713   0.188   3.276 -0.0986  0.5252  0.4124
 4147TIP3   OH233931   2.109   4.638   2.985 -0.0973 -0.7913  0.3286
 4147TIP3    H133932   2.040   4.699   2.961  1.3591  0.9868  0.4043
 4147TIP3    H233933   2.075   4.552   2.961 -1.2289  0.2616 -2.1710
 4148TIP3   OH233934   5.881   6.571  12.099 -0.3906 -0.0058 -0.1975
 4148TIP3    H133935   5.840   6.496  12.142 -3.1492  0.2903 -2.0843
 4148TIP3    H233936   5.913   6.536  12.016 -0.7148  0.6694 -0.6101
 4149TIP3   OH233937   0.092   2.707   2.641  0.1671  0.7429  0.7436
 4149TIP3    H133938   0.083   2.759   2.561  0.2281  0.8474  0.8050
 4149TIP3    H233939   0.032   2.633   2.628  0.9010  0.2306  0.1849
 4150TIP3   OH233940   5.434   2.868   1.194 -0.3738  0.0796  0.1687
 4150TIP3    H133941   5.485   2.879   1.274  0.3012 -1.4410 -0.0031
 4150TIP3    H233942   5.492   2.817   1.137 -0.7203  1.3805 -1.4154
 4151TIP3   OH233943   2.958   0.014   2.475  0.5323  0.6041  0.4912
 4151TIP3    H133944   2.915  -0.046   2.414  0.3523 -0.0493  1.2384
 4151TIP3    H233945   3.051   0.004   2.457  0.6276 -1.1524  1.6801
 4152TIP3   OH233946   2.854   1.454  15.063 -0.0572  0.1762  0.2491
 4152TIP3    H133947   2.834   1.420  14.976  1.9977  0.5816 -0.4512
 4152TIP3    H233948   2.780   1.428  15.117 -1.0425 -0.7273 -1.4477
 4153TIP3   OH233949   5.673   4.791  11.782 -0.1930 -0.2631  0.1739
 4153TIP3    H133950   5.647   4.702  11.758  0.3382 -0.4875  0.4002
 4153TIP3    H233951   5.726   4.780  11.862 -0.9579  0.3524  0.7810
 4154TIP3   OH233952   4.536   6.120  15.629 -0.0481 -0.3779  0.0570
 4154TIP3    H133953   4.473   6.133  15.559 -0.6591 -2.4278  0.1735
 4154TIP3    H233954   4.602   6.188  15.615 -1.4637  0.8246 -0.9863
 4155TIP3   OH233955   0.365   5.499  11.717  0.0030 -0.4070 -0.1404
 4155TIP3    H133956   0.291   5.533  11.769  0.6806 -1.8417  1.9047
 4155TIP3    H233957   0.323   5.446  11.649 -0.9212 -1.8336  1.4490
 4156TIP3   OH233958   2.590   4.530   4.760 -0.9979  0.3134  0.1956
 4156TIP3    H133959   2.661   4.493   4.813  1.1331  1.3015 -1.8031
 4156TIP3    H233960   2.562   4.608   4.809  1.1215  1.3696 -0.1589
 4157TIP3   OH233961   5.569   4.110   5.856 -0.3515 -0.1292 -0.7603
 4157TIP3    H133962   5.654   4.113   5.900 -0.4497 -0.2589 -0.5614
 4157TIP3    H233963   5.507   4.082   5.924 -0.4966 -0.3762 -0.9938
 4158TIP3   OH233964   4.400   2.194  16.726  0.0008  0.4142 -0.1728
 4158TIP3    H133965   4.438   2.129  16.785 -1.1063 -0.5530 -0.4661
 4158TIP3    H233966   4.414   2.158  16.639 -2.1566 -0.3778 -0.2644
 4159TIP3   OH233967   1.528   2.314  13.307  0.0017 -0.0043  0.1616
 4159TIP3    H133968   1.607   2.280  13.264  0.3847  1.2251 -0.1321
 4159TIP3    H233969   1.522   2.263  13.389  0.9575 -0.2785  0.0722
 4160TIP3   OH233970   1.044   0.038   6.139 -0.4878 -0.4467  0.1931
 4160TIP3    H133971   1.066   0.013   6.049  0.3719 -0.0589  0.2873
 4160TIP3    H233972   1.022  -0.045   6.182  0.6966 -0.8588  0.0525
 4161TIP3   OH233973   2.108   2.899   1.461 -0.1854  0.5390 -0.0730
 4161TIP3    H133974   2.020   2.936   1.461 -0.7136 -0.6874  0.5509
 4161TIP3    H233975   2.097   2.807   1.486  1.2089  0.2145 -0.5169
 4162TIP3   OH233976   0.949   3.774  14.950 -0.6730  0.1277  0.1427
 4162TIP3    H133977   0.927   3.683  14.927  1.8619 -0.4944 -0.1159
 4162TIP3    H233978   0.944   3.822  14.867  0.4532 -0.3655 -0.2369
 4163TIP3   OH233979   3.096   0.562   5.064  0.3810 -0.7819 -0.2513
 4163TIP3    H133980   3.005   0.594   5.067  0.3072 -1.0624  0.4956
 4163TIP3    H233981   3.087   0.468   5.046  0.5258 -0.8065 -0.1900
 4164TIP3   OH233982   2.856   5.769   1.182  0.0729  0.3528 -0.1109
 4164TIP3    H133983   2.903   5.837   1.133  0.1649 -0.3661 -1.0591
 4164TIP3    H233984   2.925   5.718   1.224  0.0943 -0.1109 -0.7023
 4165TIP3   OH233985   2.169   1.417   5.491  0.2055  0.5970  0.3990
 4165TIP3    H133986   2.122   1.453   5.567  0.2792  0.7563  0.3676
 4165TIP3    H233987   2.123   1.453   5.415  0.6790  1.1373  0.3688
 4166TIP3   OH233988   1.526   0.893   1.036  0.0442  0.2469 -0.1159
 4166TIP3    H133989   1.606   0.855   1.071 -0.6966 -0.9479  0.3236
 4166TIP3    H233990   1.539   0.894   0.941  0.9132  0.8827 -0.0085
 4167TIP3   OH233991   2.827   2.330  10.466 -0.1362 -0.3748  0.5085
 4167TIP3    H133992   2.830   2.319  10.561  3.0004  1.2980  0.7457
 4167TIP3    H233993   2.894   2.271  10.433  0.7827  1.0520 -0.3091
 4168TIP3   OH233994   1.297   5.352  13.886 -0.0673  0.2201 -0.2216
 4168TIP3    H133995   1.360   5.284  13.909  0.5721  0.9733  0.2980
 4168TIP3    H233996   1.261   5.324  13.802  1.2517 -0.0362 -0.7249
 4169TIP3   OH233997   0.924   1.234  12.567 -0.1334 -0.4423 -0.2915
 4169TIP3    H133998   0.886   1.174  12.503  0.0573 -0.8490 -0.0289
 4169TIP3    H233999   0.849   1.276  12.608 -0.3037 -1.2062  0.1891
 4170TIP3   OH234000   6.086   3.514   1.233  1.2127 -0.0186  0.0804
 4170TIP3    H134001   6.121   3.597   1.201  0.9066  0.0083 -0.1934
 4170TIP3    H234002   6.001   3.507   1.191  0.6422  0.1834  1.1753
 4171TIP3   OH234003   5.276   2.594  12.301  0.4251  0.7120 -0.4605
 4171TIP3    H134004   5.348   2.598  12.239 -0.5696  0.3694 -1.6754
 4171TIP3    H234005   5.296   2.662  12.365  0.9077  1.8495 -1.7793
 4172TIP3   OH234006   2.488   4.295  15.116 -0.4529  0.0745 -0.2183
 4172TIP3    H134007   2.535   4.290  15.033  1.0831  2.1495  0.4466
 4172TIP3    H234008   2.472   4.389  15.129 -3.3039 -0.4016  0.4587
 4173TIP3   OH234009   6.659   4.179   5.834 -0.1349 -0.4340  0.4430
 4173TIP3    H134010   6.721   4.246   5.805 -0.8596  0.1292  0.1605
 4173TIP3    H234011   6.621   4.215   5.914 -0.7368 -0.3774  0.1343
 4174TIP3   OH234012   2.991   2.663  12.027  0.2345 -0.0790  0.4784
 4174TIP3    H134013   2.969   2.592  12.087 -1.7599 -0.5280 -0.6981
 4174TIP3    H234014   2.934   2.735  12.052 -0.3999 -0.1643 -0.6281
 4175TIP3   OH234015   2.245   3.337  13.246 -0.2981 -0.5170  0.0499
 4175TIP3    H134016   2.238   3.252  13.202  0.0583 -1.7905  2.2854
 4175TIP3    H234017   2.196   3.327  13.327  2.0631  0.3989  1.7292
 4176TIP3   OH234018   1.143   4.528   5.990 -0.0675  0.5850 -0.4935
 4176TIP3    H134019   1.098   4.455   6.030  1.4149 -1.2628 -1.9756
 4176TIP3    H234020   1.233   4.522   6.022  0.0158  1.9594 -0.4040
 4177TIP3   OH234021   5.849   5.685   3.379 -0.1283 -0.1810 -0.0055
 4177TIP3    H134022   5.869   5.627   3.305  0.8696 -2.8915  2.2172
 4177TIP3    H234023   5.771   5.733   3.351 -2.0433 -3.7835 -1.4595
 4178TIP3   OH234024   5.040   4.254  15.743  0.3009  0.6950 -0.1161
 4178TIP3    H134025   4.955   4.262  15.787  0.5957  1.4012  0.3356
 4178TIP3    H234026   5.101   4.230  15.812  0.2796 -1.0060 -0.6419
 4179TIP3   OH234027   1.301   2.793  13.235 -0.4590 -0.1560 -0.1496
 4179TIP3    H134028   1.215   2.753  13.226 -0.0515 -0.7501 -1.8773
 4179TIP3    H234029   1.363   2.723  13.214  0.4024  0.5403 -0.0332
 4180TIP3   OH234030   1.045   5.613   0.620 -0.0077  0.2040 -0.7017
 4180TIP3    H134031   0.955   5.619   0.652  0.7691 -0.9670  2.0370
 4180TIP3    H234032   1.092   5.681   0.670  1.0550 -0.8929 -0.1556
 4181TIP3   OH234033   6.122   6.590  11.395 -0.2404 -0.3268 -0.0634
 4181TIP3    H134034   6.042   6.642  11.395 -1.2340 -1.7029  2.0039
 4181TIP3    H234035   6.185   6.642  11.444  0.5821  1.2278 -2.5612
 4182TIP3   OH234036   3.929   1.355   5.257  0.2866 -0.1891  0.7767
 4182TIP3    H134037   3.867   1.283   5.242  1.6391 -1.0854 -0.8414
 4182TIP3    H234038   3.873   1.430   5.276 -1.2983 -1.0442 -0.2402
 4183TIP3   OH234039   4.848   5.504   1.461  0.1899  0.9163 -0.0097
 4183TIP3    H134040   4.793   5.446   1.408 -1.2557  0.8471  1.4894
 4183TIP3    H234041   4.917   5.447   1.495  0.8327  0.8557 -1.3615
 4184TIP3   OH234042   6.552   5.257   5.133  0.4428 -0.2163  0.4286
 4184TIP3    H134043   6.484   5.206   5.176  0.4879  0.3638  1.2180
 4184TIP3    H234044   6.507   5.335   5.102  0.5514 -0.3071  0.0374
 4185TIP3   OH234045   4.699   4.606   5.860 -0.3010 -0.0034 -0.3405
 4185TIP3    H134046   4.629   4.598   5.925 -0.6791 -2.9215 -0.9882
 4185TIP3    H234047   4.772   4.554   5.896  0.5021  0.6500 -0.9716
 4186TIP3   OH234048   3.401   1.501  13.020 -0.0974  0.5140  0.9276
 4186TIP3    H134049   3.437   1.576  13.066 -0.6908  2.1847 -1.1876
 4186TIP3    H234050   3.439   1.505  12.933 -1.6063 -0.5051  0.1742
 4187TIP3   OH234051   3.490   3.473  11.438  0.4107  0.0100 -0.3075
 4187TIP3    H134052   3.543   3.538  11.392  0.8654 -1.1480 -1.5005
 4187TIP3    H234053   3.424   3.446  11.374 -0.6368  0.2821  0.6374
 4188TIP3   OH234054   4.220   5.673   2.678  0.6355 -0.0941 -0.2855
 4188TIP3    H134055   4.261   5.596   2.639  2.0956  0.2286  0.5437
 4188TIP3    H234056   4.278   5.746   2.656  0.9724  0.2528  1.5446
 4189TIP3   OH234057   0.583   0.928  16.206  0.5310  0.2388 -0.1692
 4189TIP3    H134058   0.547   0.856  16.257  2.9360 -0.8520  0.1009
 4189TIP3    H234059   0.635   0.979  16.268 -1.4458  2.5485 -0.2477
 4190TIP3   OH234060   6.413   2.029   3.738  0.2386  0.7632 -0.4453
 4190TIP3    H134061   6.416   1.935   3.720  1.5704  1.0492 -1.9438
 4190TIP3    H234062   6.499   2.061   3.712  0.3110  2.1997  1.3987
 4191TIP3   OH234063   1.126   3.543  11.718  0.5666  0.5494  0.7002
 4191TIP3    H134064   1.170   3.627  11.704  0.0198  0.4443 -2.0272
 4191TIP3    H234065   1.051   3.545  11.660 -0.5981 -1.0709  2.0569
 4192TIP3   OH234066   4.794   4.107  13.360  0.4466  0.2597 -0.0964
 4192TIP3    H134067   4.780   4.191  13.404  1.7221 -0.1121  1.0865
 4192TIP3    H234068   4.878   4.076  13.393  0.9729 -0.5416 -2.0668
 4193TIP3   OH234069   3.934   5.428   3.099 -0.3458 -0.1176  0.2308
 4193TIP3    H134070   3.886   5.393   3.024 -0.3607 -0.6806  0.4941
 4193TIP3    H234071   4.025   5.430   3.071 -0.5622  1.4944 -0.4749
 4194TIP3   OH234072   0.484   6.183   1.375 -0.3906 -0.9404 -0.1643
 4194TIP3    H134073   0.564   6.210   1.421  0.4782 -0.2845 -1.9665
 4194TIP3    H234074   0.421   6.253   1.391  0.7083  0.5349 -1.9056
 4195TIP3   OH234075   5.426   1.698   1.375 -0.0006 -0.8641 -0.3005
 4195TIP3    H134076   5.442   1.639   1.448  0.8751 -0.1074  0.1400
 4195TIP3    H234077   5.485   1.772   1.390 -3.0928  1.6441  0.8436
 4196TIP3   OH234078   5.522   5.064   3.387  0.2076  0.1218  0.3231
 4196TIP3    H134079   5.478   4.980   3.375 -0.2641  0.6090 -1.6188
 4196TIP3    H234080   5.600   5.060   3.331  1.5059  0.1106  2.0393
 4197TIP3   OH234081   1.215   4.781   3.462 -0.2043  0.2864 -0.2457
 4197TIP3    H134082   1.157   4.706   3.450  0.0369  0.1740 -0.7246
 4197TIP3    H234083   1.172   4.852   3.414 -0.0803  0.2736 -0.3753
 4198TIP3   OH234084   3.074   1.198  11.772  0.0763 -0.2057 -0.4374
 4198TIP3    H134085   3.016   1.227  11.702 -0.1440 -1.3293 -0.7483
 4198TIP3    H234086   3.155   1.246  11.758 -0.8981  1.7401  0.2786
 4199TIP3   OH234087   0.698   0.895  15.960 -0.0282  0.7661  0.0509
 4199TIP3    H134088   0.654   0.892  16.045 -0.9510  1.0095 -0.4062
 4199TIP3    H234089   0.718   0.987  15.947  1.5502  0.5421  0.7051
 4200TIP3   OH234090   4.363   2.312  14.386 -0.2934 -0.1613 -0.4003
 4200TIP3    H134091   4.394   2.383  14.442 -0.3899 -0.1758 -0.3288
 4200TIP3    H234092   4.277   2.340  14.355  0.1773  0.3005 -1.3510
 4201TIP3   OH234093   1.910   0.056   6.100 -0.3908  0.1704 -0.1106
 4201TIP3    H134094   1.838   0.113   6.072 -1.5241 -1.3935 -0.5080
 4201TIP3    H234095   1.935   0.008   6.021  0.0060 -0.4481  0.3804
 4202TIP3   OH234096   4.991   6.727  16.413  0.2855 -0.0782  0.2411
 4202TIP3    H134097   4.958   6.659  16.354  0.6132 -0.7625  0.8233
 4202TIP3    H234098   4.914   6.762  16.456  0.0828  0.1457 -0.3062
 4203TIP3   OH234099   3.502   0.496   4.600  0.1368 -1.0819 -0.1506
 4203TIP3    H134100   3.554   0.523   4.525 -0.5968  0.0480 -0.2770
 4203TIP3    H234101   3.549   0.529   4.676  0.5537 -1.6802 -0.1426
 4204TIP3   OH234102   4.104   1.540  12.926  0.6048  0.3690  0.6181
 4204TIP3    H134103   4.014   1.570  12.942 -1.0976 -1.1974 -4.1619
 4204TIP3    H234104   4.146   1.615  12.884  0.2959 -0.0103 -0.3961
 4205TIP3   OH234105   0.612   3.606   0.111  0.1614 -0.1748  0.2167
 4205TIP3    H134106   0.535   3.615   0.168  0.7777  0.4962  0.9666
 4205TIP3    H234107   0.624   3.512   0.102 -1.1029 -0.3032 -0.4041
 4206TIP3   OH234108   2.877   2.697   1.726  0.1524  0.2483 -0.0506
 4206TIP3    H134109   2.877   2.792   1.740  0.8651  0.4077 -0.9689
 4206TIP3    H234110   2.959   2.680   1.679  0.6311 -0.9969  1.1494
 4207TIP3   OH234111   4.966   6.512   3.545  0.1894  0.0307 -0.1181
 4207TIP3    H134112   4.962   6.510   3.641  1.1528 -4.2970  0.0445
 4207TIP3    H234113   4.882   6.548   3.518  0.1246  1.9405  2.2890
 4208TIP3   OH234114   1.244   5.771  15.468  0.6815  0.4234 -0.1619
 4208TIP3    H134115   1.185   5.834  15.426 -1.0626 -1.1451 -0.2309
 4208TIP3    H234116   1.250   5.800  15.559  2.0541  2.1466 -0.7658
 4209TIP3   OH234117   1.747   5.854  12.563  0.3000  0.3051  0.0472
 4209TIP3    H134118   1.704   5.939  12.554 -0.9776 -0.1460  1.5505
 4209TIP3    H234119   1.832   5.866  12.520 -0.9385  1.4773 -2.2462
 4210TIP3   OH234120   4.171   3.202  11.120  0.5079 -0.2820  0.1606
 4210TIP3    H134121   4.110   3.131  11.102  0.3892  0.2744 -1.8636
 4210TIP3    H234122   4.240   3.192  11.054  2.0921 -0.2666  1.7172
 4211TIP3   OH234123   4.712   2.443  15.193 -0.2065  1.1709  0.3124
 4211TIP3    H134124   4.693   2.397  15.112 -2.8163  1.5495  0.6214
 4211TIP3    H234125   4.678   2.386  15.262  1.4003  1.1376  1.1137
 4212TIP3   OH234126   1.705   4.954  14.144  0.4158  0.0497 -0.1048
 4212TIP3    H134127   1.653   4.882  14.179 -0.3182  0.9981  0.8077
 4212TIP3    H234128   1.689   4.952  14.050  1.8840 -2.1284 -0.3916
 4213TIP3   OH234129   6.770   0.765  12.376  0.1637 -0.3879  0.1229
 4213TIP3    H134130   6.691   0.738  12.329  0.6382 -3.2509  0.7780
 4213TIP3    H234131   6.802   0.841  12.328  0.0545 -2.4796 -3.6757
 4214TIP3   OH234132   0.144   0.659  12.597  0.4024 -0.0604  0.2157
 4214TIP3    H134133   0.083   0.602  12.645 -0.7879  1.1367  0.2142
 4214TIP3    H234134   0.102   0.672  12.512 -0.2479  2.0897  0.7802
 4215TIP3   OH234135   5.521   6.359   6.657  0.2116 -0.2814  0.4602
 4215TIP3    H134136   5.486   6.445   6.630  0.5253 -0.1805  0.3720
 4215TIP3    H234137   5.447   6.300   6.648  0.0179 -0.0365  0.4240
 4216TIP3   OH234138   1.885   5.290  13.210  1.0590  0.1153 -0.3051
 4216TIP3    H134139   1.912   5.381  13.197 -2.8041  1.5022  0.0964
 4216TIP3    H234140   1.827   5.272  13.136  2.5187 -2.4808 -0.9368
 4217TIP3   OH234141   1.369   3.511  11.946 -0.4829 -1.2247  0.6921
 4217TIP3    H134142   1.399   3.592  11.906 -1.8580 -1.7578 -1.5916
 4217TIP3    H234143   1.448   3.470  11.982  0.7467 -0.4152 -1.0052
 4218TIP3   OH234144   5.430   6.554  15.914  0.0043  0.1623  0.2743
 4218TIP3    H134145   5.353   6.597  15.877  1.0710  1.2309 -0.7644
 4218TIP3    H234146   5.474   6.621  15.966 -0.0677 -0.6136  1.3904
 4219TIP3   OH234147   0.012   5.465   2.988  0.2336 -0.0482  0.2549
 4219TIP3    H134148   0.106   5.481   2.991  0.4957 -1.1612 -1.1083
 4219TIP3    H234149  -0.016   5.467   3.080  1.3392  1.5056  0.6051
 4220TIP3   OH234150   2.352   1.215  12.903  0.0526 -0.4333 -0.7329
 4220TIP3    H134151   2.351   1.184  12.993  0.3766  0.2325 -0.4920
 4220TIP3    H234152   2.264   1.196  12.870  0.0964 -1.1464 -0.4471
 4221TIP3   OH234153   5.548   4.206   4.429 -0.5705 -0.1155 -0.4265
 4221TIP3    H134154   5.576   4.263   4.357  0.2458  1.8133  1.3323
 4221TIP3    H234155   5.625   4.154   4.450 -0.0702  0.9739  0.5274
 4222TIP3   OH234156   4.660   3.312   1.298 -0.0406  0.0675  0.1446
 4222TIP3    H134157   4.698   3.379   1.241 -1.0293  0.8611  0.3859
 4222TIP3    H234158   4.609   3.257   1.239 -1.7363  1.3721  0.3066
 4223TIP3   OH234159   5.725   5.941   3.386 -0.2009  0.6310 -0.2252
 4223TIP3    H134160   5.705   6.023   3.341  1.4950  1.4899  0.4801
 4223TIP3    H234161   5.816   5.951   3.415 -0.4514 -0.8612  1.2597
 4224TIP3   OH234162   4.561   1.137   1.444  0.0734 -0.2406  0.2217
 4224TIP3    H134163   4.515   1.157   1.525  2.7642 -0.9614  2.0747
 4224TIP3    H234164   4.576   1.042   1.449  0.6218 -0.2283 -0.9454
 4225TIP3   OH234165   1.060   1.493   5.944  0.1776  0.0067 -0.3349
 4225TIP3    H134166   1.053   1.401   5.920 -1.8437  0.0776 -0.2427
 4225TIP3    H234167   0.988   1.508   6.005 -1.2990  2.1967 -2.3798
 4226TIP3   OH234168   5.516   3.645   6.158  0.6683  0.0449  0.0293
 4226TIP3    H134169   5.562   3.668   6.078  0.8111  1.8881  0.6086
 4226TIP3    H234170   5.520   3.549   6.161  1.7176  0.0098 -1.5208
 4227TIP3   OH234171   0.874   3.770   0.507  0.4106  0.6243 -0.4083
 4227TIP3    H134172   0.783   3.796   0.523  1.0608  2.1685  1.0120
 4227TIP3    H234173   0.922   3.803   0.582  2.1597 -0.2327 -1.1016
 4228TIP3   OH234174   3.950   0.853   5.330 -0.3999 -0.2685  0.2535
 4228TIP3    H134175   3.856   0.868   5.332 -1.1412 -3.7070 -1.7097
 4228TIP3    H234176   3.976   0.869   5.239  1.0492  0.9535  0.8312
 4229TIP3   OH234177   2.279   5.048  15.408  0.4131  0.1792  0.0110
 4229TIP3    H134178   2.241   4.987  15.472  2.6639 -0.3043  0.9733
 4229TIP3    H234179   2.251   5.134  15.438  1.4258 -0.0354  1.7186
 4230TIP3   OH234180   5.204   0.584  12.769  0.1709 -0.0777 -0.0115
 4230TIP3    H134181   5.288   0.622  12.794  1.1644 -1.7673 -0.6277
 4230TIP3    H234182   5.173   0.540  12.848 -1.0202  1.9098  0.7272
 4231TIP3   OH234183   3.462   1.098   4.509 -0.0569  0.5988  0.0563
 4231TIP3    H134184   3.524   1.116   4.439 -0.7047  1.2341 -0.3631
 4231TIP3    H234185   3.504   1.134   4.588  1.2992 -1.3348  0.2929
 4232TIP3   OH234186   4.498   5.291   4.332 -0.0514  0.6443  0.4097
 4232TIP3    H134187   4.556   5.244   4.392  0.0715  0.6722  0.3122
 4232TIP3    H234188   4.414   5.247   4.341 -0.1587  0.9537  0.9711
 4233TIP3   OH234189   1.457   1.737   2.403 -0.4553  0.3824  0.1220
 4233TIP3    H134190   1.393   1.684   2.453  0.6574 -0.5382  0.6187
 4233TIP3    H234191   1.505   1.785   2.470  0.7664 -0.5352 -0.0573
 4234TIP3   OH234192   6.711   2.439  13.898 -0.2070  0.2477 -0.4081
 4234TIP3    H134193   6.674   2.483  13.974  0.5127 -0.9028  0.6407
 4234TIP3    H234194   6.637   2.430  13.838 -0.3837  2.7847 -0.6653
 4235TIP3   OH234195   2.958   0.558   2.238  0.1088  0.4676  0.2270
 4235TIP3    H134196   3.028   0.586   2.298 -1.2958 -0.2229  2.3068
 4235TIP3    H234197   2.947   0.465   2.257 -1.0571  0.4626 -0.4222
 4236TIP3   OH234198   3.490   2.140   1.798 -0.0060 -0.1891 -0.5961
 4236TIP3    H134199   3.476   2.097   1.713 -0.2632  0.4374 -0.8786
 4236TIP3    H234200   3.404   2.173   1.822 -0.1283 -1.1428  0.3598
 4237TIP3   OH234201   1.923   2.722  13.650  0.0634 -0.0138 -0.2213
 4237TIP3    H134202   1.853   2.771  13.607 -0.6835 -0.8596  0.0058
 4237TIP3    H234203   1.924   2.756  13.740 -0.5711 -0.5346 -0.0151
 4238TIP3   OH234204   4.044   2.379  13.422 -0.4864  0.0030 -0.3310
 4238TIP3    H134205   3.975   2.319  13.450 -0.8279  0.2853 -0.5550
 4238TIP3    H234206   4.086   2.407  13.503 -1.3578  0.6893 -0.0960
 4239TIP3   OH234207   4.710   3.072  10.939  0.6788 -0.2657 -0.1932
 4239TIP3    H134208   4.625   3.060  10.897  1.0608  0.8795 -1.3689
 4239TIP3    H234209   4.760   2.993  10.915 -0.2420 -1.2597  1.0690
 4240TIP3   OH234210   4.682   4.675   2.199 -0.0818  0.0677  0.0681
 4240TIP3    H134211   4.772   4.663   2.168  0.6416  0.6407  1.8484
 4240TIP3    H234212   4.673   4.614   2.272 -0.1559  1.9776  1.7490
 4241TIP3   OH234213   5.870   0.161  14.115 -0.0167  0.4882  0.0890
 4241TIP3    H134214   5.875   0.252  14.146  1.2186  0.3743  0.2637
 4241TIP3    H234215   5.954   0.145  14.073 -0.0186 -0.7448  0.5240
 4242TIP3   OH234216   5.080   5.807   4.302  0.3077  0.0279  0.4132
 4242TIP3    H134217   5.121   5.738   4.355  0.4739 -0.1281  0.0866
 4242TIP3    H234218   5.016   5.761   4.248 -0.2928  0.2699  0.9047
 4243TIP3   OH234219   0.860   4.086  11.478 -0.7196  0.5311  0.9675
 4243TIP3    H134220   0.856   4.181  11.466 -1.1007  0.6833  2.1723
 4243TIP3    H234221   0.886   4.074  11.569  0.8111 -0.5495  0.4270
 4244TIP3   OH234222   4.874   1.037  10.982  0.5625  0.1739 -0.3351
 4244TIP3    H134223   4.818   1.095  10.930  1.1032  1.1115  0.1006
 4244TIP3    H234224   4.904   0.970  10.919  2.0199  1.8607 -1.5386
 4245TIP3   OH234225   6.781   6.334  15.755 -0.1175  0.6975  0.3901
 4245TIP3    H134226   6.776   6.273  15.682  0.5612  0.0890  0.8372
 4245TIP3    H234227   6.875   6.342  15.774 -0.2168  1.5787  0.5920
 4246TIP3   OH234228   2.864   2.599   3.229 -0.7425  0.2701  0.1664
 4246TIP3    H134229   2.816   2.552   3.160  0.2433 -1.3373  0.5275
 4246TIP3    H234230   2.862   2.539   3.304  1.5940  0.2509  0.2628
 4247TIP3   OH234231   4.766   0.434  14.457 -0.4328  0.3295 -0.1718
 4247TIP3    H134232   4.818   0.514  14.453  1.8198 -1.1009 -1.0356
 4247TIP3    H234233   4.801   0.386  14.532 -0.7020 -0.5272 -0.5825
 4248TIP3   OH234234   1.270   5.093   1.095 -0.3451 -0.3400  0.0749
 4248TIP3    H134235   1.232   5.083   1.008  0.7119 -1.2759 -0.3123
 4248TIP3    H234236   1.351   5.040   1.092 -0.1394 -0.1562  1.5251
 4249TIP3   OH234237   0.549   5.776  12.230  0.1816  0.2585 -0.0874
 4249TIP3    H134238   0.637   5.801  12.201  0.1447  3.3092  2.0159
 4249TIP3    H234239   0.493   5.850  12.204 -1.0525  0.0204  1.7171
 4250TIP3   OH234240   6.091   6.028  14.588 -0.3255 -0.4451  0.1936
 4250TIP3    H134241   6.102   6.050  14.495 -1.7033  0.1103  0.1332
 4250TIP3    H234242   6.038   5.949  14.587 -1.5188  0.3229  0.5012
 4251TIP3   OH234243   3.468   2.381   4.285 -0.4382  0.0551  0.0931
 4251TIP3    H134244   3.552   2.338   4.276  0.0131  1.0110 -0.3819
 4251TIP3    H234245   3.456   2.391   4.380 -1.3242 -2.5237  0.3442
 4252TIP3   OH234246   6.076   6.038   2.937  0.0693  0.0928  0.1776
 4252TIP3    H134247   6.071   6.004   2.847 -1.5044  3.1107 -1.0346
 4252TIP3    H234248   5.987   6.029   2.971 -0.2229  2.0645  0.0728
 4253TIP3   OH234249   5.808   1.178   2.223  0.8028  0.5056 -0.4041
 4253TIP3    H134250   5.827   1.260   2.269  1.8144  0.7365 -1.1985
 4253TIP3    H234251   5.886   1.124   2.237  0.5703  0.0747 -0.7438
 4254TIP3   OH234252   2.749   5.901  15.605 -0.8899 -0.8109 -0.2378
 4254TIP3    H134253   2.809   5.974  15.621 -3.6148  1.5069  0.1799
 4254TIP3    H234254   2.747   5.894  15.510  0.1927 -1.1093 -0.2607
 4255TIP3   OH234255   1.285   1.486  16.069 -0.3413  0.1212 -0.2596
 4255TIP3    H134256   1.214   1.519  16.124 -0.1841  0.5142 -0.2896
 4255TIP3    H234257   1.270   1.392  16.065 -1.3300  0.2870 -0.9064
 4256TIP3   OH234258   2.280   4.035   4.210 -0.1237 -0.2907 -0.0240
 4256TIP3    H134259   2.194   4.019   4.172  0.6180 -0.3671 -1.7624
 4256TIP3    H234260   2.307   3.950   4.247  0.3892 -1.0535 -2.0407
 4257TIP3   OH234261   4.311   2.952   5.774 -0.0809 -0.1698  0.4082
 4257TIP3    H134262   4.381   2.898   5.811 -0.0294 -0.0165  0.5364
 4257TIP3    H234263   4.351   3.038   5.762 -0.1309 -0.1885  0.1049
 4258TIP3   OH234264   0.957   2.713  13.157  0.3818 -0.0480 -0.0718
 4258TIP3    H134265   0.925   2.759  13.080  1.9152  0.0803 -0.6648
 4258TIP3    H234266   0.953   2.779  13.227 -0.3785  0.0368 -0.1928
 4259TIP3   OH234267   6.821   5.206   4.972 -0.5326 -0.0454 -0.4933
 4259TIP3    H134268   6.850   5.116   4.985  0.9416  0.1480 -2.0618
 4259TIP3    H234269   6.743   5.214   5.027  0.3563 -1.6997  1.1447
 4260TIP3   OH234270   2.010   5.054  16.606  0.5284 -0.8085 -0.6816
 4260TIP3    H134271   2.085   5.005  16.639  0.2015 -1.5915 -1.0900
 4260TIP3    H234272   2.047   5.138  16.579  0.8952 -0.2904  1.2198
 4261TIP3   OH234273   2.337   6.056  15.497  0.1594 -0.6485  0.4161
 4261TIP3    H134274   2.363   5.969  15.528  0.3410 -0.5718  0.4852
 4261TIP3    H234275   2.292   6.095  15.572 -0.1125 -0.7635  0.3122
 4262TIP3   OH234276   2.216   2.357  16.265  0.4141 -0.2537  0.6089
 4262TIP3    H134277   2.226   2.344  16.359  1.1066  0.3127  0.6283
 4262TIP3    H234278   2.257   2.442  16.249  1.3101 -0.8587 -0.3789
 4263TIP3   OH234279   6.440   2.413  16.771  0.1732  0.5052  0.4240
 4263TIP3    H134280   6.401   2.360  16.840 -0.7489 -0.1883 -0.5910
 4263TIP3    H234281   6.370   2.472  16.743  0.5382  0.7826  0.0741
 4264TIP3   OH234282   4.809   3.724   3.713 -0.2743 -0.3452  0.0158
 4264TIP3    H134283   4.837   3.772   3.791 -0.4996  0.6108 -0.4755
 4264TIP3    H234284   4.868   3.649   3.708 -1.3639 -1.3862  2.0752
 4265TIP3   OH234285   0.104   5.905  17.217  0.2891 -0.1020 -0.3012
 4265TIP3    H134286   0.149   5.986  17.192 -0.2561  0.2105 -0.2909
 4265TIP3    H234287   0.165   5.861  17.276  0.5802  0.3101 -0.2869
 4266TIP3   OH234288   6.696   5.801   3.969 -0.1766  0.6340  0.0482
 4266TIP3    H134289   6.737   5.882   3.938  0.2644  0.6665  0.6894
 4266TIP3    H234290   6.680   5.816   4.062  2.0665 -0.8461  0.7616
 4267TIP3   OH234291   0.714   4.992   4.518  0.3993 -0.0612  0.5863
 4267TIP3    H134292   0.722   4.932   4.592  1.6072 -2.5904 -1.4372
 4267TIP3    H234293   0.620   5.005   4.507  0.1540 -0.8807  1.6316
 4268TIP3   OH234294   5.653   6.240   1.427  0.1114  0.3822 -0.9391
 4268TIP3    H134295   5.584   6.302   1.449  2.0066  2.8692 -1.4699
 4268TIP3    H234296   5.704   6.231   1.508 -0.5214 -1.0851 -0.6746
 4269TIP3   OH234297   3.570   2.604   1.890  0.5154 -0.5064 -0.2143
 4269TIP3    H134298   3.613   2.646   1.815  0.3368 -1.9565 -1.1698
 4269TIP3    H234299   3.492   2.563   1.853  0.0633 -0.6822  0.8994
 4270TIP3   OH234300   3.596   0.432   2.048 -0.4090 -0.4769 -0.0004
 4270TIP3    H134301   3.649   0.460   1.974 -0.6383  0.7786  0.2765
 4270TIP3    H234302   3.591   0.337   2.041 -0.7234 -0.3572 -1.8064
 4271TIP3   OH234303   4.344   4.741  10.834  0.3175 -0.0759  0.0790
 4271TIP3    H134304   4.277   4.745  10.766 -0.6657  0.5325  1.0439
 4271TIP3    H234305   4.346   4.649  10.861  0.1592 -0.1680 -0.2157
 4272TIP3   OH234306   5.603   5.336  13.948  0.2609  0.6161  0.3227
 4272TIP3    H134307   5.666   5.264  13.959 -0.9025 -0.6604 -0.9958
 4272TIP3    H234308   5.531   5.314  14.007  1.1483  2.3011  2.1582
 4273TIP3   OH234309   0.050   4.027   2.287 -0.2314  0.2015  0.1936
 4273TIP3    H134310   0.132   4.069   2.261 -0.6158  2.1551  1.9287
 4273TIP3    H234311   0.008   4.089   2.346 -2.8986 -0.8125 -0.4677
 4274TIP3   OH234312   0.361   2.592  11.433  0.0626 -0.1100  0.2024
 4274TIP3    H134313   0.352   2.687  11.427 -1.2842 -0.3294 -2.5300
 4274TIP3    H234314   0.442   2.572  11.385  1.1074 -0.3048  1.9450
 4275TIP3   OH234315   1.914   1.725   2.666  0.1383  0.3207 -0.1647
 4275TIP3    H134316   1.880   1.815   2.661  0.7657  0.5082 -2.5707
 4275TIP3    H234317   1.889   1.686   2.582  1.4196 -1.1594  0.1059
 4276TIP3   OH234318   5.308   5.258   3.352 -0.3449  0.4993 -0.0440
 4276TIP3    H134319   5.388   5.212   3.378 -1.5755 -1.0042  1.3049
 4276TIP3    H234320   5.337   5.345   3.325  1.9113 -0.4988 -1.1070
 4277TIP3   OH234321   1.344   6.382  13.851 -0.7442  0.0603  0.8253
 4277TIP3    H134322   1.283   6.347  13.785  0.8190 -0.5656 -0.3598
 4277TIP3    H234323   1.425   6.398  13.802  0.1102  0.6652  2.3853
 4278TIP3   OH234324   5.168   0.301   2.890  0.3707  0.1888 -0.1292
 4278TIP3    H134325   5.228   0.362   2.847  0.0914  1.3972  1.1118
 4278TIP3    H234326   5.181   0.317   2.984 -1.1782 -0.2190  0.1810
 4279TIP3   OH234327   0.610   3.528  13.940  0.4858  0.3319  0.0686
 4279TIP3    H134328   0.561   3.599  13.897  0.6213  1.8112  2.1705
 4279TIP3    H234329   0.543   3.478  13.987  0.7290  1.2690  1.4768
 4280TIP3   OH234330   5.248   4.286   2.397 -0.3389  0.1581  0.0903
 4280TIP3    H134331   5.200   4.368   2.385 -0.0952  0.5245  1.4884
 4280TIP3    H234332   5.198   4.222   2.346 -1.1052  0.9597 -0.2011
 4281TIP3   OH234333   4.771   4.060  14.980  0.1996  0.2165  0.3028
 4281TIP3    H134334   4.833   4.028  14.914  0.0794  0.1963  0.1975
 4281TIP3    H234335   4.824   4.112  15.040  0.2033  0.7863 -0.1789
 4282TIP3   OH234336   3.082   6.464   1.766 -0.4886  0.0927 -0.2930
 4282TIP3    H134337   3.082   6.374   1.735  0.2756  0.0628 -0.2293
 4282TIP3    H234338   3.169   6.497   1.744 -0.6793  0.7386 -0.1048
 4283TIP3   OH234339   3.423   1.154   3.644 -0.1366 -0.7672  0.4982
 4283TIP3    H134340   3.455   1.101   3.717  1.3112  1.0299  1.2575
 4283TIP3    H234341   3.353   1.207   3.681  0.6600  0.2138  0.6579
 4284TIP3   OH234342   3.844   5.472   3.596 -0.0312 -0.3061 -0.0933
 4284TIP3    H134343   3.812   5.401   3.542  0.8707 -0.3511 -0.5838
 4284TIP3    H234344   3.939   5.471   3.584  0.1824 -0.2460  1.3946
 4285TIP3   OH234345   5.920   3.314  11.097 -0.0694 -0.0398 -0.5806
 4285TIP3    H134346   5.965   3.232  11.114 -0.3891 -0.2064 -0.5195
 4285TIP3    H234347   5.832   3.288  11.069 -0.7211  0.3079  1.0318
 4286TIP3   OH234348   1.083   6.008   3.860  0.1275  0.2132  0.6953
 4286TIP3    H134349   1.010   6.049   3.813  1.0134  1.5129  0.3871
 4286TIP3    H234350   1.160   6.030   3.808  0.7898 -0.8062  1.2187
 4287TIP3   OH234351   0.831   3.333   0.254  0.2396  0.7757 -0.1214
 4287TIP3    H134352   0.833   3.423   0.288  0.1670  1.4192 -1.7487
 4287TIP3    H234353   0.914   3.295   0.281 -0.4308  0.7179  2.0887
 4288TIP3   OH234354   4.467   3.518  11.948  0.1999 -0.2391  0.0849
 4288TIP3    H134355   4.512   3.474  12.020  1.8456 -0.7181 -1.1791
 4288TIP3    H234356   4.392   3.461  11.929 -0.7115  0.2814  1.8498
 4289TIP3   OH234357   5.142   6.190  12.339 -0.8594 -0.0570  0.3169
 4289TIP3    H134358   5.196   6.257  12.298 -0.1993 -1.2568 -0.8801
 4289TIP3    H234359   5.201   6.116  12.351 -1.9992 -1.0793 -0.1590
 4290TIP3   OH234360   5.809   5.125   4.774 -0.3240  0.2667 -0.0999
 4290TIP3    H134361   5.725   5.151   4.812 -0.4318  0.1866 -0.2791
 4290TIP3    H234362   5.843   5.059   4.834 -0.8703 -0.4474 -0.5537
 4291TIP3   OH234363   3.975   2.989   0.167  0.4428  0.1334 -0.4200
 4291TIP3    H134364   4.006   3.058   0.225  1.9817 -0.7769 -0.0938
 4291TIP3    H234365   3.881   2.987   0.179  0.7458 -0.4369  2.5498
 4292TIP3   OH234366   6.345   6.456   3.615 -0.1571 -0.1252  0.1484
 4292TIP3    H134367   6.384   6.538   3.644  1.0117 -0.3380 -0.7460
 4292TIP3    H234368   6.327   6.470   3.522 -0.7158 -0.6095  0.1769
 4293TIP3   OH234369   6.293   1.382  16.520  0.7364  0.1479  0.3787
 4293TIP3    H134370   6.307   1.415  16.431  0.2811 -2.0435 -0.5744
 4293TIP3    H234371   6.240   1.449  16.563  2.6306  2.1848 -0.3208
 4294TIP3   OH234372   4.869   3.147   3.299  0.1223  0.1748  0.5796
 4294TIP3    H134373   4.780   3.179   3.311 -0.2056 -0.1723 -0.8174
 4294TIP3    H234374   4.885   3.153   3.205  1.4560 -0.0915  0.7611
 4295TIP3   OH234375   2.239   0.826  14.628 -1.1240 -0.5280 -0.3786
 4295TIP3    H134376   2.331   0.852  14.626 -1.3349  1.1631  3.2285
 4295TIP3    H234377   2.241   0.731  14.636  0.3884 -0.4681  0.4019
 4296TIP3   OH234378   4.100   1.752   4.567 -0.3791  0.3283 -0.2476
 4296TIP3    H134379   4.066   1.677   4.519  1.0210 -0.3820 -0.1624
 4296TIP3    H234380   4.039   1.762   4.641  0.8986 -2.4974  1.3484
 4297TIP3   OH234381   2.565   3.384   4.357  0.2292 -0.2988  0.2687
 4297TIP3    H134382   2.659   3.393   4.339  0.1115 -0.2857 -0.3724
 4297TIP3    H234383   2.557   3.297   4.396  0.5276 -0.2417  0.4660
 4298TIP3   OH234384   3.783   2.991   1.396  0.4816 -0.3575 -0.5771
 4298TIP3    H134385   3.754   3.069   1.348  1.1249  0.6809  0.6738
 4298TIP3    H234386   3.702   2.947   1.421 -0.0070  1.2833  0.8920
 4299TIP3   OH234387   6.793   5.072   2.441 -0.0840  0.1815 -0.1901
 4299TIP3    H134388   6.803   5.163   2.468  1.7155  0.0815 -0.3838
 4299TIP3    H234389   6.747   5.030   2.513  0.4728  0.9236  0.6131
 4300TIP3   OH234390   2.840   5.900   2.791  0.2622  0.1976  0.1232
 4300TIP3    H134391   2.822   5.963   2.722  1.4875  0.7622  0.2959
 4300TIP3    H234392   2.914   5.937   2.839  1.1926 -1.5006  0.0574
 4301TIP3   OH234393   3.833   1.870   6.168 -0.3569 -0.2823 -0.2112
 4301TIP3    H134394   3.829   1.803   6.237  0.0921 -0.7792 -0.6650
 4301TIP3    H234395   3.832   1.821   6.086  2.9133  0.0311 -0.5845
 4302TIP3   OH234396   1.965   5.048  16.887 -0.6432  0.3054 -0.3224
 4302TIP3    H134397   1.961   5.068  16.793 -1.5930  0.6304 -0.2235
 4302TIP3    H234398   1.926   5.125  16.929 -0.5525  0.0040  0.3122
 4303TIP3   OH234399   2.458   5.031   5.800  0.0554 -0.2950 -0.5718
 4303TIP3    H134400   2.367   5.051   5.823 -0.0949 -0.2297 -1.2098
 4303TIP3    H234401   2.505   5.039   5.882 -0.6476 -1.0979 -0.0686
 4304TIP3   OH234402   1.892   3.909  16.324  0.4222 -0.3117  0.7914
 4304TIP3    H134403   1.982   3.883  16.307  0.2379 -1.6310  1.6690
 4304TIP3    H234404   1.839   3.845  16.277 -0.0615  0.4228  0.3253
 4305TIP3   OH234405   5.597   4.845  14.127  0.3235 -0.1972 -0.2692
 4305TIP3    H134406   5.591   4.941  14.126 -0.4510 -0.1922  1.1738
 4305TIP3    H234407   5.581   4.819  14.037 -0.4838  0.9955 -0.4964
 4306TIP3   OH234408   1.633   2.863  15.833 -0.0344 -0.1875 -0.2159
 4306TIP3    H134409   1.553   2.839  15.879  0.0937 -0.7227 -0.2606
 4306TIP3    H234410   1.607   2.933  15.773 -0.4465 -0.2938 -0.1613
 4307TIP3   OH234411   1.534   2.782  13.808 -0.6552 -0.2300 -0.0845
 4307TIP3    H134412   1.488   2.717  13.755 -0.4736  0.0686 -0.6206
 4307TIP3    H234413   1.465   2.839  13.842 -0.9150 -1.2530  1.1834
 4308TIP3   OH234414   1.556   4.593   5.385 -0.1291  0.2493 -0.5701
 4308TIP3    H134415   1.552   4.659   5.316  0.8786  0.2082 -0.6758
 4308TIP3    H234416   1.648   4.590   5.411 -0.4455  0.0526  0.5748
 4309TIP3   OH234417   0.745   6.330   5.805 -0.2443  0.6431 -0.3413
 4309TIP3    H134418   0.702   6.346   5.721  0.6392  0.6171 -0.8121
 4309TIP3    H234419   0.767   6.417   5.839 -2.0070  0.7463  0.6439
 4310TIP3   OH234420   3.514   2.551  14.614 -0.7102 -0.3017  0.2592
 4310TIP3    H134421   3.561   2.472  14.639 -2.1299 -0.4184  3.0260
 4310TIP3    H234422   3.531   2.612  14.686 -1.1497  1.2397 -0.9050
 4311TIP3   OH234423   2.132   1.054   2.649  0.2853  0.3307 -0.0129
 4311TIP3    H134424   2.184   1.052   2.729 -0.4147 -0.2774  0.4341
 4311TIP3    H234425   2.109   0.963   2.633 -1.5848  0.6969  0.4277
 4312TIP3   OH234426   1.414   0.720  12.503  0.0877 -0.1055 -0.4339
 4312TIP3    H134427   1.396   0.705  12.410 -0.0099  1.3898 -0.6754
 4312TIP3    H234428   1.506   0.746  12.506  0.4347 -1.3003  0.0467
 4313TIP3   OH234429   3.181   2.315   2.067  0.0359 -0.0974 -0.4631
 4313TIP3    H134430   3.160   2.283   2.154 -2.3118  1.7572 -0.2452
 4313TIP3    H234431   3.263   2.364   2.079 -0.3191  0.2370  0.7496
 4314TIP3   OH234432   4.746   0.335  16.105 -0.6470  0.8193 -0.5329
 4314TIP3    H134433   4.664   0.358  16.149 -0.7531  0.6628 -0.6444
 4314TIP3    H234434   4.722   0.264  16.045  0.0076 -0.8417  1.0887
 4315TIP3   OH234435   5.398   1.005  17.033 -0.0937  0.0246  0.2723
 4315TIP3    H134436   5.484   0.963  17.033  0.0845  0.2795 -1.9784
 4315TIP3    H234437   5.337   0.934  17.053  0.5187 -0.4081  0.6512
 4316TIP3   OH234438   6.629   4.864  14.062  0.3489  0.0154  0.4250
 4316TIP3    H134439   6.620   4.911  13.979 -0.6578 -2.1286 -0.7598
 4316TIP3    H234440   6.711   4.816  14.053  1.5141  1.6577  1.7389
 4317TIP3   OH234441   1.336   5.362  15.925 -0.2708 -0.1227 -0.0303
 4317TIP3    H134442   1.310   5.433  15.985  0.1647  0.6762 -0.7640
 4317TIP3    H234443   1.406   5.316  15.971  0.4283  0.8142 -0.1310
 4318TIP3   OH234444   2.844   2.297   5.343 -0.0199  0.0045 -0.0964
 4318TIP3    H134445   2.815   2.294   5.252 -0.5419  0.4771  0.0529
 4318TIP3    H234446   2.855   2.390   5.362 -0.1844 -0.0774  0.4127
 4319TIP3   OH234447   4.513   3.729  10.725  0.1745 -0.1650  0.0770
 4319TIP3    H134448   4.514   3.656  10.663 -2.9580 -0.3887  0.1345
 4319TIP3    H234449   4.533   3.688  10.809 -0.4656 -0.7627 -0.0539
 4320TIP3   OH234450   1.803   5.240  13.460 -0.7811  0.4455  0.3630
 4320TIP3    H134451   1.770   5.327  13.483  0.0991  0.8627  0.0903
 4320TIP3    H234452   1.849   5.253  13.377 -0.2024 -0.1701  0.5792
 4321TIP3   OH234453   4.905   5.959   4.463 -0.0898 -0.5747  0.4041
 4321TIP3    H134454   4.977   5.906   4.429  0.3909 -0.6349  1.4586
 4321TIP3    H234455   4.841   5.962   4.393  1.4656  0.5026 -1.0555
 4322TIP3   OH234456   5.622   4.850  15.022 -0.2418 -0.6210 -0.0410
 4322TIP3    H134457   5.685   4.896  15.077  1.9485 -1.0785 -2.0227
 4322TIP3    H234458   5.568   4.919  14.985 -1.5267 -0.2795  2.2890
 4323TIP3   OH234459   0.964   0.505  11.560  0.1372 -0.2313  0.2427
 4323TIP3    H134460   0.955   0.492  11.654 -0.1602 -1.1759  0.0952
 4323TIP3    H234461   0.912   0.435  11.521 -1.6040  1.4555 -0.6404
 4324TIP3   OH234462   4.585   4.373  11.715  0.0374  0.1545 -0.2224
 4324TIP3    H134463   4.536   4.432  11.773  1.8900  0.1444  1.4440
 4324TIP3    H234464   4.605   4.426  11.638 -1.2924  0.5979 -0.2804
 4325TIP3   OH234465   2.711   3.371   6.747 -0.6160 -0.7273  0.1126
 4325TIP3    H134466   2.678   3.435   6.684 -0.2957 -0.9559 -0.2910
 4325TIP3    H234467   2.750   3.424   6.817  1.1969 -0.4549 -1.0355
 4326TIP3   OH234468   3.468   4.325  16.291 -0.3189 -0.1756 -0.3388
 4326TIP3    H134469   3.427   4.397  16.244 -2.4485 -1.0555  0.0383
 4326TIP3    H234470   3.469   4.253  16.228  0.8397 -0.1260 -0.3873
 4327TIP3   OH234471   2.164   4.697   3.281 -0.1523 -0.2582 -0.5775
 4327TIP3    H134472   2.159   4.736   3.194  0.8433  1.9347  0.2725
 4327TIP3    H234473   2.078   4.715   3.321 -0.5635 -1.1540 -1.0281
 4328TIP3   OH234474   5.758   0.352  12.504 -0.3201  0.2438 -0.2379
 4328TIP3    H134475   5.670   0.371  12.470 -0.5102 -1.6215 -0.8995
 4328TIP3    H234476   5.746   0.277  12.561  1.0515 -1.0592 -1.5790
 4329TIP3   OH234477   2.984   2.891  16.460 -0.2580 -0.0304  0.5025
 4329TIP3    H134478   3.022   2.831  16.395 -0.4203  0.9222 -0.4967
 4329TIP3    H234479   3.056   2.949  16.483 -0.8957  1.4480 -1.0039
 4330TIP3   OH234480   3.605   3.455  12.772  0.8148 -0.0861 -0.1950
 4330TIP3    H134481   3.651   3.533  12.742 -0.2070  0.6366  0.0666
 4330TIP3    H234482   3.633   3.386  12.712  1.7479  0.4655 -0.4151
 4331TIP3   OH234483   4.781   0.074   4.299 -0.0147  0.6911 -0.4203
 4331TIP3    H134484   4.857   0.113   4.256 -0.0591  1.0155 -0.2045
 4331TIP3    H234485   4.747   0.143   4.356 -1.2771  1.0355 -1.5186
 4332TIP3   OH234486   5.833   1.235  16.891 -0.0288 -1.0001 -0.3227
 4332TIP3    H134487   5.888   1.167  16.852  1.4011  1.0076 -2.0006
 4332TIP3    H234488   5.748   1.224  16.850  0.1683 -1.8161 -0.5279
 4333TIP3   OH234489   0.446   6.413   5.711 -0.1623  0.2759  0.0406
 4333TIP3    H134490   0.387   6.484   5.736 -0.7590 -0.6842  1.5522
 4333TIP3    H234491   0.489   6.389   5.793  0.1768 -0.9624 -0.4778
 4334TIP3   OH234492   2.506   4.571   6.500 -0.0925  0.1798 -0.2951
 4334TIP3    H134493   2.533   4.607   6.584 -1.8174 -0.0483  0.4013
 4334TIP3    H234494   2.477   4.482   6.521 -0.8826  0.2441 -1.0584
 4335TIP3   OH234495   3.757   2.847   1.157  0.3664 -0.3225 -0.1124
 4335TIP3    H134496   3.731   2.770   1.207  1.3075 -0.2807  0.4723
 4335TIP3    H234497   3.772   2.914   1.224 -0.3391  0.3473 -0.6063
 4336TIP3   OH234498   2.015   3.957  13.361  0.1072 -0.7982  0.6843
 4336TIP3    H134499   1.961   3.959  13.282 -0.2402 -1.8452  0.8831
 4336TIP3    H234500   2.016   4.048  13.391 -1.3950 -0.7102  0.5656
 4337TIP3   OH234501   3.139   4.653  13.612  0.4525  0.4490  0.0005
 4337TIP3    H134502   3.198   4.714  13.568  1.1967  0.4390  0.9429
 4337TIP3    H234503   3.197   4.584  13.645 -0.4327 -1.1603 -1.6127
 4338TIP3   OH234504   1.726   0.789  12.489  0.4565  0.1418  0.0430
 4338TIP3    H134505   1.727   0.884  12.500 -0.6239  0.2970 -1.0124
 4338TIP3    H234506   1.766   0.774  12.404 -0.6181 -0.2202 -0.4229
 4339TIP3   OH234507   0.463   4.032   4.217  0.2179  0.0352 -0.3843
 4339TIP3    H134508   0.404   3.999   4.285  0.3642 -1.3400 -0.8837
 4339TIP3    H234509   0.456   4.127   4.222 -0.5933 -0.0725  0.8277
 4340TIP3   OH234510   0.191   2.987   3.299 -0.0090  0.1887  0.0752
 4340TIP3    H134511   0.213   2.980   3.392  1.4919  0.0665 -0.2617
 4340TIP3    H234512   0.235   2.912   3.259  1.5299  1.6195 -1.0704
 4341TIP3   OH234513   1.016   2.662   2.530  0.4571  0.1419 -0.3801
 4341TIP3    H134514   0.963   2.713   2.591  0.5806  0.3852 -0.4714
 4341TIP3    H234515   1.105   2.667   2.565  0.6558  0.8803 -0.9478
 4342TIP3   OH234516   4.922   4.042   2.368  0.3785  0.3125 -0.1002
 4342TIP3    H134517   4.993   3.992   2.409  0.5202 -0.0931 -0.8155
 4342TIP3    H234518   4.883   4.092   2.440 -0.2275 -1.3456  0.7938
 4343TIP3   OH234519   0.726   5.661   5.516  0.4837 -0.5395  0.5069
 4343TIP3    H134520   0.730   5.686   5.609  0.2218 -0.5655  0.5266
 4343TIP3    H234521   0.654   5.713   5.481  0.6556 -0.4454  0.2905
 4344TIP3   OH234522   3.557   5.395   1.836  0.2626  0.1853  0.1618
 4344TIP3    H134523   3.483   5.439   1.878 -0.1315 -1.5664  1.4292
 4344TIP3    H234524   3.523   5.308   1.813  1.7051 -0.3918  0.0831
 4345TIP3   OH234525   6.132   4.538  11.450  0.2946 -0.1534  0.0395
 4345TIP3    H134526   6.172   4.623  11.471 -1.2524  0.6353 -0.0378
 4345TIP3    H234527   6.053   4.561  11.400  1.0651 -1.7516 -2.0629
 4346TIP3   OH234528   5.173   0.161   5.061  0.2645 -0.0100 -0.4320
 4346TIP3    H134529   5.078   0.162   5.059  0.2061  1.5919  1.0361
 4346TIP3    H234530   5.195   0.075   5.098 -0.6322 -0.1709 -0.2551
 4347TIP3   OH234531   0.370   5.389   1.145  0.3417 -0.1225  0.5070
 4347TIP3    H134532   0.328   5.310   1.110 -1.4226  1.7485 -1.9484
 4347TIP3    H234533   0.446   5.403   1.089 -1.0426  1.4616 -1.1145
 4348TIP3   OH234534   1.329   2.546   0.061 -0.1789 -0.7648 -0.1571
 4348TIP3    H134535   1.321   2.614   0.128 -0.9178 -0.7482 -0.2531
 4348TIP3    H234536   1.419   2.554   0.029  0.0128 -0.4206  0.4507
 4349TIP3   OH234537   4.481   4.977  14.514  0.1862 -0.4853 -0.3583
 4349TIP3    H134538   4.575   4.991  14.527  0.0830 -1.4572  2.0350
 4349TIP3    H234539   4.473   4.948  14.423  2.1687 -0.1309 -0.6873
 4350TIP3   OH234540   1.620   5.583   4.056  0.1179  0.5132 -0.3233
 4350TIP3    H134541   1.665   5.576   3.972 -1.1104 -3.3787 -0.8908
 4350TIP3    H234542   1.638   5.500   4.100 -1.2016  1.4584  2.2652
 4351TIP3   OH234543   3.359   1.951  17.069  0.4167 -0.2051  0.2283
 4351TIP3    H134544   3.268   1.933  17.046  0.0450  1.6447  0.1092
 4351TIP3    H234545   3.355   1.994  17.154  1.0821  0.8142 -0.2411
 4352TIP3   OH234546   4.289   5.110   0.685  0.1330  0.0399  0.5002
 4352TIP3    H134547   4.294   5.088   0.592  1.9538  0.0607  0.5601
 4352TIP3    H234548   4.366   5.069   0.724 -0.2162  0.6259  1.8809
 4353TIP3   OH234549   6.228   1.708  11.730  0.9707 -0.3527 -0.6968
 4353TIP3    H134550   6.313   1.700  11.689  0.5642 -0.6082 -1.5080
 4353TIP3    H234551   6.219   1.802  11.749  1.2079 -0.2505 -1.0844
 4354TIP3   OH234552   4.234   5.528   4.404 -0.0951  0.1843 -0.3960
 4354TIP3    H134553   4.195   5.614   4.390  1.0104  0.6017 -1.0567
 4354TIP3    H234554   4.187   5.471   4.343  0.6762  0.7950 -1.5961
 4355TIP3   OH234555   4.842   4.532  15.438  0.0404  0.1963  0.4590
 4355TIP3    H134556   4.789   4.492  15.506 -1.6567 -0.2130 -1.0146
 4355TIP3    H234557   4.884   4.607  15.481 -2.0788  0.8012  1.6393
 4356TIP3   OH234558   4.135   1.522  12.267 -0.0442 -1.2557  0.0367
 4356TIP3    H134559   4.124   1.432  12.296  2.1442 -1.0995  1.6553
 4356TIP3    H234560   4.207   1.519  12.204  0.2131 -0.6243  0.2898
 4357TIP3   OH234561   3.677   2.648  16.858 -0.4893 -0.1957  0.2491
 4357TIP3    H134562   3.610   2.683  16.918  0.7017  1.1751  0.8263
 4357TIP3    H234563   3.757   2.647  16.910  0.1291 -1.0326 -0.6957
 4358TIP3   OH234564   2.756   4.312  15.542 -0.1319 -0.0321 -0.4441
 4358TIP3    H134565   2.754   4.346  15.452  2.3106  0.8343 -0.2454
 4358TIP3    H234566   2.741   4.389  15.597 -0.8776 -0.4346 -0.0666
 4359TIP3   OH234567   6.121   2.594   2.509  0.0848 -0.1992 -0.1024
 4359TIP3    H134568   6.095   2.615   2.419 -1.2339  0.0269  0.3074
 4359TIP3    H234569   6.137   2.500   2.508 -0.2196 -0.2481 -0.5103
 4360TIP3   OH234570   1.561   4.501   5.808 -0.4492 -0.4119  0.6498
 4360TIP3    H134571   1.488   4.545   5.765 -0.9121  0.5413  2.3014
 4360TIP3    H234572   1.638   4.531   5.761 -1.0976 -1.7644 -1.3957
 4361TIP3   OH234573   4.040   4.866  16.604 -0.1736  0.2786 -0.3345
 4361TIP3    H134574   4.095   4.846  16.528  0.2333  0.1958 -0.0173
 4361TIP3    H234575   4.057   4.795  16.666 -0.5748  0.2967 -0.2026
 4362TIP3   OH234576   6.691   6.566  15.289 -0.0123  0.6045  0.6333
 4362TIP3    H134577   6.615   6.596  15.240 -0.1327 -1.6911 -0.7214
 4362TIP3    H234578   6.656   6.505  15.353  0.6687 -0.8580 -0.3323
 4363TIP3   OH234579   1.996   3.337  14.773 -0.1193  0.6692 -0.1819
 4363TIP3    H134580   2.028   3.413  14.821 -1.3043  0.8667  0.3291
 4363TIP3    H234581   2.012   3.263  14.831  0.7052  0.5725 -0.5278
 4364TIP3   OH234582   2.490   1.664  11.467  0.1067  0.2835 -0.0554
 4364TIP3    H134583   2.551   1.658  11.394  0.2179  0.5556  0.0152
 4364TIP3    H234584   2.405   1.643  11.430  0.1466  0.5242 -0.2839
 4365TIP3   OH234585   4.309   3.110   1.284  0.6032  0.0418 -0.0469
 4365TIP3    H134586   4.339   3.097   1.374  1.5101  0.2462 -0.3078
 4365TIP3    H234587   4.358   3.046   1.233 -0.8558 -0.9705 -0.2460
 4366TIP3   OH234588   4.771   2.344  13.965 -0.0884  0.8835  0.1436
 4366TIP3    H134589   4.731   2.414  13.914 -1.8497  1.1316  1.7357
 4366TIP3    H234590   4.698   2.288  13.989  0.9952 -0.3553  0.6525
 4367TIP3   OH234591   5.910   5.862  16.459 -0.0433 -0.0784  0.3227
 4367TIP3    H134592   5.815   5.858  16.464 -0.0829  0.2344 -0.1638
 4367TIP3    H234593   5.934   5.927  16.526 -0.1690 -0.1467  0.4360
 4368TIP3   OH234594   1.867   2.518   0.149  0.1450  0.1203 -0.7677
 4368TIP3    H134595   1.856   2.535   0.056  2.0510 -0.5896 -1.1752
 4368TIP3    H234596   1.881   2.424   0.155  3.2709  0.4918 -0.2309
 4369TIP3   OH234597   4.468   5.023   2.548  0.3824 -0.2044 -0.2477
 4369TIP3    H134598   4.491   5.091   2.485 -1.0294  0.5846  0.0660
 4369TIP3    H234599   4.491   4.941   2.504  1.5084  0.4298 -0.8734
 4370TIP3   OH234600   4.441   0.791  13.895 -0.1276 -0.0656  0.6480
 4370TIP3    H134601   4.376   0.787  13.966  0.5749  0.2293  1.3161
 4370TIP3    H234602   4.407   0.859  13.837 -1.6093 -1.4834 -0.2359
 4371TIP3   OH234603   4.198   6.107  15.225 -0.8500  0.1430 -0.2819
 4371TIP3    H134604   4.290   6.103  15.250 -1.3289  0.4584  1.6976
 4371TIP3    H234605   4.197   6.156  15.143  0.8056 -0.5743 -0.7673
 4372TIP3   OH234606   6.498   0.546  12.894  0.6891 -0.1764  0.2541
 4372TIP3    H134607   6.521   0.554  12.986  2.3475 -0.3887 -0.1100
 4372TIP3    H234608   6.465   0.632  12.869  1.1434  0.1651  0.8177
 4373TIP3   OH234609   2.890   1.112  15.443  0.2045 -0.1933 -0.2614
 4373TIP3    H134610   2.865   1.137  15.531  0.2834 -0.9162 -0.0301
 4373TIP3    H234611   2.979   1.080  15.451  0.3813  0.1655 -0.6887
 4374TIP3   OH234612   4.032   3.997   2.507 -0.4702 -0.1202  0.9444
 4374TIP3    H134613   4.084   4.051   2.566 -0.7871 -0.6989  1.7856
 4374TIP3    H234614   4.095   3.961   2.445 -0.4881  2.8191 -1.0032
 4375TIP3   OH234615   4.180   0.854   6.069  0.7318 -0.6105 -0.1620
 4375TIP3    H134616   4.168   0.948   6.078  0.1030 -0.3936 -2.5343
 4375TIP3    H234617   4.135   0.817   6.145 -0.7288  0.9286 -0.2225
 4376TIP3   OH234618   2.505   5.982  14.004  0.0262  0.8365 -0.4550
 4376TIP3    H134619   2.521   5.915  13.937 -0.2010  1.9034 -1.6032
 4376TIP3    H234620   2.578   5.972  14.065  0.2795 -0.1104 -0.8937
 4377TIP3   OH234621   3.541   3.777  12.068  0.4927 -0.5579  0.3971
 4377TIP3    H134622   3.490   3.853  12.096  0.3490 -0.3974 -0.2645
 4377TIP3    H234623   3.605   3.813  12.006 -0.7520 -1.1888 -1.3562
 4378TIP3   OH234624   2.762   5.409   0.314 -0.8162 -0.2949  0.2394
 4378TIP3    H134625   2.802   5.388   0.229 -1.4952 -1.2517  0.1408
 4378TIP3    H234626   2.720   5.494   0.301 -0.3294 -0.1148 -0.1783
 4379TIP3   OH234627   0.888   4.719  12.926  0.0463 -0.4389  0.1952
 4379TIP3    H134628   0.821   4.748  12.988  0.9176  0.5352  0.7085
 4379TIP3    H234629   0.880   4.778  12.852  2.0690  1.5012  1.4001
 4380TIP3   OH234630   5.064   3.550   3.138 -0.3876 -0.3476 -0.9311
 4380TIP3    H134631   5.108   3.628   3.104  2.0381 -0.4864  1.5704
 4380TIP3    H234632   4.978   3.581   3.166  0.8282  1.6937  0.8074
 4381TIP3   OH234633   3.079   2.549  15.863  0.2413 -0.1039 -0.4336
 4381TIP3    H134634   3.161   2.566  15.908  0.2861  0.3680 -0.6941
 4381TIP3    H234635   3.085   2.458  15.835  0.1202 -0.4733  0.7058
 4382TIP3   OH234636   4.192   1.177  16.335  0.3189 -0.8242  0.0197
 4382TIP3    H134637   4.281   1.157  16.361  0.0221 -2.7487 -0.3363
 4382TIP3    H234638   4.160   1.236  16.403  2.4683  1.6175 -0.9069
 4383TIP3   OH234639   2.664   5.330   5.647 -0.6184 -0.6841 -0.1172
 4383TIP3    H134640   2.674   5.238   5.622  0.1345 -0.5149 -0.4832
 4383TIP3    H234641   2.734   5.375   5.599 -0.8408  0.0447  0.2321
 4384TIP3   OH234642   4.857   1.790   4.542  0.2308 -0.5671  0.5563
 4384TIP3    H134643   4.888   1.752   4.460  0.0804  0.1836  0.1469
 4384TIP3    H234644   4.917   1.862   4.559 -1.6576  1.3838 -0.6341
 4385TIP3   OH234645   3.259   1.270   1.814  0.0078 -0.6462  0.3741
 4385TIP3    H134646   3.341   1.221   1.806  0.7772  0.6717 -0.0438
 4385TIP3    H234647   3.223   1.243   1.898  0.1416 -2.2999 -0.0583
 4386TIP3   OH234648   1.397   0.598  11.683 -0.0437 -0.0446 -0.1557
 4386TIP3    H134649   1.336   0.588  11.610  0.0996 -1.5836 -0.1103
 4386TIP3    H234650   1.416   0.692  11.686 -0.1690  0.0813 -1.9978
 4387TIP3   OH234651   4.064   6.400   3.965 -0.3977  0.3785  0.1631
 4387TIP3    H134652   4.137   6.372   3.909 -0.9224  0.6594 -0.6922
 4387TIP3    H234653   4.095   6.480   4.008  0.0257  0.1409  0.2967
 4388TIP3   OH234654   0.072   5.333  14.306  0.0036 -0.6443 -0.3388
 4388TIP3    H134655   0.013   5.365  14.375  0.7455  0.6698 -0.2738
 4388TIP3    H234656   0.151   5.305  14.354  1.1334  1.6816 -0.6804
 4389TIP3   OH234657   4.034   2.036  16.238  0.3432  0.2360  0.0178
 4389TIP3    H134658   4.016   1.982  16.161  1.9504  0.6248 -0.6533
 4389TIP3    H234659   4.032   1.974  16.311 -2.1502  0.0106 -0.1469
 4390TIP3   OH234660   0.817   6.076   4.253  0.4764 -0.0297 -0.0235
 4390TIP3    H134661   0.896   6.059   4.305  0.7077  0.2260 -0.2867
 4390TIP3    H234662   0.748   6.029   4.299  0.8125 -0.3999  0.1187
 4391TIP3   OH234663   2.569   2.312   0.840  0.8425  0.3003  0.2001
 4391TIP3    H134664   2.534   2.398   0.816 -2.6808 -0.7243  1.1136
 4391TIP3    H234665   2.537   2.254   0.771 -2.4958 -1.2686  2.7936
 4392TIP3   OH234666   5.014   5.712   5.538  0.1733 -0.1474  0.3915
 4392TIP3    H134667   5.052   5.736   5.622  0.6978 -0.4879  0.2587
 4392TIP3    H234668   5.029   5.788   5.482  0.4285 -0.1775  0.4165
 4393TIP3   OH234669   3.250   2.223  13.882  0.0895  0.3667  0.1381
 4393TIP3    H134670   3.259   2.318  13.889 -0.6697  0.3807  1.2920
 4393TIP3    H234671   3.310   2.188  13.949  1.4060 -0.0464 -1.2041
 4394TIP3   OH234672   5.821   4.990  15.183 -0.1562 -0.1197  0.4140
 4394TIP3    H134673   5.852   5.065  15.132 -0.1158 -0.5748 -0.2474
 4394TIP3    H234674   5.839   5.014  15.274 -0.1249  0.6610  0.2095
 4395TIP3   OH234675   1.817   1.338  14.251 -0.1295  0.5188  0.3442
 4395TIP3    H134676   1.842   1.276  14.319 -0.5157  1.5543  1.4688
 4395TIP3    H234677   1.786   1.415  14.299  0.5438  1.6764 -0.9944
 4396TIP3   OH234678   4.044   0.936   5.623  0.0056 -0.1968  0.2799
 4396TIP3    H134679   4.130   0.895   5.630 -0.5810 -1.2795  1.5252
 4396TIP3    H234680   4.031   0.948   5.529  1.7511  0.5271  0.1057
 4397TIP3   OH234681   1.340   0.019  15.662  0.2878 -0.8006  0.2146
 4397TIP3    H134682   1.363  -0.060  15.612 -2.2870 -0.3006 -2.0062
 4397TIP3    H234683   1.245   0.011  15.675  0.3685  0.7629  2.1801
 4398TIP3   OH234684   0.907   4.124  16.936 -0.6310  0.2294 -0.1215
 4398TIP3    H134685   0.872   4.125  16.847 -0.6445  0.3923 -0.1150
 4398TIP3    H234686   0.988   4.175  16.929 -0.1204 -0.5761 -0.2455
 4399TIP3   OH234687   0.287   0.152   5.588 -0.2968 -0.6245 -0.1261
 4399TIP3    H134688   0.241   0.095   5.650  1.8435 -1.8992  0.3766
 4399TIP3    H234689   0.263   0.117   5.502  2.2803 -3.5424  0.1779
 4400TIP3   OH234690   2.043   0.107  14.106 -0.3432 -0.3324  0.4530
 4400TIP3    H134691   2.007   0.120  14.193  0.2461  0.2189  0.6171
 4400TIP3    H234692   2.131   0.145  14.109  0.3900 -1.9108  0.1419
 4401TIP3   OH234693   3.704   0.523  10.652 -0.0293 -0.2959  0.5689
 4401TIP3    H134694   3.721   0.477  10.569  1.6102 -1.8885  1.6949
 4401TIP3    H234695   3.609   0.520  10.662 -0.2437 -0.2430 -1.1381
 4402TIP3   OH234696   1.443   0.354   3.162  0.2488 -0.4823  0.1359
 4402TIP3    H134697   1.463   0.261   3.149  0.0772 -0.5106  0.0766
 4402TIP3    H234698   1.432   0.388   3.073 -1.0173 -0.6929  0.1955
 4403TIP3   OH234699   5.767   5.305   2.936  0.2291 -0.6536 -0.1237
 4403TIP3    H134700   5.704   5.275   3.002 -0.4061 -0.9419 -0.8462
 4403TIP3    H234701   5.851   5.269   2.964 -0.1529 -1.3356  0.1627
 4404TIP3   OH234702   6.335   0.483   5.122 -0.0402  0.1294 -0.1374
 4404TIP3    H134703   6.421   0.459   5.088 -0.4432 -0.5647 -0.6963
 4404TIP3    H234704   6.300   0.402   5.157 -1.3722 -0.1206 -1.9180
 4405TIP3   OH234705   6.345   4.165   1.370 -0.3755  0.1857  0.1740
 4405TIP3    H134706   6.337   4.258   1.394 -2.3314  0.2391 -0.4959
 4405TIP3    H234707   6.269   4.149   1.314  0.9998 -1.3418 -1.3365
 4406TIP3   OH234708   3.476   5.291  17.200 -0.0706 -0.2626  0.3372
 4406TIP3    H134709   3.566   5.260  17.215 -0.4882 -0.1243  3.7862
 4406TIP3    H234710   3.426   5.211  17.184  0.0031 -0.8003  2.5574
 4407TIP3   OH234711   4.414   4.980  16.184 -0.3971  0.0491 -0.4850
 4407TIP3    H134712   4.320   4.966  16.173 -0.2956  0.1217 -1.5383
 4407TIP3    H234713   4.448   4.987  16.094  0.4507  1.1270 -0.0916
 4408TIP3   OH234714   4.634   3.374   4.589 -1.0329 -0.4718 -0.7613
 4408TIP3    H134715   4.717   3.410   4.560 -0.3239 -0.9966  0.5255
 4408TIP3    H234716   4.586   3.450   4.623  0.0346 -0.5242  0.9826
 4409TIP3   OH234717   6.524   5.621   0.246 -0.4101 -0.5086  0.2136
 4409TIP3    H134718   6.535   5.529   0.270  0.4485 -0.4716 -0.0147
 4409TIP3    H234719   6.533   5.623   0.151  2.5014  0.1631  0.4122
 4410TIP3   OH234720   2.093   4.417  11.074 -0.1375 -0.4911  0.0026
 4410TIP3    H134721   2.160   4.362  11.035 -0.1019  0.2129 -0.9695
 4410TIP3    H234722   2.012   4.368  11.063  0.1923 -1.3339  1.1599
 4411TIP3   OH234723   6.521   6.579   1.672 -0.0899 -0.0202  0.3143
 4411TIP3    H134724   6.560   6.621   1.596 -1.8696  0.0109 -0.6259
 4411TIP3    H234725   6.437   6.623   1.684 -0.5852 -1.1588  1.2809
 4412TIP3   OH234726   3.526   0.671  17.108  0.1459  0.3446  0.4715
 4412TIP3    H134727   3.469   0.652  17.182  2.2147  0.0601  2.0883
 4412TIP3    H234728   3.604   0.616  17.122  0.9197  0.8281 -1.5225
 4413TIP3   OH234729   4.485   2.091  13.482  0.7120 -0.2201  0.2684
 4413TIP3    H134730   4.520   2.086  13.393 -0.1087  1.5732 -0.2012
 4413TIP3    H234731   4.400   2.046  13.476  0.6345 -0.0578  0.1299
 4414TIP3   OH234732   6.085   0.088  16.306  0.0149 -0.6365  0.0827
 4414TIP3    H134733   6.065   0.001  16.270  0.5873 -0.9025  0.3977
 4414TIP3    H234734   6.005   0.139  16.291  0.2675 -0.6998 -1.6404
 4415TIP3   OH234735   5.999   5.243  16.742  0.2186 -0.2899 -0.0972
 4415TIP3    H134736   5.939   5.229  16.815  0.7814 -0.1470  0.3996
 4415TIP3    H234737   6.083   5.208  16.772  1.0081  1.6863  0.1965
 4416TIP3   OH234738   4.138   4.305   0.622 -0.4941  0.0232 -0.0035
 4416TIP3    H134739   4.112   4.384   0.668  0.1605 -0.1848  0.7492
 4416TIP3    H234740   4.234   4.310   0.617 -0.6155  1.1715 -3.4142
 4417TIP3   OH234741   2.998   0.662   3.049 -0.1419 -0.0071  0.2199
 4417TIP3    H134742   2.917   0.621   3.077  0.2240 -1.3214 -0.5399
 4417TIP3    H234743   3.054   0.661   3.127 -0.1790 -0.8690  0.2390
 4418TIP3   OH234744   3.832   5.763   3.808 -0.3649  0.3269 -0.0808
 4418TIP3    H134745   3.760   5.720   3.761 -1.9633  0.9610  1.6606
 4418TIP3    H234746   3.889   5.691   3.834  0.3686 -0.0711 -2.5790
 4419TIP3   OH234747   0.941   0.249  16.139  0.4874 -0.4824  0.0651
 4419TIP3    H134748   0.895   0.271  16.220  1.6009 -2.6242  1.3731
 4419TIP3    H234749   0.890   0.177  16.101  0.2212  0.2127 -0.9365
 4420TIP3   OH234750   3.921   6.284   4.321  0.3831  0.0596 -0.0036
 4420TIP3    H134751   3.878   6.222   4.262 -0.3035  2.5293 -2.2673
 4420TIP3    H234752   3.852   6.313   4.381 -0.3363  1.4776 -1.4576
 4421TIP3   OH234753   2.265   2.459   1.244 -0.9414 -0.1016  0.2549
 4421TIP3    H134754   2.285   2.550   1.263 -1.0338 -0.2729  1.2302
 4421TIP3    H234755   2.350   2.421   1.221 -0.9304  0.2619 -0.3174
 4422TIP3   OH234756   5.918   6.799  10.662  0.2711  0.3201 -0.2082
 4422TIP3    H134757   5.832   6.779  10.698 -0.9687 -1.4615 -3.7082
 4422TIP3    H234758   5.928   6.894  10.676 -1.8213  0.4148  1.1106
 4423TIP3   OH234759   1.741   5.524  11.645  0.2579 -0.1385 -0.2423
 4423TIP3    H134760   1.670   5.492  11.701 -0.4629 -0.2044 -1.1665
 4423TIP3    H234761   1.807   5.558  11.706 -0.6321  0.0601  0.6344
 4424TIP3   OH234762   1.675   3.046  15.555  0.2029 -0.1164  0.3978
 4424TIP3    H134763   1.705   3.124  15.602  2.3823 -1.1612  0.8450
 4424TIP3    H234764   1.713   3.056  15.467 -2.1062  0.7889 -0.5857
 4425TIP3   OH234765   4.894   0.188   2.542  0.1215 -0.2795  0.8486
 4425TIP3    H134766   4.805   0.155   2.531  0.6764 -1.2136 -1.4900
 4425TIP3    H234767   4.896   0.221   2.632 -2.0162 -1.9199  1.6105
 4426TIP3   OH234768   3.269   0.382  16.352  0.7595 -0.5363  0.3509
 4426TIP3    H134769   3.221   0.462  16.332 -0.3897 -1.0671  0.8899
 4426TIP3    H234770   3.337   0.377  16.284  0.9955  0.9857  0.4431
 4427TIP3   OH234771   5.226   2.531  11.715  0.0715 -0.6003 -0.4715
 4427TIP3    H134772   5.295   2.468  11.695 -1.2389 -2.5781  0.8168
 4427TIP3    H234773   5.159   2.514  11.649 -0.3041 -0.6123 -0.0926
 4428TIP3   OH234774   1.187   0.752   4.645 -0.0318  0.2844 -0.4593
 4428TIP3    H134775   1.115   0.702   4.684 -1.0684  1.4702 -0.8089
 4428TIP3    H234776   1.216   0.698   4.571 -2.7422  1.2115 -2.3289
 4429TIP3   OH234777   2.562   4.722  16.814  0.1948 -0.2927  0.5017
 4429TIP3    H134778   2.481   4.672  16.823  0.7072 -1.1323  0.4785
 4429TIP3    H234779   2.627   4.659  16.782  0.4108  0.7788 -1.3237
 4430TIP3   OH234780   2.506   0.190  17.177 -0.3556  0.1585  0.0837
 4430TIP3    H134781   2.451   0.160  17.104 -1.1462 -0.1294  0.7877
 4430TIP3    H234782   2.502   0.119  17.241 -0.4751  0.8240  0.8295
 4431TIP3   OH234783   2.824   6.781   4.761 -0.2848  0.3046 -0.9282
 4431TIP3    H134784   2.881   6.715   4.801 -0.0595  0.3744 -1.1363
 4431TIP3    H234785   2.736   6.743   4.769 -0.1765  0.0528 -0.8978
 4432TIP3   OH234786   6.380   3.626   4.405 -0.7303 -0.4631 -0.0186
 4432TIP3    H134787   6.453   3.616   4.344 -0.0981  2.1644  0.1856
 4432TIP3    H234788   6.334   3.542   4.401  0.6927 -1.2360 -2.2403
 4433TIP3   OH234789   0.156   5.147  13.730  0.0946 -0.5142  0.2750
 4433TIP3    H134790   0.126   5.101  13.809  0.7719  0.6204  1.2414
 4433TIP3    H234791   0.210   5.219  13.764 -0.3503  0.5641 -1.1874
 4434TIP3   OH234792   6.197   0.614   3.884  0.0682  0.5238  0.0677
 4434TIP3    H134793   6.142   0.536   3.885  0.8750 -0.0694  1.6085
 4434TIP3    H234794   6.167   0.664   3.808 -0.7309 -1.0840 -0.7228
 4435TIP3   OH234795   6.259   0.790   0.852 -0.3382 -0.5860  0.3018
 4435TIP3    H134796   6.317   0.737   0.797 -1.3571  0.4119 -1.8263
 4435TIP3    H234797   6.198   0.727   0.890  1.5569 -1.5566  1.9750
 4436TIP3   OH234798   4.101   2.516   3.610  0.7000  0.4538  0.0186
 4436TIP3    H134799   4.115   2.576   3.683 -0.2513  0.0819  0.5203
 4436TIP3    H234800   4.110   2.571   3.532 -0.4668  1.3390  0.4722
 4437TIP3   OH234801   4.609   6.091   4.429 -0.1178 -0.5931  0.3385
 4437TIP3    H134802   4.573   6.049   4.351 -1.4182  1.1973 -0.0817
 4437TIP3    H234803   4.686   6.138   4.398  1.0914 -2.1987  0.7342
 4438TIP3   OH234804   4.266   3.616   5.516  0.2435  0.5847  0.0831
 4438TIP3    H134805   4.304   3.700   5.540 -0.5145  0.9796 -0.0844
 4438TIP3    H234806   4.177   3.618   5.552  0.0003  0.1179 -0.4810
 4439TIP3   OH234807   2.348   0.482   2.681 -0.0131  0.0555  0.1351
 4439TIP3    H134808   2.304   0.567   2.677  1.3589  0.8202  0.5122
 4439TIP3    H234809   2.417   0.488   2.615  0.6868 -0.4104  0.8050
 4440TIP3   OH234810   2.796   2.752  12.192 -1.1593  0.7479 -0.2957
 4440TIP3    H134811   2.741   2.769  12.116  0.6107  1.2749 -1.5080
 4440TIP3    H234812   2.763   2.669  12.227 -1.9344  0.4284 -1.7040
 4441TIP3   OH234813   5.734   3.100  11.044  0.1763  0.4381  0.2613
 4441TIP3    H134814   5.751   3.006  11.033  1.1744  0.6099  0.2745
 4441TIP3    H234815   5.638   3.106  11.045  0.0929 -0.5520  0.0454
 4442TIP3   OH234816   4.890   6.790  16.061  0.0336 -0.3735 -0.5803
 4442TIP3    H134817   4.805   6.748  16.068 -1.0422  1.9094  1.0454
 4442TIP3    H234818   4.950   6.729  16.104 -0.7642 -1.8773 -1.4938
 4443TIP3   OH234819   4.782   0.364  12.982  0.4594  0.0958  0.1058
 4443TIP3    H134820   4.875   0.380  12.969  0.5885 -1.5108 -1.3789
 4443TIP3    H234821   4.774   0.269  12.981 -1.2342  0.2065 -0.1530
 4444TIP3   OH234822   3.574   5.417  10.311  0.3420  0.8247  0.4253
 4444TIP3    H134823   3.593   5.363  10.388  1.1350  0.2195 -0.1797
 4444TIP3    H234824   3.640   5.392  10.247 -0.7672  0.7535 -0.7355
 4445TIP3   OH234825   6.615   6.503   4.906 -0.2231 -0.1286  0.6869
 4445TIP3    H134826   6.541   6.455   4.944 -0.7088  0.2514  0.2271
 4445TIP3    H234827   6.667   6.435   4.863 -1.5432 -0.1512 -1.0036
 4446TIP3   OH234828   0.867   3.902   4.877 -0.3935 -0.2647  0.3801
 4446TIP3    H134829   0.923   3.948   4.815 -0.3407  0.1056  0.7013
 4446TIP3    H234830   0.788   3.881   4.827 -0.5102  0.3708  0.2989
 4447TIP3   OH234831   0.136   4.412  12.941  0.3191  0.2891 -0.2331
 4447TIP3    H134832   0.074   4.347  12.975 -0.0418  0.3086 -0.8319
 4447TIP3    H234833   0.136   4.397  12.846  1.5665 -0.0036 -0.2077
 4448TIP3   OH234834   6.524   1.248   2.294  0.0023  0.6521  0.3052
 4448TIP3    H134835   6.577   1.304   2.237  0.6313  1.1650  1.3669
 4448TIP3    H234836   6.447   1.301   2.315 -0.6884  0.1233 -0.7647
 4449TIP3   OH234837   1.594   2.991  11.429  0.5051  0.5860  0.2099
 4449TIP3    H134838   1.593   2.943  11.347  2.2173 -0.9198  0.9964
 4449TIP3    H234839   1.512   3.041  11.429 -0.1059 -0.3206 -1.8245
 4450TIP3   OH234840   5.412   0.920   2.650  0.0581  0.2078  0.4200
 4450TIP3    H134841   5.484   0.938   2.711  0.9642 -0.5720 -0.3708
 4450TIP3    H234842   5.344   0.880   2.703 -1.4797  4.4102  1.9909
 4451TIP3   OH234843   0.028   0.418  11.128  0.2057 -0.0906 -0.0333
 4451TIP3    H134844   0.072   0.450  11.050 -0.5905 -2.7882 -1.7326
 4451TIP3    H234845  -0.065   0.432  11.111 -0.0465 -1.6694 -0.1059
 4452TIP3   OH234846   1.927   5.628  11.863  0.1121  0.1146 -0.5225
 4452TIP3    H134847   2.018   5.653  11.853  0.1666 -0.2460 -0.9809
 4452TIP3    H234848   1.930   5.538  11.897 -0.0730  0.2324 -0.1854
 4453TIP3   OH234849   3.045   4.096   5.436  0.0983 -0.1149 -0.3274
 4453TIP3    H134850   3.120   4.062   5.485  1.4111 -0.4573 -2.4382
 4453TIP3    H234851   3.012   4.168   5.490  1.8854 -0.0121  0.7091
 4454TIP3   OH234852   2.586   6.100   2.910 -0.0448 -0.2431 -0.1513
 4454TIP3    H134853   2.574   6.006   2.894 -1.8228 -0.5115  2.2311
 4454TIP3    H234854   2.617   6.105   3.000  1.5237  1.4387 -0.7351
 4455TIP3   OH234855   2.351   5.278   2.140  0.3136 -0.3863 -0.1777
 4455TIP3    H134856   2.419   5.270   2.207  3.0381  1.9146 -2.4473
 4455TIP3    H234857   2.303   5.358   2.165  0.1141 -0.5543 -0.0127
 4456TIP3   OH234858   4.479   1.153   5.140 -0.0152  0.2637 -0.3689
 4456TIP3    H134859   4.551   1.146   5.077  1.1986 -0.4998  1.0293
 4456TIP3    H234860   4.417   1.085   5.114 -0.6252  1.3766 -2.0065
 4457TIP3   OH234861   0.575   1.045   0.603  0.0547 -0.6793 -0.3908
 4457TIP3    H134862   0.545   1.136   0.607 -1.1130 -0.9678 -1.8823
 4457TIP3    H234863   0.548   1.007   0.686  0.5524  0.3180  0.2479
 4458TIP3   OH234864   0.018   2.693   3.319 -0.2860 -0.0877 -0.7484
 4458TIP3    H134865   0.103   2.735   3.301  0.1570  1.0098  3.0770
 4458TIP3    H234866  -0.046   2.754   3.285  0.4621  1.6338  0.7408
 4459TIP3   OH234867   4.904   1.635  15.639 -0.5811 -0.2669  0.2740
 4459TIP3    H134868   4.931   1.578  15.567 -0.5859 -0.9238  0.7844
 4459TIP3    H234869   4.952   1.602  15.715 -1.0470  0.0335  0.7048
 4460TIP3   OH234870   5.367   6.090  15.117 -0.3210 -0.2370  0.0807
 4460TIP3    H134871   5.286   6.039  15.115  0.2465 -1.1428 -0.5414
 4460TIP3    H234872   5.422   6.047  15.183 -0.7322  1.0229  1.2981
 4461TIP3   OH234873   4.710   4.959   3.743  0.0309  1.0450  0.5102
 4461TIP3    H134874   4.732   4.875   3.703 -1.0873  0.3010  1.3804
 4461TIP3    H234875   4.788   5.012   3.732  0.4587  0.1987 -0.8408
 4462TIP3   OH234876   0.230   1.787   6.836  0.1922 -0.2142  0.1404
 4462TIP3    H134877   0.273   1.713   6.878 -1.8289 -1.0250  0.8852
 4462TIP3    H234878   0.216   1.760   6.746 -1.8486 -1.4055  0.7570
 4463TIP3   OH234879   1.904   0.618  12.299 -0.1091 -0.0392 -0.0886
 4463TIP3    H134880   1.919   0.571  12.381 -0.0980  0.0666 -0.0291
 4463TIP3    H234881   1.820   0.584  12.267 -0.4629  0.4254  0.3291
 4464TIP3   OH234882   6.794   5.136  12.722  0.6295  0.0140  0.4066
 4464TIP3    H134883   6.761   5.053  12.686  0.2015  0.5788 -0.5217
 4464TIP3    H234884   6.772   5.132  12.815  0.4850 -0.8504  0.3453
 4465TIP3   OH234885   3.273   5.728   5.811 -0.2153 -0.4182 -0.2483
 4465TIP3    H134886   3.346   5.722   5.872 -1.7768 -0.9425  1.6553
 4465TIP3    H234887   3.261   5.638   5.779  1.2724  0.0279 -2.2512
 4466TIP3   OH234888   4.251   3.858  14.888  0.1053 -0.1311 -0.6659
 4466TIP3    H134889   4.230   3.793  14.954  0.9998 -1.0052 -1.2225
 4466TIP3    H234890   4.243   3.942  14.933  2.1681 -0.7438  0.9897
 4467TIP3   OH234891   4.673   6.379   0.469 -0.0059  0.2911  0.9314
 4467TIP3    H134892   4.656   6.463   0.510 -0.1118  0.1969  1.0826
 4467TIP3    H234893   4.715   6.327   0.538 -0.8348 -0.1086  1.1551
 4468TIP3   OH234894   1.277   4.320  15.561  0.1081 -0.0910 -0.8993
 4468TIP3    H134895   1.201   4.333  15.504 -0.7556  0.3131  0.2845
 4468TIP3    H234896   1.309   4.409  15.578 -0.0504 -0.1567 -0.2367
 4469TIP3   OH234897   5.052   6.705  16.947 -0.1671 -0.9524 -0.0794
 4469TIP3    H134898   4.962   6.674  16.948 -0.1964 -0.8647  1.2895
 4469TIP3    H234899   5.048   6.793  16.984  0.4155 -0.7465 -0.4877
 4470TIP3   OH234900   4.983   4.651  17.167 -0.0589  0.6616  0.3371
 4470TIP3    H134901   5.011   4.568  17.203  1.1217 -0.3109 -2.5047
 4470TIP3    H234902   5.057   4.710  17.181  0.9261 -0.0645 -1.3721
 4471TIP3   OH234903   3.461   2.805   4.728  0.5438 -0.0456 -0.1985
 4471TIP3    H134904   3.536   2.810   4.669  0.4255 -3.3712 -0.8507
 4471TIP3    H234905   3.500   2.789   4.814  0.6263  1.6985  0.1142
 4472TIP3   OH234906   4.361   4.817  13.923 -0.3241  0.7572  0.3952
 4472TIP3    H134907   4.268   4.837  13.914 -0.4459  0.1165  0.1560
 4472TIP3    H234908   4.371   4.731  13.882  0.7546  1.6903 -1.3681
 4473TIP3   OH234909   5.411   1.702   4.327  0.2653  0.3837  0.6016
 4473TIP3    H134910   5.468   1.700   4.251 -1.6056  2.9470 -1.0323
 4473TIP3    H234911   5.338   1.645   4.304 -0.2199  1.0273  0.5097
 4474TIP3   OH234912   3.595   4.654   2.005  0.0254 -0.2974 -0.2060
 4474TIP3    H134913   3.603   4.728   2.065  0.3566 -0.6494  0.1936
 4474TIP3    H234914   3.507   4.621   2.019  0.4776 -1.0826  0.9391
 4475TIP3   OH234915   4.740   6.375  10.595  0.3574  0.1020 -0.6027
 4475TIP3    H134916   4.687   6.412  10.666 -0.9758  0.2605 -1.6330
 4475TIP3    H234917   4.823   6.421  10.601  0.5862 -0.4940  1.3696
 4476TIP3   OH234918   4.021   3.511  12.591  0.4455  0.0707  0.1582
 4476TIP3    H134919   4.044   3.420  12.609 -0.5069 -0.1353  0.3795
 4476TIP3    H234920   3.972   3.540  12.668 -0.7731  0.2186 -0.6427
 4477TIP3   OH234921   3.222   5.081  14.558  0.1271 -0.4603  0.8908
 4477TIP3    H134922   3.217   5.174  14.536  1.6044 -0.1128  1.7870
 4477TIP3    H234923   3.136   5.060  14.595 -0.8718  0.0311 -1.0486
 4478TIP3   OH234924   2.725   2.640  13.729 -0.5169 -0.7096  0.2035
 4478TIP3    H134925   2.819   2.630  13.714 -0.2627  1.7739 -0.1663
 4478TIP3    H234926   2.718   2.668  13.821 -0.7603  0.3762 -0.1286
 4479TIP3   OH234927   2.936   5.034  11.339  0.0254 -0.4274 -0.2522
 4479TIP3    H134928   3.025   5.055  11.366 -0.1236 -1.6469  1.4059
 4479TIP3    H234929   2.887   5.115  11.353  0.4193 -0.4012  1.1863
 4480TIP3   OH234930   1.757   1.835   3.577 -0.3283 -0.5787  0.0256
 4480TIP3    H134931   1.834   1.788   3.608 -0.4144 -1.5455 -1.1866
 4480TIP3    H234932   1.757   1.822   3.483 -1.2317  0.5537 -0.1494
 4481TIP3   OH234933   3.951   1.316  12.423 -0.0728  0.7172  0.2169
 4481TIP3    H134934   3.880   1.379  12.411 -0.0104  1.1343  1.8220
 4481TIP3    H234935   3.930   1.245  12.363 -1.0329  1.5070 -0.4212
 4482TIP3   OH234936   3.059   2.401  17.055  0.3947  0.0295 -0.3153
 4482TIP3    H134937   3.082   2.479  17.005 -3.0513  1.4681  0.0094
 4482TIP3    H234938   3.105   2.412  17.139 -0.4754  2.1155 -0.0496
 4483TIP3   OH234939   4.497   1.253  15.240  0.4109 -0.3777 -0.0925
 4483TIP3    H134940   4.452   1.190  15.296  0.6306  0.0707  0.5924
 4483TIP3    H234941   4.427   1.308  15.204  0.2837 -0.5819 -0.1599
 4484TIP3   OH234942   3.465   3.449   6.157  0.6772  0.6627  0.3829
 4484TIP3    H134943   3.491   3.516   6.220  3.3797 -0.0859  0.1923
 4484TIP3    H234944   3.442   3.374   6.210  0.7314  0.7500  0.5312
 4485TIP3   OH234945   0.015   1.622   1.560 -0.6715 -0.2073  0.3248
 4485TIP3    H134946   0.063   1.693   1.516 -0.6667 -0.0635  0.5637
 4485TIP3    H234947  -0.062   1.665   1.598 -0.5295 -0.2806  0.6972
 4486TIP3   OH234948   5.760   0.003  15.915  0.7629 -0.1664 -0.6830
 4486TIP3    H134949   5.665  -0.003  15.928  0.5599  1.8683 -0.8871
 4486TIP3    H234950   5.796   0.003  16.004  0.4880 -0.0952 -0.5687
 4487TIP3   OH234951   6.013   2.548   5.288 -0.1343  0.3808  0.7621
 4487TIP3    H134952   6.009   2.636   5.325  0.9167  0.6321  0.3266
 4487TIP3    H234953   6.089   2.508   5.330 -0.4467 -0.2166  0.7542
 4488TIP3   OH234954   3.164   3.738   0.726  0.1359  0.0049  0.3139
 4488TIP3    H134955   3.153   3.785   0.644 -0.6854 -1.3930 -0.4192
 4488TIP3    H234956   3.259   3.728   0.736  0.2233 -0.7450 -1.0501
 4489TIP3   OH234957   1.181   4.698  14.694  0.0533 -0.1543 -0.4670
 4489TIP3    H134958   1.250   4.713  14.758  2.0383 -2.8602 -1.7832
 4489TIP3    H234959   1.141   4.784  14.682  1.6380  1.0635  2.0299
 4490TIP3   OH234960   5.385   2.170  16.234  0.2269 -0.2433  0.9213
 4490TIP3    H134961   5.309   2.144  16.182  1.8565 -1.2099 -1.1113
 4490TIP3    H234962   5.416   2.250  16.191 -0.3467  0.9284  2.5608
 4491TIP3   OH234963   0.184   1.269  16.487  0.2372 -0.1775 -0.3137
 4491TIP3    H134964   0.264   1.307  16.451  0.4879 -1.0121 -0.6346
 4491TIP3    H234965   0.128   1.253  16.411  0.2471 -0.7259 -0.2029
 4492TIP3   OH234966   3.172   1.032   1.024 -0.3910 -0.3407 -0.4025
 4492TIP3    H134967   3.229   0.964   1.060  0.3314  0.2154 -0.4902
 4492TIP3    H234968   3.106   1.046   1.091  0.6179  0.2877  0.4837
 4493TIP3   OH234969   5.010   2.798  11.094 -0.2302 -1.1928 -0.3133
 4493TIP3    H134970   4.952   2.721  11.092 -0.1559 -1.2504 -0.2530
 4493TIP3    H234971   5.091   2.765  11.133  0.0624 -1.2661 -0.9642
 4494TIP3   OH234972   1.100   0.416   2.639 -0.2172  0.3576  0.5725
 4494TIP3    H134973   1.054   0.431   2.557 -0.8735  2.1185  1.1997
 4494TIP3    H234974   1.068   0.486   2.697  1.0207 -0.1925  1.9813
 4495TIP3   OH234975   2.266   2.918  17.214  0.2626  0.1131 -0.0558
 4495TIP3    H134976   2.238   3.008  17.202  1.7427  0.4860 -0.9365
 4495TIP3    H234977   2.238   2.873  17.135  0.8035  0.1461 -0.2710
 4496TIP3   OH234978   3.682   4.299   3.631  1.1168  0.5676  0.3122
 4496TIP3    H134979   3.629   4.378   3.629  0.8031  0.3994  1.3900
 4496TIP3    H234980   3.690   4.277   3.724  1.1009 -0.7208  0.0378
 4497TIP3   OH234981   0.379   0.774   1.274 -0.0448 -0.1110  0.2512
 4497TIP3    H134982   0.319   0.773   1.199  0.6775  0.8089 -0.3656
 4497TIP3    H234983   0.353   0.698   1.326 -1.7086  0.2177 -0.0163
 4498TIP3   OH234984   0.276   1.241  11.076 -0.7451 -0.3296  0.4690
 4498TIP3    H134985   0.272   1.160  11.025  0.2441 -1.5005  2.1239
 4498TIP3    H234986   0.317   1.305  11.018 -1.1795 -1.1184 -0.7437
 4499TIP3   OH234987   0.495   3.531   3.902  0.1516  0.7090  0.0180
 4499TIP3    H134988   0.409   3.569   3.887  0.2705  0.7509 -0.5735
 4499TIP3    H234989   0.512   3.548   3.995 -0.5080  0.6242  0.1604
 4500TIP3   OH234990   6.028   0.884   0.249 -0.2699 -0.5126  0.7443
 4500TIP3    H134991   5.940   0.920   0.260  0.2517  1.2404 -0.3800
 4500TIP3    H234992   6.071   0.898   0.333 -0.6254 -0.0331  0.8501
 4501TIP3   OH234993   2.500   2.505   2.205 -0.3020  0.0375  0.2778
 4501TIP3    H134994   2.494   2.431   2.266  1.7721 -0.6859 -0.3241
 4501TIP3    H234995   2.534   2.467   2.124 -1.3601  1.2892 -0.7937
 4502TIP3   OH234996   2.808   5.089   2.059  0.6058  0.3372 -0.8988
 4502TIP3    H134997   2.775   5.176   2.040  0.2946  0.2620 -0.6977
 4502TIP3    H234998   2.866   5.069   1.985  1.1563  0.9576 -0.6469
 4503TIP3   OH234999   5.122   6.639   5.247 -0.0469  0.3639  0.4915
 4503TIP3    H135000   5.112   6.577   5.174  1.9085  0.3260  0.2161
 4503TIP3    H235001   5.040   6.631   5.296 -1.7020  0.8235 -2.0019
 4504TIP3   OH235002   4.058   2.868  13.671 -0.3922  0.4475  0.0024
 4504TIP3    H135003   4.090   2.912  13.592  0.5688 -0.3635 -0.0835
 4504TIP3    H235004   3.965   2.891  13.675 -0.3243  0.9881 -1.0296
 4505TIP3   OH235005   5.914   1.704  15.365  0.4096  0.0082  0.1817
 4505TIP3    H135006   5.837   1.701  15.421 -0.4436  2.8608 -0.6815
 4505TIP3    H235007   5.907   1.626  15.309 -0.9103 -0.6648  1.2394
 4506TIP3   OH235008   3.949   5.511  12.041 -0.2298  0.4128  0.4190
 4506TIP3    H135009   3.929   5.566  11.965  0.4699  0.4660  0.2697
 4506TIP3    H235010   4.042   5.524  12.057 -0.0224 -0.7970  0.3192
 4507TIP3   OH235011   1.828   5.492   3.828 -0.4001  0.2514 -0.3716
 4507TIP3    H135012   1.874   5.407   3.831 -1.9472 -0.6106  0.2861
 4507TIP3    H235013   1.801   5.502   3.737  0.0495  0.1891 -0.5139
 4508TIP3   OH235014   4.927   4.471   6.192  0.1309 -0.0635  0.3416
 4508TIP3    H135015   4.972   4.443   6.112  0.5325 -0.5047  0.7151
 4508TIP3    H235016   4.865   4.401   6.211  0.6095 -0.3629  0.8607
 4509TIP3   OH235017   0.538   1.841   4.647  0.2096  0.3248 -0.1042
 4509TIP3    H135018   0.626   1.808   4.660 -0.5774 -3.2250 -2.2961
 4509TIP3    H235019   0.539   1.879   4.560 -0.9018 -2.2216 -1.3276
 4510TIP3   OH235020   1.129   3.363  10.810  0.3448 -0.3658  0.1994
 4510TIP3    H135021   1.087   3.430  10.755 -1.6986  0.1905  2.3064
 4510TIP3    H235022   1.079   3.283  10.794  0.3657 -0.4442  0.5211
 4511TIP3   OH235023   6.342   5.090  13.084  0.3803 -0.1051 -0.2443
 4511TIP3    H135024   6.318   5.178  13.114  0.2581 -0.2300  0.0292
 4511TIP3    H235025   6.258   5.045  13.074  0.4452 -0.2013 -0.3479
 4512TIP3   OH235026   6.698   0.808  16.042 -0.0741  0.4904 -0.1563
 4512TIP3    H135027   6.791   0.787  16.056  0.1337  1.3821 -0.1400
 4512TIP3    H235028   6.651   0.736  16.083  0.6202 -0.7739 -1.4678
 4513TIP3   OH235029   5.390   2.974  16.534 -0.0423 -0.0823  0.3274
 4513TIP3    H135030   5.418   2.967  16.443  1.4112 -1.4346  0.8310
 4513TIP3    H235031   5.294   2.978  16.529 -0.1282 -2.1974 -1.2045
 4514TIP3   OH235032   0.758   6.690   4.796  0.5286  0.0909 -0.0203
 4514TIP3    H135033   0.778   6.648   4.712 -1.1815 -2.8676  0.8883
 4514TIP3    H235034   0.777   6.623   4.862 -2.7290  0.4828  1.5298
 4515TIP3   OH235035   4.179   0.672  15.557 -0.4594 -0.2152  0.0422
 4515TIP3    H135036   4.226   0.731  15.497 -1.1690  1.8696  1.4535
 4515TIP3    H235037   4.087   0.682  15.534 -0.5154 -1.7945 -0.5370
 4516TIP3   OH235038   0.510   3.374  13.656 -0.1766  0.4212  0.0672
 4516TIP3    H135039   0.439   3.342  13.601  0.8285  0.4287 -1.2902
 4516TIP3    H235040   0.488   3.344  13.744 -1.7320  0.2427 -0.3656
 4517TIP3   OH235041   3.991   5.895   4.538  0.7190 -0.5802 -0.0036
 4517TIP3    H135042   3.947   5.869   4.619  0.6952 -0.8285 -0.0966
 4517TIP3    H235043   4.009   5.988   4.550 -1.6966  0.0479 -0.8257
 4518TIP3   OH235044   5.212   4.531  11.636 -0.4023 -0.2160  0.2410
 4518TIP3    H135045   5.296   4.576  11.628 -0.9165  2.4043  5.3895
 4518TIP3    H235046   5.228   4.460  11.698 -1.4637 -1.7468 -1.1412
 4519TIP3   OH235047   2.446   3.470  12.662 -0.2324 -0.8464  0.3652
 4519TIP3    H135048   2.425   3.425  12.744 -1.5516 -0.2325  0.3955
 4519TIP3    H235049   2.410   3.414  12.594 -2.3825  0.3549  0.4332
 4520TIP3   OH235050   1.995   2.557  11.583  0.4823  0.0624 -0.6690
 4520TIP3    H135051   2.088   2.572  11.563  0.2648  2.7836 -0.0206
 4520TIP3    H235052   1.989   2.566  11.678 -0.3323 -0.9886 -0.6069
 4521TIP3   OH235053   3.233   6.332  16.102 -0.3208 -0.9193 -0.5577
 4521TIP3    H135054   3.245   6.314  16.196 -0.3124 -1.3218 -0.6379
 4521TIP3    H235055   3.185   6.415  16.101 -0.5377 -1.0356 -0.1916
 4522TIP3   OH235056   5.438   0.778  14.972 -0.3717 -0.1587  0.0235
 4522TIP3    H135057   5.499   0.723  15.021  0.2943 -1.3415 -2.0086
 4522TIP3    H235058   5.353   0.764  15.014  0.5261  0.7346  2.2662
 4523TIP3   OH235059   4.905   1.620   2.981  0.4145  0.0749 -0.1892
 4523TIP3    H135060   4.864   1.704   3.002  0.2485 -0.2158  0.6802
 4523TIP3    H235061   4.895   1.568   3.060  2.4524 -0.0259  0.0529
 4524TIP3   OH235062   2.660   0.771  12.083 -0.1538 -0.0470  0.4844
 4524TIP3    H135063   2.640   0.723  12.163 -0.4207 -2.0064 -0.6946
 4524TIP3    H235064   2.581   0.821  12.065  0.1325  0.9028  1.7507
 4525TIP3   OH235065   0.801   4.909   5.137 -0.3172 -0.2532 -0.1053
 4525TIP3    H135066   0.764   4.986   5.095 -1.5470 -1.0711 -0.5526
 4525TIP3    H235067   0.808   4.933   5.230  1.3654  1.1497 -0.5423
 4526TIP3   OH235068   5.257   4.628  15.894 -0.1706  0.5411 -0.5004
 4526TIP3    H135069   5.190   4.670  15.840 -0.7458  1.7637  1.0977
 4526TIP3    H235070   5.323   4.696  15.906 -0.1172  0.3260  0.4360
 4527TIP3   OH235071   6.698   3.264   5.776 -0.3012  0.2221 -0.3088
 4527TIP3    H135072   6.605   3.246   5.787  0.0083 -1.4997 -0.2350
 4527TIP3    H235073   6.719   3.324   5.848 -1.3403  0.6356 -0.3342
 4528TIP3   OH235074   4.854   6.576   5.376 -0.7449  0.1708  0.2296
 4528TIP3    H135075   4.759   6.570   5.388 -0.6828 -0.2242  0.5390
 4528TIP3    H235076   4.891   6.549   5.461 -0.3773  1.6476  0.5585
 4529TIP3   OH235077   1.849   6.185   3.897  0.1528  0.2214 -0.5177
 4529TIP3    H135078   1.878   6.229   3.976 -2.9456 -0.4088  1.1127
 4529TIP3    H235079   1.865   6.092   3.914  2.3648  0.2443 -2.0276
 4530TIP3   OH235080   1.448   6.620   6.681 -0.4297 -0.0879 -0.4994
 4530TIP3    H135081   1.540   6.643   6.671 -0.1647 -1.3534 -1.2461
 4530TIP3    H235082   1.401   6.683   6.627  0.2751 -1.2545 -2.5786
 4531TIP3   OH235083   1.348   6.040   0.314  0.5011  0.5550 -0.1012
 4531TIP3    H135084   1.253   6.033   0.315  0.5989 -3.6044  1.5567
 4531TIP3    H235085   1.374   6.009   0.227  0.3134 -0.4342  0.1768
 4532TIP3   OH235086   5.606   5.566   1.029  0.0385  0.2398 -0.4518
 4532TIP3    H135087   5.551   5.597   1.101 -1.3806  0.1684 -1.4730
 4532TIP3    H235088   5.611   5.471   1.042  2.0499  0.4683  1.0530
 4533TIP3   OH235089   3.654   0.857   2.068 -0.4022 -0.4432  0.0332
 4533TIP3    H135090   3.601   0.927   2.106  0.2775  0.1868 -0.1380
 4533TIP3    H235091   3.644   0.867   1.973 -0.7918 -0.9742  0.0140
 4534TIP3   OH235092   3.673   5.287  12.457  0.8249 -0.2868  0.3590
 4534TIP3    H135093   3.675   5.328  12.370  2.7135 -0.6439  0.1838
 4534TIP3    H235094   3.667   5.361  12.517 -2.4272 -0.1007 -0.0440
 4535TIP3   OH235095   1.574   4.641  15.795 -0.3741 -0.0092  0.3451
 4535TIP3    H135096   1.624   4.579  15.742 -0.9222 -1.9785  2.0246
 4535TIP3    H235097   1.498   4.663  15.740  0.0938 -0.3921 -0.4765
 4536TIP3   OH235098   5.537   4.290   3.919 -0.4339  0.2491  0.1239
 4536TIP3    H135099   5.599   4.282   3.992  0.5866 -0.0392 -0.7450
 4536TIP3    H235100   5.451   4.283   3.960  0.0742  1.3842  1.4535
 4537TIP3   OH235101   2.960   4.492  16.523  1.0235  0.5204 -0.5944
 4537TIP3    H135102   2.983   4.539  16.444  1.0167 -0.2380 -1.0577
 4537TIP3    H235103   2.983   4.401  16.505 -0.4103  0.0722 -0.3145
 4538TIP3   OH235104   1.575   0.817  10.460 -0.3826 -0.3596 -0.1036
 4538TIP3    H135105   1.534   0.840  10.543  0.0730  0.0525  0.0098
 4538TIP3    H235106   1.505   0.830  10.395 -0.6604 -0.4304  0.1785
 4539TIP3   OH235107   1.534   4.640   4.234 -0.4735  0.3829 -0.7534
 4539TIP3    H135108   1.453   4.625   4.283  0.6443  1.5860  1.6017
 4539TIP3    H235109   1.547   4.558   4.185 -3.2385  0.2779 -1.5377
 4540TIP3   OH235110   3.653   6.617   4.590 -0.1166  0.1307  0.5286
 4540TIP3    H135111   3.599   6.674   4.644  0.4415 -0.4634  1.7424
 4540TIP3    H235112   3.688   6.674   4.522 -0.1760  1.0729  1.2782
 4541TIP3   OH235113   0.221   4.809  15.583  0.4659  0.4254 -0.3914
 4541TIP3    H135114   0.218   4.808  15.679  0.8197 -3.3293 -0.2799
 4541TIP3    H235115   0.313   4.793  15.563  0.5596  2.0449 -1.4646
 4542TIP3   OH235116   6.452   2.353  12.183 -0.6904 -0.3839  0.2649
 4542TIP3    H135117   6.486   2.293  12.117  1.8649  0.8478  0.3397
 4542TIP3    H235118   6.427   2.432  12.133 -0.8551 -0.2715  0.5226
 4543TIP3   OH235119   4.265   4.802  13.020 -0.0913  0.5269  0.1148
 4543TIP3    H135120   4.242   4.814  13.113 -0.6520  1.6934 -0.1482
 4543TIP3    H235121   4.316   4.880  12.998 -1.3731  1.1073 -0.9706
 4544TIP3   OH235122   0.419   4.097  12.393 -0.9855  0.3625  0.2201
 4544TIP3    H135123   0.381   4.047  12.321 -0.6529 -0.0985  0.3641
 4544TIP3    H235124   0.361   4.081  12.467 -0.7738  0.0332  0.3170
 4545TIP3   OH235125   4.295   3.084  13.711  0.2501  0.1392 -0.2369
 4545TIP3    H135126   4.213   3.133  13.716  0.7345  0.9438 -0.0804
 4545TIP3    H235127   4.268   2.992  13.715 -0.7234  0.3607 -1.2070
 4546TIP3   OH235128   1.381   5.793   1.309 -0.2747  0.3202 -0.1831
 4546TIP3    H135129   1.431   5.863   1.268 -1.2465  0.2366 -1.5897
 4546TIP3    H235130   1.385   5.720   1.247  0.7515 -0.9266  1.2754
 4547TIP3   OH235131   1.570   1.479  16.174  0.3517  0.0400  0.8039
 4547TIP3    H135132   1.502   1.522  16.122  0.5001  0.0996  0.6594
 4547TIP3    H235133   1.563   1.519  16.261  0.3261  0.1781  0.7382
 4548TIP3   OH235134   0.760   3.268   5.159 -0.0788  0.6110  0.5793
 4548TIP3    H135135   0.820   3.298   5.091 -0.6551 -1.1451 -0.7835
 4548TIP3    H235136   0.813   3.266   5.238  1.3874  0.1168 -0.3630
 4549TIP3   OH235137   3.787   3.735  14.531 -0.4743  0.3128 -0.0407
 4549TIP3    H135138   3.863   3.693  14.571 -1.7356  0.8211  3.1315
 4549TIP3    H235139   3.752   3.669  14.471  1.0420 -0.8225  0.2747
 4550TIP3   OH235140   0.842   2.429  15.409 -0.4780 -0.2358 -0.3263
 4550TIP3    H135141   0.911   2.446  15.473  0.4794 -0.3492 -1.2911
 4550TIP3    H235142   0.769   2.485  15.437  0.4911  0.9502 -0.0586
 4551TIP3   OH235143   4.718   1.394   5.374  0.4514 -0.4463 -0.3324
 4551TIP3    H135144   4.777   1.441   5.433 -0.8573 -0.6080  1.1822
 4551TIP3    H235145   4.690   1.459   5.311 -0.5175  0.5955  1.1068
 4552TIP3   OH235146   5.703   0.153  11.879 -0.3733 -0.2059  0.5555
 4552TIP3    H135147   5.650   0.095  11.823  2.0355 -1.2795 -0.7745
 4552TIP3    H235148   5.757   0.093  11.930  0.0388  0.8495  1.3802
 4553TIP3   OH235149   4.755   2.370   2.501 -0.3687 -0.2645  0.5079
 4553TIP3    H135150   4.755   2.388   2.595 -0.5019  0.6870  0.3361
 4553TIP3    H235151   4.843   2.336   2.484  1.0560  3.1031  0.3765
 4554TIP3   OH235152   5.042   0.827   3.763 -0.1647 -0.1073 -0.2248
 4554TIP3    H135153   5.121   0.777   3.786 -0.0836 -0.5266 -1.3303
 4554TIP3    H235154   4.984   0.817   3.839  0.0959 -1.3976 -0.1657
 4555TIP3   OH235155   4.102   1.139  11.609  0.2636  0.1464  0.2416
 4555TIP3    H135156   4.161   1.189  11.666  0.5535 -0.6544  0.6573
 4555TIP3    H235157   4.026   1.196  11.598 -0.7325 -0.4979  3.1405
 4556TIP3   OH235158   1.898   3.493  11.120 -0.1869  0.2604 -0.2433
 4556TIP3    H135159   1.970   3.512  11.060 -0.2671  2.0448  0.1801
 4556TIP3    H235160   1.829   3.456  11.065  0.5615 -0.2293 -0.8616
 4557TIP3   OH235161   6.590   1.383   4.557 -0.1064 -0.8934  0.1063
 4557TIP3    H135162   6.606   1.394   4.651  0.1361  1.1645 -0.1266
 4557TIP3    H235163   6.610   1.291   4.540  0.8980 -1.0510  1.8715
 4558TIP3   OH235164   4.452   4.268  12.613 -0.2389  0.2873 -0.0640
 4558TIP3    H135165   4.422   4.313  12.692 -0.8135  0.5005 -0.4000
 4558TIP3    H235166   4.482   4.338  12.556  1.5487  0.0417  0.5177
 4559TIP3   OH235167   3.932   0.798   1.020  0.5334 -0.7072 -0.2293
 4559TIP3    H135168   3.841   0.803   0.989  0.3669 -0.4724  0.2702
 4559TIP3    H235169   3.934   0.721   1.076  1.1950 -1.9706 -1.9281
 4560TIP3   OH235170   1.540   1.988   1.662 -0.3266  0.9313 -0.0602
 4560TIP3    H135171   1.548   2.050   1.590 -1.1807  1.8371  0.6110
 4560TIP3    H235172   1.454   1.947   1.650 -0.1304  0.4888 -0.0028
 4561TIP3   OH235173   0.568   0.064  12.229 -0.6573 -0.1369 -0.6823
 4561TIP3    H135174   0.565   0.121  12.306 -2.9439  0.3810 -1.0883
 4561TIP3    H235175   0.605   0.119  12.160  0.8308 -0.4158 -0.1398
 4562TIP3   OH235176   3.112   0.535  16.108  0.0242 -0.8578 -0.7742
 4562TIP3    H135177   3.157   0.500  16.031  0.3664  1.1459 -1.5429
 4562TIP3    H235178   3.020   0.540  16.083  0.0049 -0.9931 -0.7331
 4563TIP3   OH235179   3.233   5.452   5.203  0.3227 -0.2537  0.8115
 4563TIP3    H135180   3.289   5.374   5.202  0.8707  0.1216  1.2706
 4563TIP3    H235181   3.218   5.471   5.110  0.0047 -1.0277  0.7009
 4564TIP3   OH235182   1.819   3.248  14.186 -0.5222  0.0775  0.2146
 4564TIP3    H135183   1.749   3.187  14.212  0.0026  0.1136  1.7947
 4564TIP3    H235184   1.802   3.328  14.235  1.3083 -0.3320  1.6258
 4565TIP3   OH235185   5.535   4.092   0.509  0.0143  0.0323 -0.0576
 4565TIP3    H135186   5.602   4.038   0.466  0.0752 -0.0247  0.1036
 4565TIP3    H235187   5.565   4.097   0.600  0.3097  0.8103 -0.1866
 4566TIP3   OH235188   2.425   6.723   2.207  0.0116  0.0397 -0.1008
 4566TIP3    H135189   2.402   6.788   2.142 -1.3074  1.7496  1.9551
 4566TIP3    H235190   2.364   6.737   2.279  0.4005 -2.7609  0.9303
 4567TIP3   OH235191   6.543   2.257  14.268 -0.0205  0.7931  0.2823
 4567TIP3    H135192   6.599   2.334  14.261 -1.4507  1.8021 -0.9666
 4567TIP3    H235193   6.581   2.205  14.338  3.1531  0.7908 -1.2597
 4568TIP3   OH235194   4.478   0.204  11.228  0.1114  0.2547 -0.6423
 4568TIP3    H135195   4.501   0.248  11.147  1.9782 -3.5692 -2.4664
 4568TIP3    H235196   4.424   0.130  11.201 -0.3149 -0.3941  1.7546
 4569TIP3   OH235197   5.460   1.019  11.460  0.3663 -0.1906 -0.1493
 4569TIP3    H135198   5.371   0.997  11.488 -0.3311  1.7505 -0.6453
 4569TIP3    H235199   5.463   0.992  11.368  0.9088 -1.8191  0.3119
 4570TIP3   OH235200   4.518   5.443  16.960 -0.3753  0.0863  0.7631
 4570TIP3    H135201   4.535   5.457  17.053 -0.3646 -1.0972  0.9437
 4570TIP3    H235202   4.468   5.362  16.956 -0.0851 -0.0540 -0.2960
 4571TIP3   OH235203   2.364   3.362  15.372  0.3660  0.4903  0.2203
 4571TIP3    H135204   2.301   3.329  15.436  3.5100 -1.7048  2.4868
 4571TIP3    H235205   2.405   3.437  15.416  2.0868 -0.6300  0.6283
 4572TIP3   OH235206   2.104   1.262  13.188  0.7004 -0.2840 -0.3554
 4572TIP3    H135207   2.179   1.319  13.174  0.6515  0.1257  0.9526
 4572TIP3    H235208   2.142   1.174  13.196  0.8912 -0.2767 -1.0663
 4573TIP3   OH235209   1.115   3.745  10.451  0.4570 -0.3724  0.0971
 4573TIP3    H135210   1.174   3.747  10.526 -1.0470  0.4614  1.3136
 4573TIP3    H235211   1.034   3.784  10.483 -0.3073 -0.1833 -1.9154
 4574TIP3   OH235212   6.277   0.654   5.626  0.1088  0.1366  0.2023
 4574TIP3    H135213   6.321   0.590   5.571  0.4926 -0.3286  1.0398
 4574TIP3    H235214   6.321   0.737   5.606  1.4542 -0.3368  1.0914
 4575TIP3   OH235215   1.942   3.458   4.637 -0.2559 -0.4209 -0.6265
 4575TIP3    H135216   1.847   3.450   4.640 -0.1872 -1.0382  0.2824
 4575TIP3    H235217   1.959   3.517   4.563 -1.3119 -0.6840 -1.0909
 4576TIP3   OH235218   4.521   3.046   4.581 -0.2878 -0.3444 -0.2756
 4576TIP3    H135219   4.495   3.126   4.537 -0.5809 -0.1485  0.2446
 4576TIP3    H235220   4.535   3.072   4.672  0.2329 -0.7565 -0.2316
 4577TIP3   OH235221   1.904   0.557   3.612  0.1802  0.3660 -0.2744
 4577TIP3    H135222   1.952   0.548   3.694  0.6858 -0.6984 -0.6627
 4577TIP3    H235223   1.817   0.521   3.631  0.2166  0.3472 -0.1402
 4578TIP3   OH235224   4.479   1.884  14.578 -0.5302  0.2953 -0.4039
 4578TIP3    H135225   4.453   1.927  14.496  0.9617  0.9858 -0.5398
 4578TIP3    H235226   4.550   1.826  14.553  1.4910  2.1658  0.6998
 4579TIP3   OH235227   4.221   3.896  14.225 -0.0210 -0.3322 -0.3204
 4579TIP3    H135228   4.207   3.801  14.216  2.3565 -0.5482 -3.6316
 4579TIP3    H235229   4.287   3.904  14.293 -2.0430 -0.7419  1.8069
 4580TIP3   OH235230   1.673   6.119  12.500  0.5093 -0.6584  0.1127
 4580TIP3    H135231   1.581   6.113  12.477  0.5133  1.0247 -0.4521
 4580TIP3    H235232   1.700   6.206  12.471  2.3620 -1.2389 -0.0579
 4581TIP3   OH235233   5.635   1.546   5.695 -0.0318 -0.2742  0.0533
 4581TIP3    H135234   5.550   1.588   5.682 -0.1405 -1.0807 -2.3157
 4581TIP3    H235235   5.692   1.586   5.630  1.5100  0.3811  1.7181
 4582TIP3   OH235236   6.715   0.384  16.842 -0.1239  0.0007 -0.3079
 4582TIP3    H135237   6.671   0.407  16.923  0.3334 -2.2729  0.6672
 4582TIP3    H235238   6.806   0.412  16.855  0.0630 -0.8147  0.1916
 4583TIP3   OH235239   1.322   5.004   5.770  0.1610  0.3099 -0.0480
 4583TIP3    H135240   1.374   5.005   5.689  0.5298  0.1642  0.1847
 4583TIP3    H235241   1.372   5.058   5.831 -0.1137  0.4137  0.0864
 4584TIP3   OH235242   0.113   4.024   1.139  0.2704 -0.1870 -0.0338
 4584TIP3    H135243   0.182   3.997   1.078  1.2115 -0.6528  1.2115
 4584TIP3    H235244   0.090   3.945   1.187 -3.0158 -0.7265 -2.1121
 4585TIP3   OH235245   2.336   0.970   3.453 -0.2466 -0.4591  0.3500
 4585TIP3    H135246   2.388   1.036   3.408  0.4242 -0.2877  1.3332
 4585TIP3    H235247   2.354   0.888   3.407  0.6751 -0.3469  0.5071
 4586TIP3   OH235248   5.333   3.364  11.913 -0.4006 -0.2013 -0.2107
 4586TIP3    H135249   5.391   3.415  11.857  1.2900 -1.2516  0.5078
 4586TIP3    H235250   5.342   3.405  12.000  1.6067 -2.0814  0.5652
 4587TIP3   OH235251   0.102   6.467  11.153 -0.8126 -0.4613 -0.2959
 4587TIP3    H135252   0.083   6.470  11.059 -0.2267  2.0211 -0.4184
 4587TIP3    H235253   0.197   6.458  11.157 -0.7434  0.3164  0.0110
 4588TIP3   OH235254   6.094   3.966  16.494 -0.4951  0.5106 -0.4291
 4588TIP3    H135255   6.127   3.955  16.405  1.9001  1.0404  0.3080
 4588TIP3    H235256   6.057   4.054  16.496  0.4031  0.9124 -0.6750
 4589TIP3   OH235257   5.189   4.567   3.790 -0.6410 -0.0601 -0.1955
 4589TIP3    H135258   5.190   4.581   3.695 -0.8916 -1.2228 -0.3870
 4589TIP3    H235259   5.281   4.556   3.814 -0.3269  2.5988  0.1134
 4590TIP3   OH235260   0.525   4.493  15.556  0.0423 -0.4037 -0.5424
 4590TIP3    H135261   0.547   4.582  15.531 -3.7430  0.4020 -1.6780
 4590TIP3    H235262   0.497   4.499  15.647  0.4335 -0.5803 -0.4083
 4591TIP3   OH235263   3.020   4.906  10.111  0.0426  0.0325 -0.1471
 4591TIP3    H135264   2.947   4.850  10.137  0.6375 -0.1597  1.1482
 4591TIP3    H235265   3.098   4.855  10.130  0.5434  0.2414 -1.5071
 4592TIP3   OH235266   3.717   0.009   3.762  0.6074 -0.2131 -0.1825
 4592TIP3    H135267   3.661   0.067   3.710  0.9093  1.3237  1.1016
 4592TIP3    H235268   3.683  -0.079   3.746 -3.7141  0.7337  2.1900
 4593TIP3   OH235269   0.493   1.287  16.400  0.1654 -0.8832  0.6394
 4593TIP3    H135270   0.524   1.325  16.318 -0.1708 -2.2541 -0.1504
 4593TIP3    H235271   0.468   1.363  16.453 -1.3484  0.0108 -1.2144
 4594TIP3   OH235272   6.756   1.051  15.276 -0.4535  0.2018  0.3591
 4594TIP3    H135273   6.715   0.983  15.330 -1.8382 -0.2746 -1.2059
 4594TIP3    H235274   6.849   1.028  15.275 -0.8753 -1.6545 -0.0587
 4595TIP3   OH235275   3.787   1.284  15.384  0.1118  0.0401  0.1270
 4595TIP3    H135276   3.714   1.335  15.347 -1.8476 -3.1416 -0.8388
 4595TIP3    H235277   3.772   1.287  15.479 -1.3403 -0.5161 -0.0480
 4596TIP3   OH235278   2.966   4.118   0.763  0.1909 -0.4837 -0.8995
 4596TIP3    H135279   2.894   4.068   0.724  0.2980 -0.7170 -0.8051
 4596TIP3    H235280   3.025   4.136   0.690  0.3243 -0.8030 -0.8736
 4597TIP3   OH235281   5.796   5.345   4.581  0.0012  0.3975 -0.1726
 4597TIP3    H135282   5.752   5.391   4.652 -0.1940 -0.9296  0.5915
 4597TIP3    H235283   5.828   5.264   4.620 -0.3634 -0.5055 -1.6545
 4598TIP3   OH235284   5.710   4.651  15.225 -0.1148  0.1099 -0.3466
 4598TIP3    H135285   5.758   4.594  15.164  1.1740  2.2419 -1.4195
 4598TIP3    H235286   5.655   4.705  15.169 -0.3926  0.7723  0.5480
 4599TIP3   OH235287   6.774   3.803  15.626 -0.4415 -0.2981 -0.6251
 4599TIP3    H135288   6.755   3.888  15.587 -2.9046 -1.0184 -1.1653
 4599TIP3    H235289   6.755   3.813  15.719  0.8883  0.1518 -0.3809
 4600TIP3   OH235290   0.790   3.129  12.574 -0.7204 -0.0168  0.3997
 4600TIP3    H135291   0.804   3.060  12.510 -2.6333 -0.2319  0.1509
 4600TIP3    H235292   0.824   3.093  12.656  0.8507 -0.1223 -0.2790
 4601TIP3   OH235293   5.789   3.055   0.314  0.1572 -0.3007  0.3700
 4601TIP3    H135294   5.798   2.960   0.310 -0.1850 -0.3507  0.6716
 4601TIP3    H235295   5.698   3.069   0.342 -0.8920  0.1594 -2.9006
 4602TIP3   OH235296   6.709   2.917  16.860  0.4775 -0.7249  0.4418
 4602TIP3    H135297   6.750   2.974  16.924 -1.3074 -0.3248  1.3086
 4602TIP3    H235298   6.686   2.975  16.787 -2.0172 -0.0427  1.6361
 4603TIP3   OH235299   1.307   1.837   1.554 -0.2873 -0.1859 -0.1559
 4603TIP3    H135300   1.217   1.818   1.528 -0.9204  2.2260  0.0430
 4603TIP3    H235301   1.360   1.811   1.479 -1.3855  0.3434 -1.1423
 4604TIP3   OH235302   3.724   5.886  12.420 -0.0438 -0.2137 -0.5967
 4604TIP3    H135303   3.727   5.944  12.344  0.3088  0.5846  0.0117
 4604TIP3    H235304   3.636   5.898  12.456 -0.1806 -0.5237 -0.8295
 4605TIP3   OH235305   4.158   3.654  11.820  0.2312  0.4304 -0.5162
 4605TIP3    H135306   4.207   3.707  11.882 -1.2978  0.5191  0.6645
 4605TIP3    H235307   4.114   3.588  11.874 -0.0752 -0.3269 -1.6554
 4606TIP3   OH235308   0.833   4.260   2.684 -0.7713  0.5187 -0.7376
 4606TIP3    H135309   0.918   4.219   2.667 -0.5682  0.2351  0.8040
 4606TIP3    H235310   0.838   4.344   2.639  1.6363  1.9552  1.8523
 4607TIP3   OH235311   5.099   0.525  13.038  0.1537 -0.2351  0.2007
 4607TIP3    H135312   5.144   0.449  13.073  0.4714 -0.0314  0.2376
 4607TIP3    H235313   5.128   0.598  13.094  2.0099  0.4115 -1.5035
 4608TIP3   OH235314   0.902   2.305  14.115  0.2179  0.5375  0.2411
 4608TIP3    H135315   0.915   2.376  14.052  1.0075 -0.4835 -0.7928
 4608TIP3    H235316   0.944   2.229  14.074 -0.9008 -0.6113  1.1519
 4609TIP3   OH235317   2.970   1.291   2.047 -0.1942 -0.3042 -0.0845
 4609TIP3    H135318   2.913   1.286   2.123 -0.1711  0.2979 -0.0282
 4609TIP3    H235319   3.020   1.372   2.059 -0.6879  0.1653 -1.0824
 4610TIP3   OH235320   4.577   4.086   4.121 -0.5277  0.4357  0.3147
 4610TIP3    H135321   4.659   4.134   4.136  0.0194 -0.1340 -0.7150
 4610TIP3    H235322   4.580   4.013   4.183 -1.5636  1.9117  2.1882
 4611TIP3   OH235323   4.452   4.124  11.277 -0.1213 -0.3112 -0.0620
 4611TIP3    H135324   4.449   4.211  11.317  2.1741 -1.0433  1.8893
 4611TIP3    H235325   4.528   4.127  11.219 -1.4824 -0.3318 -1.9820
 4612TIP3   OH235326   3.297   4.615  12.883  0.4182  0.0980  0.1253
 4612TIP3    H135327   3.272   4.554  12.953  0.4750 -1.0720 -0.8360
 4612TIP3    H235328   3.350   4.562  12.824 -0.4816  0.7774 -1.3455
 4613TIP3   OH235329   1.005   5.900  16.230 -0.4524  0.4497  0.2848
 4613TIP3    H135330   0.929   5.912  16.172  0.1395 -0.9197 -0.8444
 4613TIP3    H235331   0.999   5.809  16.258  0.4246  0.5229  0.7279
 4614TIP3   OH235332   0.173   1.328  15.206  0.3157 -0.5553 -0.6165
 4614TIP3    H135333   0.231   1.363  15.137 -1.2900  1.7404 -0.9009
 4614TIP3    H235334   0.167   1.398  15.270 -0.3670 -1.6440  0.5434
 4615TIP3   OH235335   3.402   3.740  11.170 -0.8345 -0.2344 -0.1550
 4615TIP3    H135336   3.443   3.769  11.252 -0.0602  1.2743 -1.0397
 4615TIP3    H235337   3.401   3.818  11.115 -2.4439 -0.9338 -1.1618
 4616TIP3   OH235338   4.435   4.171   5.780 -0.2568  0.0308 -0.7945
 4616TIP3    H135339   4.458   4.133   5.864 -0.2269 -0.9824 -1.2397
 4616TIP3    H235340   4.420   4.264   5.798  1.4601  0.1754 -0.0059
 4617TIP3   OH235341   1.433   6.814  16.829 -0.1986 -0.1843 -0.1458
 4617TIP3    H135342   1.463   6.846  16.914 -3.2530  1.0719  0.6024
 4617TIP3    H235343   1.485   6.862  16.765  0.0631  1.1447  1.0169
 4618TIP3   OH235344   5.194   4.653   0.286  0.2406 -0.3060  0.3361
 4618TIP3    H135345   5.275   4.626   0.329  1.6385 -0.4469 -2.1805
 4618TIP3    H235346   5.183   4.590   0.214  0.0677  1.9634 -1.7558
 4619TIP3   OH235347   1.714   6.173  11.328  0.5235 -0.5218  0.0659
 4619TIP3    H135348   1.808   6.188  11.319  0.2988  1.3019  0.3313
 4619TIP3    H235349   1.674   6.229  11.262 -0.4249  0.2273  1.2142
 4620TIP3   OH235350   0.824   4.166   3.719 -0.2033  0.5023 -0.4089
 4620TIP3    H135351   0.731   4.162   3.740 -0.2916  0.0577 -0.8711
 4620TIP3    H235352   0.843   4.082   3.678  0.5244  0.3798  0.1621
 4621TIP3   OH235353   3.400   5.067  15.933  0.2061  0.0710 -0.1492
 4621TIP3    H135354   3.441   5.154  15.933  2.2922 -0.8569  0.4615
 4621TIP3    H235355   3.314   5.082  15.973  1.2934  1.5448  1.8713
 4622TIP3   OH235356   5.178   1.307   0.756 -0.0729 -0.2020 -0.5833
 4622TIP3    H135357   5.148   1.298   0.666  1.6247 -2.5329 -1.0308
 4622TIP3    H235358   5.146   1.228   0.800  1.6888 -0.6653 -0.0140
 4623TIP3   OH235359   3.076   1.222  14.184 -0.6513  0.3448  0.4432
 4623TIP3    H135360   3.089   1.142  14.236  0.2756  0.7619  0.8676
 4623TIP3    H235361   3.019   1.277  14.239 -0.2925  0.4721  0.6929
 4624TIP3   OH235362   2.535   4.675   6.003  0.1532 -0.3008 -0.1708
 4624TIP3    H135363   2.455   4.688   5.952  1.2178 -1.7012 -2.3369
 4624TIP3    H235364   2.506   4.631   6.082 -1.1447 -1.6688 -1.3477
 4625TIP3   OH235365   0.142   4.531  15.545  0.2772  0.1110  0.6382
 4625TIP3    H135366   0.131   4.626  15.545 -1.4475 -0.0408 -0.0925
 4625TIP3    H235367   0.180   4.511  15.460  0.4985  0.1332  0.7309
 4626TIP3   OH235368   6.228   2.856  12.844  0.9688 -0.4187 -0.6391
 4626TIP3    H135369   6.202   2.798  12.914 -1.0380 -0.0014 -0.9895
 4626TIP3    H235370   6.314   2.890  12.871  0.7801 -1.1890  0.9919
 4627TIP3   OH235371   2.202   4.853  15.580  0.0633  0.1120 -0.5283
 4627TIP3    H135372   2.143   4.798  15.631  1.3982 -0.8742  0.0182
 4627TIP3    H235373   2.206   4.935  15.629 -0.7777  0.1631 -0.5307
 4628TIP3   OH235374   3.105   2.200  10.996 -0.4241 -0.3696  0.1599
 4628TIP3    H135375   3.111   2.294  10.977  0.3329 -0.3801  0.3195
 4628TIP3    H235376   3.159   2.188  11.074 -1.5997 -0.7231  0.9327
 4629TIP3   OH235377   1.643   0.758   2.619 -0.2303 -0.1195 -0.5094
 4629TIP3    H135378   1.640   0.734   2.527 -0.9041 -0.3606 -0.4291
 4629TIP3    H235379   1.559   0.800   2.636 -0.3257 -0.5582  0.1256
 4630TIP3   OH235380   5.458   2.321  11.669  0.0686 -0.2371  0.2673
 4630TIP3    H135381   5.417   2.241  11.701 -2.8703  0.4267 -1.3633
 4630TIP3    H235382   5.462   2.310  11.574  0.6313  1.0849  0.1066
 4631TIP3   OH235383   1.846   2.591   3.750 -0.2508 -0.3343 -0.2722
 4631TIP3    H135384   1.752   2.581   3.733 -0.7589  1.6477  1.0135
 4631TIP3    H235385   1.888   2.570   3.667 -1.8799 -0.6445 -1.0550
 4632TIP3   OH235386   0.855   1.106   5.128  0.1377  0.2627  0.3164
 4632TIP3    H135387   0.773   1.094   5.177  0.4528 -1.4346  0.4741
 4632TIP3    H235388   0.865   1.201   5.121 -0.2982  0.5536  2.8892
 4633TIP3   OH235389   5.573   6.138  11.204  0.1569 -0.5246 -0.7692
 4633TIP3    H135390   5.581   6.170  11.114  0.5344  1.3492 -0.1262
 4633TIP3    H235391   5.534   6.211  11.252 -0.2411 -1.5653  0.5524
 4634TIP3   OH235392   3.424   4.459   2.352 -0.0776 -0.0335 -0.0405
 4634TIP3    H135393   3.480   4.389   2.386  0.5487 -0.5967 -2.1016
 4634TIP3    H235394   3.471   4.540   2.371  0.0047 -0.2789  0.8386
 4635TIP3   OH235395   3.932   5.721   1.261  0.9066  0.2499 -0.3754
 4635TIP3    H135396   3.972   5.650   1.211 -0.2149 -0.5616 -0.1551
 4635TIP3    H235397   3.883   5.771   1.196  0.6664  0.0706 -0.3348
 4636TIP3   OH235398   6.518   6.096   5.848 -0.2671 -0.2201  0.0735
 4636TIP3    H135399   6.448   6.148   5.887 -0.6074 -0.8402  0.3016
 4636TIP3    H235400   6.582   6.085   5.919  0.1357  0.4756 -0.1804
 4637TIP3   OH235401   0.066   1.253   0.053  0.2884  0.0396 -0.0047
 4637TIP3    H135402   0.065   1.304   0.134 -1.0873 -0.7228  0.5101
 4637TIP3    H235403   0.086   1.316  -0.015 -0.9564  1.2216  0.6648
 4638TIP3   OH235404   4.231   2.636  13.774 -0.3505  0.0914  0.1631
 4638TIP3    H135405   4.233   2.687  13.855  0.9034  1.3659 -0.6311
 4638TIP3    H235406   4.191   2.694  13.710  2.0420  0.5695 -1.0159
 4639TIP3   OH235407   2.119   0.030   1.128  0.0786  0.2167  0.2121
 4639TIP3    H135408   2.121   0.090   1.053  1.6933  0.1005  0.1285
 4639TIP3    H235409   2.094   0.085   1.202 -1.4208  0.3598 -0.3618
 4640TIP3   OH235410   5.258   2.014   0.991 -0.0966  0.2382 -0.3803
 4640TIP3    H135411   5.206   2.020   0.911 -0.0329 -0.2934 -0.4599
 4640TIP3    H235412   5.215   1.947   1.044 -0.8825  1.4576  0.5896
 4641TIP3   OH235413   2.825   2.119   2.368 -0.8388 -0.1676  0.4896
 4641TIP3    H135414   2.847   2.207   2.399 -2.1854  0.8036 -1.0999
 4641TIP3    H235415   2.902   2.091   2.318  0.1764 -0.5447  2.2028
 4642TIP3   OH235416   0.679   3.736  14.098  0.0875 -0.6074 -0.0815
 4642TIP3    H135417   0.672   3.655  14.046 -0.2244 -0.5725 -0.0958
 4642TIP3    H235418   0.665   3.708  14.188  0.4064 -0.6336 -0.0378
 4643TIP3   OH235419   6.735   5.872  13.565  0.0638  0.8060  0.5422
 4643TIP3    H135420   6.746   5.934  13.493  0.4090 -0.6975 -0.7579
 4643TIP3    H235421   6.661   5.906  13.615 -0.0649  1.9834 -0.3945
 4644TIP3   OH235422   1.334   0.040  11.454  0.1383  0.1394  0.0139
 4644TIP3    H135423   1.370   0.012  11.539  1.5681 -0.6720 -0.8265
 4644TIP3    H235424   1.379  -0.015  11.390 -0.8378  0.8221 -1.2913
 4645TIP3   OH235425   6.790   1.449  11.353 -0.4026 -0.4850 -0.4536
 4645TIP3    H135426   6.810   1.366  11.310 -0.4682 -1.2797  0.9690
 4645TIP3    H235427   6.829   1.441  11.440 -1.6520  0.3712  0.2296
 4646TIP3   OH235428   3.065   6.405  15.022 -0.1090  0.1306 -0.5185
 4646TIP3    H135429   3.022   6.319  15.022  0.9597 -0.4184  0.1140
 4646TIP3    H235430   3.023   6.452  15.094 -0.6974  0.1432 -0.8649
 4647TIP3   OH235431   0.548   2.928   1.742  0.2877 -0.2372  0.0660
 4647TIP3    H135432   0.579   2.839   1.760  0.3360 -0.0771  0.8134
 4647TIP3    H235433   0.491   2.919   1.666  0.4806 -0.8696 -0.0082
 4648TIP3   OH235434   0.624   3.161   6.531  0.0237 -0.1921  0.3282
 4648TIP3    H135435   0.570   3.086   6.554  2.5424 -2.2115  0.1929
 4648TIP3    H235436   0.583   3.198   6.453  0.5728 -3.7580 -1.8773
 4649TIP3   OH235437   1.285   5.035   5.401  0.6118 -0.3205 -0.2083
 4649TIP3    H135438   1.362   5.066   5.353  1.4259 -1.9000  0.0254
 4649TIP3    H235439   1.314   4.955   5.445 -0.9256 -0.4771  0.5909
 4650TIP3   OH235440   2.827   6.446   1.524 -0.0724  0.5109  0.0369
 4650TIP3    H135441   2.910   6.419   1.563 -0.3772  1.1133  1.1514
 4650TIP3    H235442   2.760   6.408   1.581 -0.5883 -0.2191 -1.0132
 4651TIP3   OH235443   4.795   4.078   3.708 -0.3711  0.4914 -0.3701
 4651TIP3    H135444   4.762   3.995   3.741 -1.3575  0.8480 -0.4414
 4651TIP3    H235445   4.877   4.056   3.664 -0.0548 -0.2789  0.5780
 4652TIP3   OH235446   4.444   1.325  13.861  0.1860 -0.3517 -0.4091
 4652TIP3    H135447   4.349   1.327  13.873  0.1813 -0.2200 -0.4639
 4652TIP3    H235448   4.479   1.327  13.950  0.1547  1.0976 -0.3985
 4653TIP3   OH235449   2.054   3.196  16.332  0.4512 -0.1236 -0.1959
 4653TIP3    H135450   1.981   3.139  16.357  0.4467  0.2670  0.7234
 4653TIP3    H235451   2.012   3.275  16.299  0.4093  0.7036  1.7099
 4654TIP3   OH235452   5.739   1.340   4.773  0.0414  0.3804  0.2183
 4654TIP3    H135453   5.817   1.377   4.734 -0.6490  0.1784 -1.4450
 4654TIP3    H235454   5.752   1.245   4.768 -0.5192  0.3308 -0.5892
 4655TIP3   OH235455   3.335   0.256  14.235  0.2955  0.1551 -0.5581
 4655TIP3    H135456   3.249   0.295  14.251  0.5212  0.2959  0.3778
 4655TIP3    H235457   3.349   0.266  14.141 -0.5797  0.3978 -0.6730
 4656TIP3   OH235458   5.027   3.832  12.716  0.7513  0.1442  0.2207
 4656TIP3    H135459   5.059   3.780  12.789  0.7712 -0.8569 -0.4926
 4656TIP3    H235460   5.043   3.923  12.742 -0.5788 -0.1062  2.1050
 4657TIP3   OH235461   4.285   3.191   4.684  0.5814 -0.1818 -0.1712
 4657TIP3    H135462   4.302   3.097   4.695  2.5627  0.3298  1.8992
 4657TIP3    H235463   4.242   3.197   4.599  1.4122 -2.8701 -0.9005
 4658TIP3   OH235464   4.416   0.921  12.050  0.1253 -0.6197  0.5608
 4658TIP3    H135465   4.337   0.875  12.020  2.0596 -3.2023 -0.9790
 4658TIP3    H235466   4.453   0.958  11.970  0.0005  1.4773  1.4200
 4659TIP3   OH235467   4.897   1.888  12.695 -0.4701 -0.0967  0.3278
 4659TIP3    H135468   4.922   1.830  12.623 -0.4682  1.6054 -1.1100
 4659TIP3    H235469   4.801   1.892  12.691 -0.3659  2.1439 -1.4201
 4660TIP3   OH235470   6.303   4.619   0.067 -0.2080  0.5286  0.1297
 4660TIP3    H135471   6.370   4.627  -0.001  0.2809  0.0619  0.5433
 4660TIP3    H235472   6.222   4.602   0.020  0.1500  0.0785 -0.3374
 4661TIP3   OH235473   2.933   0.593  12.778 -0.3920 -0.1509  0.3298
 4661TIP3    H135474   2.995   0.666  12.774 -1.6533  0.9274 -0.5217
 4661TIP3    H235475   2.896   0.589  12.690 -0.6313 -1.5993  0.4703
 4662TIP3   OH235476   6.283   0.616   1.164 -0.1242 -0.0982 -0.3698
 4662TIP3    H135477   6.264   0.534   1.119 -0.0869  0.1721 -0.8840
 4662TIP3    H235478   6.249   0.603   1.252 -1.4531 -0.1289 -0.8742
 4663TIP3   OH235479   4.763   6.122   4.194  0.1772  0.1535  0.4080
 4663TIP3    H135480   4.778   6.029   4.206 -0.9116  0.1469  2.0796
 4663TIP3    H235481   4.743   6.132   4.101  2.4465 -0.9197 -0.2638
 4664TIP3   OH235482   1.490   6.275   1.065  0.3352 -1.0761  0.0848
 4664TIP3    H135483   1.516   6.249   0.977  1.8976  0.6146 -0.0171
 4664TIP3    H235484   1.398   6.249   1.071  0.3327 -1.7047 -1.8443
 4665TIP3   OH235485   1.455   4.966  13.602  0.4754 -0.1326 -0.3827
 4665TIP3    H135486   1.550   4.958  13.600  0.3658 -1.4341 -1.4237
 4665TIP3    H235487   1.424   4.906  13.534 -1.0297  1.3922 -1.1159
 4666TIP3   OH235488   6.507   1.390  11.353  0.0298 -0.2490 -0.0901
 4666TIP3    H135489   6.450   1.413  11.426  0.2997  0.2511 -0.0355
 4666TIP3    H235490   6.593   1.424  11.377 -0.0532  0.6372 -0.9973
 4667TIP3   OH235491   5.019   0.222   5.918 -0.0128 -0.5618 -0.2885
 4667TIP3    H135492   5.063   0.274   5.986  0.3247 -0.3216 -0.6825
 4667TIP3    H235493   5.014   0.134   5.954 -0.2848 -0.3279  0.2518
 4668TIP3   OH235494   2.778   6.185  14.581 -0.0843 -0.0598 -0.2141
 4668TIP3    H135495   2.728   6.260  14.613  0.0077 -0.7942  1.7768
 4668TIP3    H235496   2.711   6.121  14.556 -0.1541  0.1247 -0.5037
 4669TIP3   OH235497   6.575   2.861  15.732  0.2456 -0.1821 -0.3323
 4669TIP3    H135498   6.619   2.778  15.713  0.4152 -0.0064 -0.6944
 4669TIP3    H235499   6.538   2.848  15.820  0.2175 -0.6626 -0.4131
 4670TIP3   OH235500   1.201   6.339   3.661  0.2352  0.2545 -0.1610
 4670TIP3    H135501   1.258   6.376   3.729 -1.0139  0.5801  0.7479
 4670TIP3    H235502   1.114   6.339   3.701 -0.1756 -1.6155 -0.9594
 4671TIP3   OH235503   4.707   2.990  15.746  0.1805  0.1897  0.2214
 4671TIP3    H135504   4.749   3.007  15.662 -0.6273  1.2311  0.0173
 4671TIP3    H235505   4.690   2.895  15.745 -0.6447  0.3208 -1.1855
 4672TIP3   OH235506   5.594   0.603  16.951 -0.2095 -0.2974 -0.0075
 4672TIP3    H135507   5.637   0.687  16.937 -0.3613  0.0324  1.3536
 4672TIP3    H235508   5.654   0.538  16.913 -0.4152  0.4449 -1.7044
 4673TIP3   OH235509   5.002   4.639  13.563 -0.0543  0.0148 -0.4613
 4673TIP3    H135510   4.906   4.640  13.565 -0.0804  2.5038  1.0052
 4673TIP3    H235511   5.025   4.708  13.501  0.8638 -1.6195 -2.0313
 4674TIP3   OH235512   3.116   1.026   3.867 -0.9221  0.2439 -0.3226
 4674TIP3    H135513   3.156   1.049   3.950 -1.5240 -0.1448  0.0862
 4674TIP3    H235514   3.063   1.102   3.843 -0.6302  0.4134 -0.4206
 4675TIP3   OH235515   1.714   2.424  11.846 -0.3068  0.1853  0.0418
 4675TIP3    H135516   1.738   2.333  11.827 -1.7194 -0.1477 -0.2837
 4675TIP3    H235517   1.703   2.427  11.941  1.5484  0.5154  0.2926
 4676TIP3   OH235518   0.838   2.959   1.650 -0.0851  0.5676 -0.8104
 4676TIP3    H135519   0.843   2.922   1.562 -0.9647 -0.5716 -0.4106
 4676TIP3    H235520   0.752   2.933   1.682  0.2345  0.9319  0.4119
 4677TIP3   OH235521   2.404   0.801   1.394 -0.1899  0.2121 -0.1047
 4677TIP3    H135522   2.428   0.757   1.474 -0.2746 -0.3701 -0.3960
 4677TIP3    H235523   2.487   0.823   1.352 -0.1323 -1.0861 -0.7227
 4678TIP3   OH235524   3.275   5.509  12.358  0.0078 -0.5663 -0.1573
 4678TIP3    H135525   3.259   5.423  12.320  0.5227 -0.2129 -1.2141
 4678TIP3    H235526   3.371   5.516  12.363 -0.0348 -0.1321  0.1104
 4679TIP3   OH235527   2.307   3.640  15.818 -0.1520 -0.2766 -0.3388
 4679TIP3    H135528   2.386   3.682  15.852 -0.2464 -0.8945  0.6778
 4679TIP3    H235529   2.335   3.599  15.737  0.2523  0.6265 -0.6741
 4680TIP3   OH235530   0.968   4.450  16.676  0.4811 -0.4092  0.5722
 4680TIP3    H135531   0.943   4.363  16.645 -1.2391  0.6057 -1.1019
 4680TIP3    H235532   0.893   4.480  16.727 -0.0076  1.0021 -0.8935
 4681TIP3   OH235533   3.247   5.798   5.061 -0.2317  0.8629  0.2510
 4681TIP3    H135534   3.255   5.858   5.135 -0.3500  0.6871  0.4067
 4681TIP3    H235535   3.313   5.829   4.998  1.2523 -0.1586  1.2245
 4682TIP3   OH235536   0.904   1.635   0.998 -0.3371  0.2922  0.1948
 4682TIP3    H135537   0.960   1.709   0.976  1.4142 -1.2440 -0.8329
 4682TIP3    H235538   0.827   1.646   0.942 -0.3304  1.5676  0.4116
 4683TIP3   OH235539   1.851   1.313  11.817 -0.1997  0.7063  0.4214
 4683TIP3    H135540   1.796   1.379  11.858  0.4303  2.4878 -1.4185
 4683TIP3    H235541   1.801   1.232  11.825 -1.6757  1.6646  1.4801
 4684TIP3   OH235542   0.428   3.865   3.313  0.5302  0.6145 -0.1644
 4684TIP3    H135543   0.396   3.795   3.370 -0.4682  1.5701  0.4784
 4684TIP3    H235544   0.497   3.823   3.261  2.2623 -0.0642  2.4551
 4685TIP3   OH235545   1.306   2.007  15.993 -0.2426  0.5412  0.2998
 4685TIP3    H135546   1.330   2.019  15.901  0.8590  1.8761  0.7233
 4685TIP3    H235547   1.256   2.085  16.014  1.3344  1.3187  1.3721
 4686TIP3   OH235548   1.034   3.302   5.303 -0.1379 -0.2376 -0.1050
 4686TIP3    H135549   1.076   3.386   5.283  1.0195 -0.6994  0.3009
 4686TIP3    H235550   1.052   3.247   5.227 -0.7339 -0.1879 -0.2900
 4687TIP3   OH235551   0.595   0.170   3.154  0.2224  0.4685 -0.2422
 4687TIP3    H135552   0.535   0.097   3.140 -0.3444  1.3322 -2.6817
 4687TIP3    H235553   0.662   0.160   3.087  1.1329  1.2245  0.5223
 4688TIP3   OH235554   2.999   1.778  16.548  0.2555  0.6242 -0.2258
 4688TIP3    H135555   2.957   1.695  16.568 -0.7065  0.8702 -1.1160
 4688TIP3    H235556   3.061   1.793  16.620 -0.6850 -0.0949  0.7470
 4689TIP3   OH235557   2.371   0.482  16.531 -0.8944 -0.1468 -0.0279
 4689TIP3    H135558   2.444   0.446  16.481 -1.5700 -1.0611 -0.3891
 4689TIP3    H235559   2.404   0.564  16.567  0.1403 -0.2995 -0.6031
 4690TIP3   OH235560   4.972   0.432  15.852 -0.4117 -0.3110  0.0657
 4690TIP3    H135561   4.946   0.505  15.795  1.2462  0.5343  0.3277
 4690TIP3    H235562   5.008   0.474  15.930 -0.8507 -1.4438  0.9081
 4691TIP3   OH235563   5.261   0.428  12.552  0.1621 -0.3251  0.3262
 4691TIP3    H135564   5.182   0.376  12.536 -0.0985  0.1559  0.0275
 4691TIP3    H235565   5.250   0.460  12.642 -0.1117 -0.0464  0.1968
 4692TIP3   OH235566   5.631   5.022  13.522  0.4242 -0.3385 -0.4278
 4692TIP3    H135567   5.687   5.008  13.598 -0.2036 -0.5240  0.0156
 4692TIP3    H235568   5.544   4.993  13.551  0.0084  0.3562 -0.9567
 4693TIP3   OH235569   0.883   1.815   1.229 -0.4594 -0.4911 -0.4901
 4693TIP3    H135570   0.805   1.822   1.284 -0.1886  1.7454 -0.3306
 4693TIP3    H235571   0.867   1.736   1.176 -0.2503 -3.4906  3.4042
 4694TIP3   OH235572   0.135   5.806   4.638 -0.2596  0.6162 -0.1256
 4694TIP3    H135573   0.045   5.776   4.647  0.4009 -1.5110  0.0651
 4694TIP3    H235574   0.171   5.802   4.727  0.3494  0.1879 -0.3757
 4695TIP3   OH235575   5.379   0.625   2.214 -0.4614 -0.0858  0.4313
 4695TIP3    H135576   5.400   0.650   2.304  0.0659  0.9002  0.0490
 4695TIP3    H235577   5.293   0.583   2.221  0.0665 -1.0444  1.5380
 4696TIP3   OH235578   4.056   4.225   0.974  0.1148 -0.4093 -0.2773
 4696TIP3    H135579   4.102   4.300   1.012 -0.0451 -0.4420 -0.0144
 4696TIP3    H235580   3.977   4.262   0.936 -1.0557 -0.6992  1.7353
 4697TIP3   OH235581   1.261   0.353   5.429 -0.1096 -0.2868  0.0589
 4697TIP3    H135582   1.204   0.420   5.390 -1.4310 -1.6954 -0.5001
 4697TIP3    H235583   1.286   0.390   5.514 -2.8587 -0.1177  0.8817
 4698TIP3   OH235584   5.808   0.805  12.573  0.1411  0.1765  0.4809
 4698TIP3    H135585   5.795   0.729  12.629  0.2055  0.6940  1.2048
 4698TIP3    H235586   5.720   0.826  12.540  0.2751 -0.9012 -0.6661
 4699TIP3   OH235587   2.674   3.047  14.018  0.0090  0.2440 -0.2897
 4699TIP3    H135588   2.602   3.076  13.961  0.8796  0.1159 -1.4992
 4699TIP3    H235589   2.679   2.953  14.004  1.0976  0.3907 -1.0940
 4700TIP3   OH235590   1.080   1.124   0.791  0.1106 -0.3897  0.1541
 4700TIP3    H135591   1.006   1.180   0.814  0.4376 -0.2705  0.9450
 4700TIP3    H235592   1.044   1.061   0.728 -0.3962  0.3465 -0.2980
 4701TIP3   OH235593   0.560   2.006  15.170 -0.1034 -0.0076  0.7574
 4701TIP3    H135594   0.621   1.991  15.242  0.7705 -1.6753 -0.2621
 4701TIP3    H235595   0.614   2.043  15.100 -0.2867 -1.2238 -0.0554
 4702TIP3   OH235596   0.262   0.710  15.341  0.0577 -0.7163  0.6278
 4702TIP3    H135597   0.261   0.664  15.257  1.2728 -0.4757  0.4601
 4702TIP3    H235598   0.354   0.711  15.366 -0.3533 -1.3106  2.2713
 4703TIP3   OH235599   5.227   4.570   1.112 -0.1810  0.1454 -0.0053
 4703TIP3    H135600   5.184   4.497   1.157 -0.6696  1.0969  1.1264
 4703TIP3    H235601   5.219   4.644   1.173  2.4958  0.5414  0.0122
 4704TIP3   OH235602   6.102   4.907   6.728 -0.1822  0.2985  0.6057
 4704TIP3    H135603   6.113   4.968   6.655 -1.6102  0.6690  0.6651
 4704TIP3    H235604   6.181   4.854   6.727  0.6760  1.5230 -0.0439
 4705TIP3   OH235605   3.346   4.891   4.950 -0.2636  0.2298 -0.4899
 4705TIP3    H135606   3.301   4.944   4.885  0.1628  0.2723 -0.7506
 4705TIP3    H235607   3.280   4.877   5.019 -0.1017  1.8816  0.0352
 4706TIP3   OH235608   2.138   4.178  12.599 -0.1498  0.7659  0.2043
 4706TIP3    H135609   2.173   4.259  12.634  0.2472  0.8015 -0.2714
 4706TIP3    H235610   2.055   4.204  12.557  0.0894  0.9623 -0.1473
 4707TIP3   OH235611   4.826   5.796   5.294  0.0199  0.3708 -0.2415
 4707TIP3    H135612   4.807   5.706   5.268  0.6873  0.6751 -1.8941
 4707TIP3    H235613   4.756   5.818   5.356 -0.8315 -0.8838 -0.7166
 4708TIP3   OH235614   5.952   2.339  11.551  0.1179  0.2894 -0.1247
 4708TIP3    H135615   5.905   2.306  11.628 -1.0111  0.2578 -0.8044
 4708TIP3    H235616   5.957   2.433  11.564  3.9612 -0.0049  2.1641
 4709TIP3   OH235617   6.410   5.029  10.514  0.0173  0.3766  0.5273
 4709TIP3    H135618   6.342   5.035  10.581 -0.9432  3.0671 -0.5305
 4709TIP3    H235619   6.373   4.972  10.447 -1.5581  2.2149 -0.2779
 4710TIP3   OH235620   1.309   0.320   4.706 -0.0005  0.5812 -0.5486
 4710TIP3    H135621   1.328   0.371   4.627 -1.1514  0.1261 -1.1428
 4710TIP3    H235622   1.266   0.240   4.674 -0.3321  0.3089  0.5204
 4711TIP3   OH235623   3.667   5.894  11.668 -0.9790  0.7067 -0.1516
 4711TIP3    H135624   3.622   5.811  11.684 -1.1892  0.7734 -0.3762
 4711TIP3    H235625   3.607   5.960  11.702  0.6167  0.6404  3.1121
 4712TIP3   OH235626   5.559   2.494  16.447 -0.4446  0.5218 -0.1440
 4712TIP3    H135627   5.583   2.511  16.356  0.0472 -0.3332 -0.1847
 4712TIP3    H235628   5.477   2.446  16.442  0.0275 -0.3074 -0.1900
 4713TIP3   OH235629   1.359   6.201   0.769 -0.0478 -0.0768  0.1983
 4713TIP3    H135630   1.335   6.142   0.840  3.1520  0.1819  1.6664
 4713TIP3    H235631   1.383   6.144   0.697 -0.1163 -0.4510  0.4724
 4714TIP3   OH235632   6.789   3.216  17.058 -0.9119  0.8783  0.1795
 4714TIP3    H135633   6.823   3.213  16.968 -0.6164  2.5050  0.2154
 4714TIP3    H235634   6.804   3.127  17.091  0.4393  0.6770 -0.8551
 4715TIP3   OH235635   2.738   6.415  14.804  1.0127 -0.2726  0.1725
 4715TIP3    H135636   2.765   6.476  14.735 -1.8283  0.9178 -0.0152
 4715TIP3    H235637   2.712   6.471  14.877 -1.4069 -1.1770  0.1040
 4716TIP3   OH235638   1.949   0.120  13.059  0.1862 -0.4334  0.3132
 4716TIP3    H135639   1.923   0.142  13.148  1.1126  0.7940  0.3091
 4716TIP3    H235640   1.991   0.199  13.026 -1.2006 -0.4405 -1.6505
 4717TIP3   OH235641   0.052   2.488  17.214 -0.1413  0.4751 -0.6158
 4717TIP3    H135642  -0.034   2.446  17.219  0.3134 -0.3182  1.4546
 4717TIP3    H235643   0.042   2.554  17.145 -1.7229 -1.0703 -1.9824
 4718TIP3   OH235644   5.570   3.914  14.525 -0.5146  0.0459 -0.0299
 4718TIP3    H135645   5.533   3.911  14.436 -0.4126  1.6282 -0.1625
 4718TIP3    H235646   5.656   3.953  14.513  0.1040 -1.0680  0.6200
 4719TIP3   OH235647   6.530   3.234   3.253  0.0713 -0.3356 -0.0735
 4719TIP3    H135648   6.586   3.157   3.250 -0.0410 -0.4832  1.1540
 4719TIP3    H235649   6.532   3.262   3.345  0.0664  1.0933 -0.4910
 4720TIP3   OH235650   2.395   6.457   0.999  0.1500  0.3972 -0.0808
 4720TIP3    H135651   2.392   6.475   1.093 -0.6440  1.2858 -0.2468
 4720TIP3    H235652   2.373   6.542   0.958 -0.7591 -0.2625 -1.0250
 4721TIP3   OH235653   1.091   4.274  16.208 -0.0498 -0.1869  0.1012
 4721TIP3    H135654   1.014   4.284  16.151  0.5954 -0.0183 -0.7720
 4721TIP3    H235655   1.121   4.185  16.192 -1.3144 -1.0415  2.1001
 4722TIP3   OH235656   3.930   4.668   3.699  0.0330  0.3613  0.0302
 4722TIP3    H135657   4.022   4.689   3.682 -0.0504  0.9167  0.2350
 4722TIP3    H235658   3.911   4.596   3.639  0.0647  1.5210 -1.4282
 4723TIP3   OH235659   5.244   5.039   3.621 -0.1590  0.5843  0.5288
 4723TIP3    H135660   5.304   5.112   3.634 -1.7852  1.5454  3.7638
 4723TIP3    H235661   5.162   5.080   3.592 -0.3072 -0.3034 -0.3724
 4724TIP3   OH235662   4.303   2.360   0.666 -0.4793 -0.0910 -0.2079
 4724TIP3    H135663   4.347   2.295   0.719 -1.0728 -1.1461 -0.9632
 4724TIP3    H235664   4.372   2.420   0.637  0.0851 -0.4389  0.4239
 4725TIP3   OH235665   3.876   4.410  13.531  0.2312 -0.2133 -0.9415
 4725TIP3    H135666   3.801   4.456  13.494  0.5286  0.2186 -1.0216
 4725TIP3    H235667   3.839   4.333  13.573 -0.4348  0.6929  0.2065
 4726TIP3   OH235668   5.270   5.831  12.776  0.4654 -0.3105  0.1207
 4726TIP3    H135669   5.336   5.775  12.734  0.1837 -1.6227  1.3404
 4726TIP3    H235670   5.251   5.787  12.859 -0.4061  1.1773  0.7432
 4727TIP3   OH235671   3.683   3.988  15.552 -0.5280  0.1843  0.0601
 4727TIP3    H135672   3.765   4.017  15.593 -0.5877 -1.9381  1.8645
 4727TIP3    H235673   3.674   3.897  15.579 -0.4064 -1.6565 -5.1137
 4728TIP3   OH235674   3.734   3.218  12.614  0.5013 -0.2245 -0.8463
 4728TIP3    H135675   3.644   3.229  12.585 -0.5167 -0.5509  1.9220
 4728TIP3    H235676   3.784   3.206  12.533 -1.8080  0.5887 -2.4891
 4729TIP3   OH235677   3.534   6.001   0.975  0.2254 -0.0782 -0.1430
 4729TIP3    H135678   3.508   6.083   1.017  0.3905 -0.0136 -0.1641
 4729TIP3    H235679   3.554   6.027   0.885 -0.4769 -0.2774 -0.3581
 4730TIP3   OH235680   1.136   4.105   0.114 -0.5924  0.3873 -0.5741
 4730TIP3    H135681   1.220   4.128   0.072  0.6447 -2.5658 -0.0053
 4730TIP3    H235682   1.070   4.141   0.055  1.0038  3.0537 -0.9331
 4731TIP3   OH235683   4.825   0.707  14.396  0.6199  0.1372  0.3541
 4731TIP3    H135684   4.910   0.668  14.374  0.3956 -0.6175  0.7923
 4731TIP3    H235685   4.777   0.709  14.314  2.0728  3.2557 -0.5526
 4732TIP3   OH235686   3.027   2.807   5.249  0.1425  0.1495 -0.3735
 4732TIP3    H135687   3.081   2.748   5.301 -0.5013 -1.1682 -1.1563
 4732TIP3    H235688   3.082   2.829   5.173 -0.4379 -1.3292 -1.2585
 4733TIP3   OH235689   3.385   0.904   5.373  0.0271  0.1427  0.1758
 4733TIP3    H135690   3.296   0.906   5.340 -0.4026 -0.7239  1.1962
 4733TIP3    H235691   3.392   0.819   5.417  1.4039  0.1260 -0.0157
 4734TIP3   OH235692   0.278   1.302   0.555 -0.8047  0.3844 -0.4444
 4734TIP3    H135693   0.243   1.380   0.599 -1.1022  0.7368 -1.2884
 4734TIP3    H235694   0.372   1.317   0.549 -0.3548 -0.7458  2.2032
 4735TIP3   OH235695   6.434   5.731  11.408 -0.1883  0.4826  0.6724
 4735TIP3    H135696   6.526   5.755  11.398 -0.7233  3.2905  1.7335
 4735TIP3    H235697   6.436   5.655  11.467  1.4027  1.1479  1.5345
 4736TIP3   OH235698   0.429   2.973   6.323  0.2355  0.1672  0.0734
 4736TIP3    H135699   0.441   2.889   6.279 -1.0893  1.0190 -2.0817
 4736TIP3    H235700   0.447   2.955   6.415 -0.8467 -2.6774 -0.1807
 4737TIP3   OH235701   2.807   1.339  14.796 -0.4085 -0.2058  0.5080
 4737TIP3    H135702   2.754   1.260  14.811 -1.2270 -0.0347 -1.2271
 4737TIP3    H235703   2.753   1.393  14.738  2.1227 -0.6133 -2.5023
 4738TIP3   OH235704   3.137   5.380  15.992 -0.0836 -0.1618 -0.2431
 4738TIP3    H135705   3.141   5.430  15.910 -0.7161 -0.7363 -0.6304
 4738TIP3    H235706   3.227   5.381  16.025  0.3424 -0.5852 -1.3403
 4739TIP3   OH235707   0.325   4.524  11.425  0.1347  0.1623 -0.0295
 4739TIP3    H135708   0.285   4.562  11.503 -0.9462  0.9218 -0.9153
 4739TIP3    H235709   0.416   4.553  11.428 -0.1475  1.0327  0.4237
 4740TIP3   OH235710   5.515   0.468   5.929 -0.2044  0.1398 -0.7310
 4740TIP3    H135711   5.519   0.521   5.850 -1.3919 -0.9052 -1.5436
 4740TIP3    H235712   5.598   0.420   5.931  0.5545  1.4351 -0.3913
 4741TIP3   OH235713   1.179   1.876   4.952 -1.0172 -0.3525 -0.5937
 4741TIP3    H135714   1.231   1.932   5.011 -2.5433  0.2885  0.1942
 4741TIP3    H235715   1.219   1.790   4.960 -0.3499  0.0219  0.3436
 4742TIP3   OH235716   6.043   3.088  16.974 -0.0561  0.4049  0.0398
 4742TIP3    H135717   6.122   3.140  16.967 -0.1202  0.3818 -1.1178
 4742TIP3    H235718   5.974   3.151  16.993  0.0110  0.6315 -0.4446
 4743TIP3   OH235719   0.048   3.179   2.416  0.1433  0.5093 -0.2368
 4743TIP3    H135720   0.060   3.202   2.508  1.0807  1.5894 -0.6009
 4743TIP3    H235721   0.055   3.084   2.413 -0.9189  0.3818  0.9369
 4744TIP3   OH235722   5.328   0.749  11.247 -0.5302 -0.3616  0.4979
 4744TIP3    H135723   5.386   0.821  11.223 -1.6893  0.0797 -1.1929
 4744TIP3    H235724   5.291   0.774  11.331 -0.4192  0.6977  0.2397
 4745TIP3   OH235725   1.933   2.985   4.630 -0.1447  0.2463 -0.1957
 4745TIP3    H135726   1.967   3.069   4.661  2.3152 -0.4688 -0.7380
 4745TIP3    H235727   1.941   2.927   4.706 -0.1671  0.0654 -0.3331
 4746TIP3   OH235728   2.801   3.735  13.516  0.0650  0.1267 -0.6064
 4746TIP3    H135729   2.743   3.728  13.441 -0.2217  2.4522 -0.6855
 4746TIP3    H235730   2.745   3.718  13.592 -0.9307  2.7635 -0.6499
 4747TIP3   OH235731   5.554   5.526   2.629 -0.7088  0.0140 -0.2419
 4747TIP3    H135732   5.641   5.519   2.589  0.1571 -0.2779  1.5582
 4747TIP3    H235733   5.572   5.558   2.718 -2.7034  3.0608 -0.7860
 4748TIP3   OH235734   4.437   2.146   2.501 -0.1902 -0.6829 -0.0388
 4748TIP3    H135735   4.417   2.232   2.539 -0.1753 -0.1825 -1.1179
 4748TIP3    H235736   4.469   2.166   2.413  0.9122 -1.7337  0.0966
 4749TIP3   OH235737   0.125   3.432  13.300  0.1435  0.7735 -0.6094
 4749TIP3    H135738   0.182   3.508  13.290  0.5336  0.5384 -0.2041
 4749TIP3    H235739   0.038   3.469  13.318  0.0477  1.1399 -1.7610
 4750TIP3   OH235740   5.991   0.578  17.239  0.2427  0.4202 -0.4076
 4750TIP3    H135741   5.922   0.512  17.247  0.7257  0.1153  1.8104
 4750TIP3    H235742   6.048   0.544  17.171 -1.2889  0.2497 -1.6722
 4751TIP3   OH235743   4.727   2.798  12.161  0.1075  0.2539  0.2927
 4751TIP3    H135744   4.797   2.761  12.215 -0.7226 -1.0707  0.5241
 4751TIP3    H235745   4.757   2.787  12.071  0.6565  0.6929  0.4180
 4752TIP3   OH235746   0.835   4.863  12.681 -0.5864 -0.0507 -0.4590
 4752TIP3    H135747   0.860   4.955  12.680 -0.1930 -0.1528 -0.1667
 4752TIP3    H235748   0.870   4.827  12.600  0.0536 -0.1527 -0.1365
 4753TIP3   OH235749   3.897   4.713   1.939  0.3972  0.0190  0.3127
 4753TIP3    H135750   3.984   4.723   1.902  0.6450 -0.1690  0.8319
 4753TIP3    H235751   3.856   4.799   1.928  0.8822  0.2993  0.6520
 4754TIP3   OH235752   0.001   1.178  16.913 -0.6310 -0.2506 -0.6009
 4754TIP3    H135753  -0.002   1.143  17.002  0.3027  1.6319  0.2412
 4754TIP3    H235754  -0.083   1.153  16.874 -0.8467 -1.5613  0.6029
 4755TIP3   OH235755   3.535   5.379  13.102 -0.0950  0.3861 -0.1363
 4755TIP3    H135756   3.577   5.444  13.158 -0.8365  1.3459 -0.6543
 4755TIP3    H235757   3.607   5.343  13.049  0.4007  0.4126  0.5065
 4756TIP3   OH235758   3.954   3.380   6.286  0.0556 -0.2753 -0.7729
 4756TIP3    H135759   4.032   3.406   6.237  0.7784 -1.0069 -0.0345
 4756TIP3    H235760   3.924   3.301   6.242 -0.8411  0.5148 -1.6360
 4757TIP3   OH235761   6.104   3.896   4.101 -0.3635 -0.0187  0.0524
 4757TIP3    H135762   6.160   3.939   4.166  0.0334  0.1152 -0.3702
 4757TIP3    H235763   6.017   3.897   4.140 -0.4691  1.6019 -0.1546
 4758TIP3   OH235764   3.351   3.995   0.478  0.0619  0.4340 -0.2241
 4758TIP3    H135765   3.386   4.028   0.395 -2.1892  3.8663 -0.0506
 4758TIP3    H235766   3.415   4.024   0.543 -0.3500  1.8759 -0.4092
 4759TIP3   OH235767   1.241   2.878  15.757  0.0246  0.2229  0.0995
 4759TIP3    H135768   1.218   2.938  15.685  0.7930  0.5261  0.0981
 4759TIP3    H235769   1.297   2.930  15.814  1.3275 -0.7113 -0.2890
 4760TIP3   OH235770   6.151   2.013   1.807 -0.4232  0.2046  0.3925
 4760TIP3    H135771   6.195   1.941   1.762  0.9524  0.7944  0.7328
 4760TIP3    H235772   6.111   2.064   1.737 -0.1239 -0.0639  0.0209
 4761TIP3   OH235773   4.673   4.915   5.493  0.7705  0.0625  0.0621
 4761TIP3    H135774   4.603   4.953   5.546 -2.1211 -1.3201 -2.4668
 4761TIP3    H235775   4.722   4.861   5.554 -0.3014  1.1395  1.9682
 4762TIP3   OH235776   6.674   6.782   0.840  0.1053 -0.2523  0.3067
 4762TIP3    H135777   6.682   6.804   0.747 -0.8417  1.8309  0.6586
 4762TIP3    H235778   6.764   6.779   0.871  0.3753  1.5586 -0.1814
 4763TIP3   OH235779   6.642   1.250  14.656  0.1397 -0.0079  0.2344
 4763TIP3    H135780   6.607   1.204  14.581  1.7554  0.1784 -0.6884
 4763TIP3    H235781   6.697   1.319  14.619 -0.7885  1.5437  1.5872
 4764TIP3   OH235782   3.687   2.883   3.241  0.3196  0.3401  0.0428
 4764TIP3    H135783   3.707   2.960   3.294 -1.9890  2.2243 -1.5505
 4764TIP3    H235784   3.609   2.846   3.281  1.2298 -1.0306  0.6017
 4765TIP3   OH235785   3.764   3.712   4.943  0.0805  0.1444  0.4753
 4765TIP3    H135786   3.786   3.743   5.031  1.1700  1.2844 -0.1729
 4765TIP3    H235787   3.750   3.792   4.892  0.2077 -0.4836 -0.5729
 4766TIP3   OH235788   6.250   6.066  12.239  0.3667 -0.9528  0.5718
 4766TIP3    H135789   6.172   6.094  12.287 -0.0955 -1.3189  0.0427
 4766TIP3    H235790   6.247   6.116  12.157  0.4237 -1.3322  0.3398
 4767TIP3   OH235791   1.459   1.069  16.967  0.1919 -0.5671  0.0791
 4767TIP3    H135792   1.511   1.127  17.022 -0.9621 -0.7053  1.3703
 4767TIP3    H235793   1.400   1.127  16.920 -2.0032 -0.6820  2.4852
 4768TIP3   OH235794   5.639   5.313  15.243  0.7005 -0.3589  0.0548
 4768TIP3    H135795   5.668   5.272  15.325 -0.6735  0.5272  1.0244
 4768TIP3    H235796   5.550   5.342  15.261 -0.0094 -1.0095 -2.0985
 4769TIP3   OH235797   3.470   5.958   6.427 -0.5075 -0.3893 -0.5013
 4769TIP3    H135798   3.548   5.911   6.397 -0.8402 -2.0820  1.0999
 4769TIP3    H235799   3.406   5.889   6.444 -2.5390  0.9656 -2.1119
 4770TIP3   OH235800   2.133   6.684   6.627  0.4759 -0.7373  0.0387
 4770TIP3    H135801   2.203   6.712   6.568  0.8339  0.3877  0.9627
 4770TIP3    H235802   2.075   6.761   6.634 -0.1844 -1.2428  0.2550
 4771TIP3   OH235803   3.387   0.260   4.604 -0.8707  0.5880 -0.5375
 4771TIP3    H135804   3.454   0.327   4.594  1.2453 -1.2698  0.2261
 4771TIP3    H235805   3.388   0.213   4.521 -1.4490  0.6990 -0.6162
 4772TIP3   OH235806   4.927   0.842   4.700  0.0652  1.1909 -0.9593
 4772TIP3    H135807   4.918   0.785   4.776  1.5453  0.3434 -1.3782
 4772TIP3    H235808   4.960   0.924   4.735 -1.7644  1.7284 -0.3906
 4773TIP3   OH235809   0.081   2.009  16.281 -0.1500 -0.1539  0.7046
 4773TIP3    H135810   0.047   2.069  16.215  0.8634  0.1620  0.4532
 4773TIP3    H235811   0.088   1.925  16.236 -0.4921 -0.2005  0.7340
 4774TIP3   OH235812   6.271   1.037  15.258 -0.2609 -0.1928  0.2293
 4774TIP3    H135813   6.341   1.052  15.195 -0.4750  1.7053  0.3963
 4774TIP3    H235814   6.209   0.981  15.211  0.1295  0.2533 -0.8538
 4775TIP3   OH235815   2.529   3.628  11.439 -0.2684  0.1158  0.1858
 4775TIP3    H135816   2.541   3.667  11.525 -1.2908 -2.1192  1.4138
 4775TIP3    H235817   2.616   3.595  11.416 -0.3393 -0.8702  1.2277
 4776TIP3   OH235818   2.558   3.754  13.322  0.4143 -0.2489 -0.0096
 4776TIP3    H135819   2.513   3.834  13.293  0.9345 -0.0493 -0.2696
 4776TIP3    H235820   2.487   3.690  13.333 -0.0931  0.4499  0.9161
 4777TIP3   OH235821   5.230   5.569  16.616  0.1265  0.0726 -0.8833
 4777TIP3    H135822   5.251   5.476  16.609 -0.5065 -0.2676  1.2260
 4777TIP3    H235823   5.302   5.607  16.666 -0.8661  0.1927  0.5018
 4778TIP3   OH235824   5.503   2.825  12.708 -0.5411 -0.0946 -0.3334
 4778TIP3    H135825   5.574   2.796  12.766 -1.8415 -0.9717  0.8957
 4778TIP3    H235826   5.485   2.750  12.652 -1.5124 -0.4433  0.4169
 4779TIP3   OH235827   6.776   2.136   2.674 -0.1477 -0.2709  0.1982
 4779TIP3    H135828   6.721   2.209   2.702 -1.4907 -0.8419 -0.8528
 4779TIP3    H235829   6.747   2.062   2.727  0.2881 -0.3621  0.3163
 4780TIP3   OH235830   3.358   1.339  13.822  0.0886  0.8684  0.7770
 4780TIP3    H135831   3.436   1.297  13.859  1.4485  3.1308  0.6368
 4780TIP3    H235832   3.384   1.364  13.734 -1.2548  0.5549  0.2689
 4781TIP3   OH235833   4.886   0.726   3.093 -0.0225 -1.0499  0.2117
 4781TIP3    H135834   4.923   0.758   3.011 -0.1686  0.2037  0.6170
 4781TIP3    H235835   4.940   0.650   3.115  1.9030  0.2994  0.4058
 4782TIP3   OH235836   6.132   0.475  14.906 -0.3852  0.2898  0.1598
 4782TIP3    H135837   6.221   0.441  14.917 -0.4421  0.2025  0.3611
 4782TIP3    H235838   6.075   0.402  14.930 -0.5222 -0.0311 -1.0772
 4783TIP3   OH235839   0.063   5.196  15.888 -0.0186 -0.4092  0.6267
 4783TIP3    H135840   0.052   5.102  15.902 -2.1208  0.1287  3.4905
 4783TIP3    H235841  -0.015   5.235  15.927  0.5132  2.5318 -0.9841
 4784TIP3   OH235842   4.838   0.960  16.667  0.5521 -0.4664  0.3983
 4784TIP3    H135843   4.872   1.021  16.732 -0.3070 -1.0578  1.4287
 4784TIP3    H235844   4.908   0.897  16.654  1.0058  0.0760  0.1961
 4785TIP3   OH235845   3.354   4.018  11.410  0.5050  0.1469  0.0732
 4785TIP3    H135846   3.432   4.004  11.356  1.0023  1.1136  0.5078
 4785TIP3    H235847   3.308   4.090  11.368  0.2807  0.1293  0.2822
 4786TIP3   OH235848   3.552   0.631   0.739 -0.2861  0.2860 -0.5061
 4786TIP3    H135849   3.627   0.596   0.691  0.1212 -0.1829  0.4343
 4786TIP3    H235850   3.492   0.662   0.672  0.7120  0.5724 -1.2773
 4787TIP3   OH235851   6.759   5.288  14.788  0.1698 -0.0540  0.1769
 4787TIP3    H135852   6.756   5.202  14.746 -1.6641  0.5642 -1.0849
 4787TIP3    H235853   6.721   5.274  14.875 -0.1463 -0.5208 -0.0300
 4788TIP3   OH235854   1.876   4.890   2.175  0.1314  0.3388  0.5347
 4788TIP3    H135855   1.950   4.943   2.145 -1.8335  2.1241 -1.4782
 4788TIP3    H235856   1.813   4.953   2.209 -2.2851 -0.5619 -1.9011
 4789TIP3   OH235857   4.742   4.454  13.794  0.0486  0.5272 -0.3894
 4789TIP3    H135858   4.650   4.480  13.800  0.2530  0.9988  1.4104
 4789TIP3    H235859   4.791   4.533  13.814  0.7418 -0.3335  1.6898
 4790TIP3   OH235860   2.467   4.996   0.463 -0.1165 -0.0854 -0.1502
 4790TIP3    H135861   2.421   4.913   0.466  1.6209 -1.0711  1.6601
 4790TIP3    H235862   2.540   4.982   0.404  0.0393  0.2598 -0.0449
 4791TIP3   OH235863   6.113   3.195  11.478 -0.8735  0.0061  0.0812
 4791TIP3    H135864   6.124   3.146  11.397 -2.2494 -0.7474  0.3162
 4791TIP3    H235865   6.038   3.252  11.462  1.2568  2.8515 -0.5224
 4792TIP3   OH235866   2.580   5.139   2.341 -0.9495  0.2590 -0.0375
 4792TIP3    H135867   2.518   5.170   2.408  2.5592 -0.8125  4.1516
 4792TIP3    H235868   2.567   5.045   2.338 -0.7255  0.2429 -0.5701
 4793TIP3   OH235869   5.454   3.772   1.834  0.0367  0.3277 -0.1822
 4793TIP3    H135870   5.502   3.785   1.752 -0.8690  1.2190 -0.5944
 4793TIP3    H235871   5.517   3.795   1.902  0.3326  1.0925 -0.6938
 4794TIP3   OH235872   1.872   3.870  17.020  0.0706 -0.0700 -0.0376
 4794TIP3    H135873   1.965   3.889  17.033  1.4467 -2.9657 -3.8558
 4794TIP3    H235874   1.837   3.949  16.977  1.4924  0.0464 -1.0283
 4795TIP3   OH235875   5.981   3.658   3.077 -0.0394 -0.5407  0.3905
 4795TIP3    H135876   5.955   3.569   3.055  0.2686 -0.5955  0.2443
 4795TIP3    H235877   6.070   3.649   3.112 -0.4099 -0.4226  1.4095
 4796TIP3   OH235878   6.706   1.899  15.958  0.2577 -0.1555  0.0410
 4796TIP3    H135879   6.755   1.830  15.913 -1.9467 -2.0355  0.3012
 4796TIP3    H235880   6.615   1.885  15.930 -0.6566  0.9099  2.2461
 4797TIP3   OH235881   1.965   4.379  17.038 -0.1259  0.0621 -0.1464
 4797TIP3    H135882   1.953   4.455  16.980 -0.5371 -0.2158 -0.4293
 4797TIP3    H235883   1.999   4.416  17.119  0.7205  0.4300 -0.6496
 4798TIP3   OH235884   4.425   1.875   2.222  0.0823 -0.1119 -0.0389
 4798TIP3    H135885   4.419   1.863   2.317  2.4694  3.0694  0.7129
 4798TIP3    H235886   4.450   1.967   2.212 -0.5454 -0.1953 -3.8351
 4799TIP3   OH235887   5.397   1.790  16.602 -0.3149 -0.1535  0.9869
 4799TIP3    H135888   5.305   1.797  16.626 -0.5594  1.4521 -0.2540
 4799TIP3    H235889   5.398   1.794  16.507  1.0626  0.2294  0.9905
 4800TIP3   OH235890   1.117   0.974   5.123 -0.7241 -0.5611 -0.1420
 4800TIP3    H135891   1.026   1.001   5.138 -0.8284 -1.2173  0.4655
 4800TIP3    H235892   1.125   0.970   5.028 -1.0999  0.2551 -0.2141
 4801TIP3   OH235893   3.806   0.022  15.257 -0.5960 -0.0402 -0.0913
 4801TIP3    H135894   3.744   0.077  15.210  0.1913  0.0081 -1.1033
 4801TIP3    H235895   3.878   0.081  15.279 -0.1604 -0.4549 -0.3873
 4802TIP3   OH235896   2.322   4.929   5.596  0.2025  0.0880  0.3781
 4802TIP3    H135897   2.367   4.952   5.515 -0.1061  1.1002  0.4755
 4802TIP3    H235898   2.375   4.969   5.665 -1.7006  2.8852  0.3928
 4803TIP3   OH235899   2.457   6.700  13.812 -0.5479  0.1151 -0.5717
 4803TIP3    H135900   2.495   6.726  13.728 -0.6244  0.2579 -0.5625
 4803TIP3    H235901   2.372   6.663  13.790  0.1929 -1.6025 -0.7432
 4804TIP3   OH235902   1.499   0.325   5.326  0.5747 -0.2167 -0.7140
 4804TIP3    H135903   1.527   0.256   5.385 -0.3346  2.3054  3.0567
 4804TIP3    H235904   1.407   0.339   5.348  0.8201  2.3795 -0.9865
 4805TIP3   OH235905   0.123   1.285   1.056 -0.4893  0.1177  0.7973
 4805TIP3    H135906   0.091   1.365   1.097 -3.3747 -0.3400 -0.3370
 4805TIP3    H235907   0.056   1.219   1.074  1.1407 -1.7252  0.5465
 4806TIP3   OH235908   6.150   6.476   5.204  0.4556  0.0501 -0.4027
 4806TIP3    H135909   6.067   6.441   5.171 -0.1048  0.5268  0.4619
 4806TIP3    H235910   6.179   6.411   5.268 -0.3324  0.8788  0.8356
 4807TIP3   OH235911   2.430   2.079   6.190 -0.0350  0.4551 -0.2135
 4807TIP3    H135912   2.509   2.126   6.217 -1.5111  2.4210  0.9108
 4807TIP3    H235913   2.431   1.999   6.242  1.3486  0.2606 -0.4748
 4808TIP3   OH235914   3.879   6.804   1.760 -0.2221 -0.2325  0.2879
 4808TIP3    H135915   3.973   6.811   1.743 -0.6666  4.6452 -1.9052
 4808TIP3    H235916   3.848   6.736   1.700  1.6443 -0.3502 -0.5888
 4809TIP3   OH235917   4.057   4.356   4.299  0.1158  0.4152  0.6412
 4809TIP3    H135918   4.115   4.286   4.269  1.4182  0.9742  1.7656
 4809TIP3    H235919   4.008   4.382   4.221  0.4543 -0.9361 -0.0477
 4810TIP3   OH235920   3.714   4.883  16.455 -0.8331 -0.1021 -0.1613
 4810TIP3    H135921   3.669   4.887  16.539 -0.2756 -0.5913  0.1728
 4810TIP3    H235922   3.776   4.810  16.464  0.5988  1.0475 -0.3158
 4811TIP3   OH235923   5.925   6.140  11.478  0.4795 -0.6773 -0.2556
 4811TIP3    H135924   6.001   6.197  11.480 -1.1213  1.6001  1.3619
 4811TIP3    H235925   5.951   6.063  11.528  1.3168  0.6883  1.5068
 4812TIP3   OH235926   5.265   3.809   0.150  0.1921 -0.4507 -0.1653
 4812TIP3    H135927   5.220   3.735   0.190 -0.1109 -0.2458 -0.1201
 4812TIP3    H235928   5.357   3.795   0.171  0.2152 -1.1322 -0.6841
 4813TIP3   OH235929   5.118   0.234   1.938 -0.0129  0.1405 -0.4829
 4813TIP3    H135930   5.145   0.222   1.847 -1.9092  1.6645 -1.3310
 4813TIP3    H235931   5.151   0.321   1.961 -1.0475  0.5038 -0.3320
 4814TIP3   OH235932   4.842   5.510  13.827 -0.3380  0.5094 -0.2244
 4814TIP3    H135933   4.829   5.588  13.883  0.6672 -1.3580  2.8517
 4814TIP3    H235934   4.798   5.440  13.874  0.5916 -1.2332 -1.8310
 4815TIP3   OH235935   2.190   2.604  17.037  0.2708  0.3509  0.0181
 4815TIP3    H135936   2.161   2.681  16.988 -2.1748 -1.0804 -0.9413
 4815TIP3    H235937   2.227   2.546  16.971  0.1274 -0.1965  0.4163
 4816TIP3   OH235938   2.698   3.063  13.059 -0.1525  0.1727  0.4052
 4816TIP3    H135939   2.713   3.137  13.001 -0.4931  0.1407  0.2723
 4816TIP3    H235940   2.742   3.088  13.141 -0.7087  0.7631  0.5397
 4817TIP3   OH235941   3.701   2.050   1.193 -0.4380 -0.3233 -0.0679
 4817TIP3    H135942   3.701   2.108   1.269  2.5652 -0.4499  0.1207
 4817TIP3    H235943   3.688   1.962   1.230  0.7903 -0.3596  0.3350
 4818TIP3   OH235944   4.935   6.804   3.669  0.4595  0.1209  0.3418
 4818TIP3    H135945   4.868   6.816   3.601  0.4465 -1.7903 -0.0498
 4818TIP3    H235946   5.017   6.823   3.625  0.2657  1.8126  0.6410
 4819TIP3   OH235947   0.840   0.997   1.481 -0.2312  0.1675 -0.3622
 4819TIP3    H135948   0.902   0.932   1.449  1.1029  1.3802 -0.3625
 4819TIP3    H235949   0.762   0.985   1.427 -0.1656 -1.6629 -0.0890
 4820TIP3   OH235950   5.989   5.604   0.577 -0.0285  0.3170 -0.3443
 4820TIP3    H135951   5.922   5.618   0.644 -0.2699  1.7714 -0.8496
 4820TIP3    H235952   6.025   5.691   0.561  2.2435 -0.4705  0.1457
 4821TIP3   OH235953   2.644   2.397   3.978 -0.0132  0.6654  0.4461
 4821TIP3    H135954   2.736   2.422   3.982  0.0818  0.4316 -0.1920
 4821TIP3    H235955   2.609   2.447   3.903 -0.1970  0.0949  0.1485
 4822TIP3   OH235956   2.167   5.846   2.199 -0.7007  0.4588 -0.6088
 4822TIP3    H135957   2.219   5.846   2.119 -2.3745  0.8035 -1.7597
 4822TIP3    H235958   2.133   5.935   2.206 -1.5007  0.1339 -0.1635
 4823TIP3   OH235959   2.273   6.612  16.383  0.0712  0.2184 -0.4603
 4823TIP3    H135960   2.289   6.705  16.395  0.6531  0.0296  0.2279
 4823TIP3    H235961   2.332   6.586  16.312  2.5330 -0.3433  1.6528
 4824TIP3   OH235962   5.155   2.127   5.443  0.8504 -0.6301  0.1783
 4824TIP3    H135963   5.223   2.150   5.507  0.9770  1.6596 -0.6876
 4824TIP3    H235964   5.076   2.112   5.495  1.4160 -0.7883  1.0036
 4825TIP3   OH235965   3.006   1.728   4.499 -0.3572 -0.9237 -0.1546
 4825TIP3    H135966   2.911   1.716   4.492 -0.8271  1.3448  1.1203
 4825TIP3    H235967   3.029   1.778   4.420 -0.6817  0.4996  0.6119
 4826TIP3   OH235968   2.284   1.645   3.696  0.5070 -0.1909 -0.0339
 4826TIP3    H135969   2.343   1.618   3.626 -0.3629 -0.9009 -0.5130
 4826TIP3    H235970   2.288   1.741   3.696  1.8066 -0.2288  0.0900
 4827TIP3   OH235971   5.163   3.743   1.443  0.0050 -0.0698  0.0696
 4827TIP3    H135972   5.205   3.699   1.518  0.9129 -1.4357 -1.1803
 4827TIP3    H235973   5.108   3.810   1.483 -1.3839 -2.2531  2.1193
 4828TIP3   OH235974   6.525   4.441  14.800  0.2464 -0.0797 -0.2331
 4828TIP3    H135975   6.604   4.429  14.852  0.0359 -0.4922 -0.0052
 4828TIP3    H235976   6.466   4.370  14.827  0.0620 -0.1951 -0.8967
 4829TIP3   OH235977   4.983   3.400  16.365 -0.5847 -0.4929 -0.1372
 4829TIP3    H135978   4.906   3.409  16.310 -0.2430 -0.8057 -0.6686
 4829TIP3    H235979   5.012   3.490  16.381 -1.7461 -0.2909  1.0715
 4830TIP3   OH235980   3.157   0.670  16.342 -0.7846 -0.1406 -0.2306
 4830TIP3    H135981   3.252   0.682  16.347 -0.6369 -1.5615  1.3293
 4830TIP3    H235982   3.144   0.619  16.262 -0.3823  1.0462 -1.0884
 4831TIP3   OH235983   5.658   3.669  16.199  0.5019 -0.1771  0.0829
 4831TIP3    H135984   5.567   3.654  16.173  0.4724  0.2482 -0.0634
 4831TIP3    H235985   5.664   3.632  16.287  0.2727 -0.4884 -0.0289
 4832TIP3   OH235986   4.871   5.120  15.293  0.4725  0.6447  0.5175
 4832TIP3    H135987   4.864   5.050  15.228 -0.9930  2.3980 -1.3503
 4832TIP3    H235988   4.831   5.083  15.372  2.1075 -1.4846  0.4478
 4833TIP3   OH235989   6.442   1.224  15.443 -0.0251  0.6489  0.5358
 4833TIP3    H135990   6.366   1.198  15.392  0.2361  1.4975 -0.3327
 4833TIP3    H235991   6.474   1.143  15.483 -2.2391  0.5155  2.1564
 4834TIP3   OH235992   6.304   4.181  10.634 -0.1418 -0.0877  0.2962
 4834TIP3    H135993   6.262   4.171  10.548  2.4277  1.6002 -1.2950
 4834TIP3    H235994   6.259   4.256  10.673 -1.5917 -1.1059  0.6443
 4835TIP3   OH235995   4.423   3.388   5.515  0.4476 -0.6386 -0.4689
 4835TIP3    H135996   4.375   3.466   5.543 -1.5152 -1.6346 -0.8470
 4835TIP3    H235997   4.498   3.422   5.467  0.2105  1.0107  0.2495
 4836TIP3   OH235998   3.548   6.630  12.650 -0.1910  0.4658 -0.2801
 4836TIP3    H135999   3.590   6.696  12.595 -0.4588  1.7997  1.0406
 4836TIP3    H236000   3.568   6.547  12.608 -0.3472  1.4147 -2.3412
 4837TIP3   OH236001   4.786   0.067  15.730 -0.4173 -0.0736  0.3462
 4837TIP3    H136002   4.845   0.066  15.655  0.5147  2.9734  0.9365
 4837TIP3    H236003   4.713   0.011  15.703 -0.7581  1.8740 -3.4131
 4838TIP3   OH236004   0.953   1.239  12.174  0.0173 -0.2482  0.1654
 4838TIP3    H136005   1.046   1.255  12.191  0.4730 -2.0037 -0.4257
 4838TIP3    H236006   0.951   1.197  12.088 -1.1471 -1.7143  0.8477
 4839TIP3   OH236007   4.191   1.037   1.448  0.2210  0.5873 -0.2211
 4839TIP3    H136008   4.152   1.052   1.362 -0.6235  1.2487  0.2581
 4839TIP3    H236009   4.268   1.093   1.450  0.6176  0.0767 -0.7788
 4840TIP3   OH236010   1.151   3.431  15.544  0.8631 -0.1947  0.3845
 4840TIP3    H136011   1.088   3.459  15.477  0.2488 -1.6201  0.3317
 4840TIP3    H236012   1.100   3.427  15.624  1.7040  1.9829  1.1138
 4841TIP3   OH236013   3.093   5.810  13.009  0.5434 -0.4971  0.5661
 4841TIP3    H136014   3.166   5.788  13.067  0.6899  1.2371  1.1142
 4841TIP3    H236015   3.083   5.905  13.020 -1.4287 -0.6187  0.0612
 4842TIP3   OH236016   3.555   3.715   1.766  0.5056  0.0048  0.4496
 4842TIP3    H136017   3.617   3.738   1.697  0.8827 -0.5958  0.5839
 4842TIP3    H236018   3.592   3.755   1.845  1.4890 -1.5120  0.8037
 4843TIP3   OH236019   0.466   4.802  16.314  0.2782 -0.2722  0.3764
 4843TIP3    H136020   0.398   4.825  16.251  1.0809  0.0611 -0.3993
 4843TIP3    H236021   0.436   4.720  16.353 -0.2463 -0.4883 -0.4465
 4844TIP3   OH236022   5.254   5.382  14.284  0.4516  0.8875  0.4294
 4844TIP3    H136023   5.185   5.362  14.347  0.5544  0.6975  0.4831
 4844TIP3    H236024   5.334   5.385  14.336  0.6759 -0.2269  0.1685
 4845TIP3   OH236025   4.266   2.988  13.309 -0.3473  0.3587  0.0143
 4845TIP3    H136026   4.200   2.930  13.348  0.4234  0.6271  1.8527
 4845TIP3    H236027   4.231   3.076  13.324 -0.3098  0.4454 -0.4161
 4846TIP3   OH236028   4.541   4.794  11.454 -1.1572  0.4240 -0.2620
 4846TIP3    H136029   4.462   4.744  11.475 -0.8523  0.1878  0.3575
 4846TIP3    H236030   4.510   4.884  11.441 -1.4987  0.3811  0.2284
 4847TIP3   OH236031   6.491   0.943  13.311  0.6623 -0.0261  0.3096
 4847TIP3    H136032   6.571   0.974  13.354  0.6434  0.8879 -0.2728
 4847TIP3    H236033   6.505   0.964  13.218  0.3177 -1.1114  0.0070
 4848TIP3   OH236034   3.857   3.272   3.631  0.3819  0.2771  0.3390
 4848TIP3    H136035   3.796   3.342   3.610  1.9382  0.8761 -2.9071
 4848TIP3    H236036   3.832   3.200   3.574  0.8613 -0.5940  1.1914
 4849TIP3   OH236037   4.052   0.964   3.849 -0.4950  0.0073 -0.4137
 4849TIP3    H136038   4.099   0.881   3.841 -0.1357  0.1398  0.2224
 4849TIP3    H236039   4.116   1.031   3.824 -1.2375  0.0193 -2.4583
 4850TIP3   OH236040   1.734   6.222  17.070  0.0576 -0.5996 -0.0547
 4850TIP3    H136041   1.672   6.195  17.002 -1.5364 -0.1325  1.1579
 4850TIP3    H236042   1.691   6.199  17.152  0.3207  2.0957  0.9228
 4851TIP3   OH236043   2.787   2.939   5.210  0.1636 -0.0480 -0.1929
 4851TIP3    H136044   2.810   3.004   5.276  1.3554 -1.6278  1.0253
 4851TIP3    H236045   2.853   2.870   5.219 -0.1215 -0.7302 -2.4883
 4852TIP3   OH236046   2.311   1.378  16.503  0.9170 -0.1756  0.3146
 4852TIP3    H136047   2.224   1.361  16.541  0.4991  0.5231 -0.3197
 4852TIP3    H236048   2.368   1.314  16.546  0.1586 -0.4141  0.9965
 4853TIP3   OH236049   3.666   3.531  15.976  0.2190 -0.4003  0.1277
 4853TIP3    H136050   3.582   3.578  15.974  2.1683  3.4902 -0.3279
 4853TIP3    H236051   3.677   3.498  15.886  0.8775  2.7245 -1.0621
 4854TIP3   OH236052   6.765   2.360   4.188  0.1126 -0.4035  0.2819
 4854TIP3    H136053   6.822   2.287   4.163 -1.3276 -0.8848 -1.8821
 4854TIP3    H236054   6.786   2.429   4.126 -1.1153 -0.3294 -0.0681
 4855TIP3   OH236055   3.745   2.425  16.190 -0.3476 -0.3004 -0.0141
 4855TIP3    H136056   3.749   2.514  16.226  0.3970  0.0262 -0.8721
 4855TIP3    H236057   3.739   2.368  16.267  3.8952  0.1859  0.9265
 4856TIP3   OH236058   4.660   1.111  16.033  0.4319 -0.0619 -0.3955
 4856TIP3    H136059   4.643   1.037  15.975 -0.0487  0.5667 -1.0730
 4856TIP3    H236060   4.752   1.132  16.018  0.0542  0.7504 -1.7346
 4857TIP3   OH236061   1.029   0.027   3.664 -0.8253 -0.2105 -0.2551
 4857TIP3    H136062   1.014  -0.065   3.644 -1.7711 -0.3883  1.1251
 4857TIP3    H236063   1.093   0.026   3.735  0.4649  0.2970 -1.3561
 4858TIP3   OH236064   1.311   2.515  12.683  0.2837 -0.0010  0.1692
 4858TIP3    H136065   1.330   2.422  12.671  0.9949  0.0877  0.5282
 4858TIP3    H236066   1.361   2.559  12.614  0.6161  0.1713  0.5156
 4859TIP3   OH236067   0.067   0.413   3.042 -0.2863 -0.6851  0.3041
 4859TIP3    H136068   0.114   0.476   2.987 -0.4339 -0.8477 -0.0138
 4859TIP3    H236069   0.029   0.465   3.112  0.7526 -0.6097  0.8375
 4860TIP3   OH236070   2.665   2.830  15.805  0.2344  0.1434  0.2192
 4860TIP3    H136071   2.739   2.785  15.846  0.5358  1.3083  1.0082
 4860TIP3    H236072   2.687   2.833  15.712  2.0312  1.9329  0.6287
 4861TIP3   OH236073   2.338   6.069   0.165 -0.2832 -0.1287 -0.3606
 4861TIP3    H136074   2.322   6.163   0.171  1.2475  0.1432 -0.1734
 4861TIP3    H236075   2.259   6.028   0.201 -1.1368  1.0623 -0.8322
 4862TIP3   OH236076   3.468   6.287  12.886 -0.6659  0.6770 -0.1548
 4862TIP3    H136077   3.510   6.369  12.910 -0.4721  0.8765 -1.1557
 4862TIP3    H236078   3.420   6.306  12.805  2.7977 -1.1359 -2.9293
 4863TIP3   OH236079   0.919   3.784  16.499 -0.3105  0.8320 -0.6315
 4863TIP3    H136080   0.993   3.724  16.510  1.6327  2.9653 -1.4031
 4863TIP3    H236081   0.906   3.822  16.586 -2.3961 -1.4719  0.1927
 4864TIP3   OH236082   5.079   6.594  15.576  0.4813  0.0118 -0.2720
 4864TIP3    H136083   5.034   6.514  15.602 -0.9856  1.1420  0.8150
 4864TIP3    H236084   5.097   6.582  15.483 -4.9584  0.6447 -1.7525
 4865TIP3   OH236085   6.619   5.704   2.548  0.3998 -0.4311 -0.2011
 4865TIP3    H136086   6.579   5.791   2.555  0.5815 -0.4099  0.6792
 4865TIP3    H236087   6.578   5.665   2.471 -0.7914 -0.1424  0.2664
 4866TIP3   OH236088   0.553   1.506  11.521 -0.3367  0.0898 -0.2269
 4866TIP3    H136089   0.604   1.456  11.459 -0.4278 -0.5135  0.1796
 4866TIP3    H236090   0.485   1.549  11.468 -0.0096  0.1170 -0.6261
 4867TIP3   OH236091   5.436   4.791  15.505 -1.2556  0.4219 -0.6425
 4867TIP3    H136092   5.468   4.726  15.566 -0.7927  1.3232  0.1005
 4867TIP3    H236093   5.364   4.748  15.458 -1.1820 -0.4868  0.0718
 4868TIP3   OH236094   4.751   0.821  11.546 -0.0409 -0.0538  0.2484
 4868TIP3    H136095   4.751   0.826  11.450 -0.4977  0.3085  0.2623
 4868TIP3    H236096   4.660   0.839  11.571  0.1077  0.0110  0.7548
 4869TIP3   OH236097   6.495   3.180   2.003 -0.0393  0.1493 -0.0391
 4869TIP3    H136098   6.568   3.197   2.062 -2.5528  1.4913  2.9262
 4869TIP3    H236099   6.499   3.251   1.939  2.2038 -0.8304 -1.0989
 4870TIP3   OH236100   2.287   1.641   6.724 -0.1407 -0.4606 -0.0466
 4870TIP3    H136101   2.234   1.573   6.766  0.7679 -1.5237 -0.5532
 4870TIP3    H236102   2.224   1.702   6.686 -1.0885 -2.5858 -2.1069
 4871TIP3   OH236103   5.360   2.243  12.848 -0.0070 -0.2629  0.2469
 4871TIP3    H136104   5.417   2.212  12.918 -1.7753 -0.2177  1.7855
 4871TIP3    H236105   5.344   2.335  12.870  2.1040  0.7993 -2.1483
 4872TIP3   OH236106   5.408   0.686  13.664  0.2181 -0.4344 -0.2639
 4872TIP3    H136107   5.390   0.724  13.578  0.1404 -0.7683 -0.3943
 4872TIP3    H236108   5.436   0.597  13.646  1.2121 -0.1835 -0.0122
 4873TIP3   OH236109   0.238   2.302  15.512  0.5768 -0.0391 -0.0651
 4873TIP3    H136110   0.175   2.241  15.551 -1.2027 -0.0919 -2.7182
 4873TIP3    H236111   0.313   2.247  15.490  0.3878 -0.5751  0.5759
 4874TIP3   OH236112   5.117   0.697  11.799 -0.0185 -0.8138 -0.0087
 4874TIP3    H136113   5.090   0.692  11.707  0.2134  1.4517 -0.2544
 4874TIP3    H236114   5.207   0.728  11.797 -0.2077 -0.1193  0.9668
 4875TIP3   OH236115   0.673   1.913  16.559 -0.1184  0.8102  0.7931
 4875TIP3    H136116   0.729   1.845  16.521 -0.6442  0.8850 -0.1670
 4875TIP3    H236117   0.671   1.982  16.492 -1.1164  0.9370  0.9379
 4876TIP3   OH236118   6.045   3.698   5.260 -0.2308 -0.6761 -0.0765
 4876TIP3    H136119   6.040   3.605   5.284  0.5179 -0.8268 -0.4386
 4876TIP3    H236120   6.079   3.697   5.170 -0.3591 -0.0540 -0.1367
 4877TIP3   OH236121   2.860   3.020  12.708 -0.2988 -0.9632 -0.2073
 4877TIP3    H136122   2.925   3.042  12.775  0.3165 -2.0921 -0.4029
 4877TIP3    H236123   2.907   2.965  12.646 -0.8409  0.1244 -1.6391
 4878TIP3   OH236124   3.205   4.480   2.576  0.6612  0.2832 -0.6681
 4878TIP3    H136125   3.163   4.396   2.592 -1.0436  1.2286  0.1780
 4878TIP3    H236126   3.226   4.479   2.483 -2.6496  0.2493 -1.5721
 4879TIP3   OH236127   3.438   0.986  17.195  0.1733  0.0836 -0.4211
 4879TIP3    H136128   3.376   1.059  17.189 -0.1976  0.2285  3.0357
 4879TIP3    H236129   3.391   0.912  17.155 -1.3279  0.7248  0.0726
 4880TIP3   OH236130   6.520   2.785   1.391 -0.3742 -0.4677  0.0224
 4880TIP3    H136131   6.443   2.812   1.340 -1.3253 -2.1706  0.4443
 4880TIP3    H236132   6.579   2.859   1.388 -1.6844  0.5783 -1.0541
 4881TIP3   OH236133   5.890   5.555  15.901 -0.0623 -0.1097 -0.4293
 4881TIP3    H136134   5.850   5.630  15.945 -1.3307 -0.9303 -0.1464
 4881TIP3    H236135   5.928   5.503  15.972  1.4146  0.5693 -0.6790
 4882TIP3   OH236136   2.717   1.282  16.484 -0.0785 -0.4770 -0.2546
 4882TIP3    H136137   2.788   1.320  16.536  1.1655  1.0554 -2.8285
 4882TIP3    H236138   2.648   1.262  16.547  1.5073  0.6960  2.0015
 4883TIP3   OH236139   2.310   6.648   4.825  0.1323  0.3108  0.2469
 4883TIP3    H136140   2.391   6.633   4.777  0.0195 -0.4532  0.2750
 4883TIP3    H236141   2.267   6.720   4.779 -0.5140 -1.1125 -1.5193
 4884TIP3   OH236142   2.818   4.369   5.964  0.0769  0.2794  0.2755
 4884TIP3    H136143   2.903   4.326   5.972 -0.0350 -0.5081 -2.0457
 4884TIP3    H236144   2.837   4.451   5.918 -0.3125  0.4570  0.4275
 4885TIP3   OH236145   5.743   1.237  11.160  0.1253  0.4383 -0.1266
 4885TIP3    H136146   5.813   1.289  11.119 -0.0081  1.2992  0.7007
 4885TIP3    H236147   5.680   1.224  11.089  0.8312  0.1517 -0.7295
 4886TIP3   OH236148   2.583   1.741  15.169 -0.3524 -0.1285 -0.5204
 4886TIP3    H136149   2.581   1.668  15.107 -1.3839  0.9880 -1.8587
 4886TIP3    H236150   2.668   1.783  15.153 -0.6984  0.2782 -1.3630
 4887TIP3   OH236151   6.480   6.423   5.276 -0.2776  0.0670  0.8131
 4887TIP3    H136152   6.530   6.358   5.324 -0.4306 -0.5500  0.1582
 4887TIP3    H236153   6.472   6.387   5.188  0.4072  1.3729  0.1759
 4888TIP3   OH236154   1.302   2.521  11.348 -0.2333 -0.3397 -0.3748
 4888TIP3    H136155   1.303   2.545  11.441  0.8330 -3.9569  0.6868
 4888TIP3    H236156   1.393   2.499  11.328 -0.2476  1.2615 -2.6556
 4889TIP3   OH236157   2.111   4.549  17.228 -0.1056 -0.2231  0.3380
 4889TIP3    H136158   2.184   4.513  17.279 -0.7430  0.1048  1.5385
 4889TIP3    H236159   2.112   4.643  17.248 -2.1242 -0.4945  2.1621
 4890TIP3   OH236160   3.670   4.531   5.009 -0.1262  0.7768 -0.0978
 4890TIP3    H136161   3.583   4.569   5.020 -0.6773 -0.3659 -0.4172
 4890TIP3    H236162   3.655   4.437   5.007  1.1042  0.5720 -0.3232
 4891TIP3   OH236163   3.217   5.221   0.420  0.6115 -0.5628  0.0591
 4891TIP3    H136164   3.235   5.315   0.425 -3.4480  0.3937  0.6176
 4891TIP3    H236165   3.169   5.211   0.337  0.6648 -2.0889  0.1890
 4892TIP3   OH236166   4.533   4.420   4.975 -0.5946  0.2111  0.2081
 4892TIP3    H136167   4.538   4.326   4.960 -1.2239  0.3482 -0.9933
 4892TIP3    H236168   4.583   4.459   4.904  2.0115  0.7638  2.1919
 4893TIP3   OH236169   4.291   1.244  17.257  0.4487 -0.7670  0.0251
 4893TIP3    H136170   4.297   1.159  17.212 -0.5217 -1.8365  1.8239
 4893TIP3    H236171   4.287   1.222  17.350  1.2450  1.3254  0.6105
 4894TIP3   OH236172   0.228   2.077  11.454 -0.1119  0.7486 -0.6771
 4894TIP3    H136173   0.228   2.094  11.360 -0.8583  3.1595 -0.3188
 4894TIP3    H236174   0.138   2.050  11.474  0.6569 -2.4953 -0.9639
 4895TIP3   OH236175   5.575   3.260   0.955 -0.1310 -0.4874 -0.4275
 4895TIP3    H136176   5.561   3.167   0.936 -0.4095 -0.0825 -2.3906
 4895TIP3    H236177   5.488   3.293   0.978 -0.2152 -0.4990 -0.7291
 4896TIP3   OH236178   5.109   5.817   5.780  0.0427 -0.0658 -0.2388
 4896TIP3    H136179   5.083   5.818   5.872  0.4508  1.8301 -0.0991
 4896TIP3    H236180   5.202   5.793   5.783  0.2249  0.6352 -0.0867
 4897TIP3   OH236181   6.096   6.559  15.430  0.0345 -0.4419 -0.2632
 4897TIP3    H136182   6.078   6.642  15.474  0.2861 -0.1994 -0.6105
 4897TIP3    H236183   6.017   6.541  15.379 -0.6247 -1.1863  0.9809
 4898TIP3   OH236184   0.526   1.941  17.122  0.4816  0.0960  0.3008
 4898TIP3    H136185   0.588   1.989  17.068 -2.0248  0.7064 -2.2888
 4898TIP3    H236186   0.535   1.850  17.094 -0.0471  0.2512 -0.4047
 4899TIP3   OH236187   5.157   5.531   2.399  0.5725  0.6184  0.9664
 4899TIP3    H136188   5.200   5.447   2.412  0.1013 -0.3745 -2.9040
 4899TIP3    H236189   5.228   5.592   2.381  0.7883  0.7033  2.0323
 4900TIP3   OH236190   4.357   3.496   4.665  0.3440 -0.1150  0.0382
 4900TIP3    H136191   4.352   3.400   4.671  0.0252 -0.0594  0.6629
 4900TIP3    H236192   4.372   3.525   4.755 -1.3694  0.5365  0.1444
 4901TIP3   OH236193   0.232   5.204  12.576  0.5377  0.0735 -0.2652
 4901TIP3    H136194   0.239   5.190  12.481  3.2547 -0.5665 -0.0414
 4901TIP3    H236195   0.144   5.172  12.598  0.6569 -1.8536 -2.2401
 4902TIP3   OH236196   1.254   5.554   4.177  0.1320 -0.1018  0.4907
 4902TIP3    H136197   1.316   5.487   4.147 -1.2024 -0.9505 -0.5442
 4902TIP3    H236198   1.249   5.617   4.105 -0.4705 -0.2469  0.3958
 4903TIP3   OH236199   3.066   2.357   6.860  0.6443 -0.3072 -0.1415
 4903TIP3    H136200   3.061   2.432   6.801  0.4425  0.0548  0.3350
 4903TIP3    H236201   2.975   2.334   6.878  0.6608 -1.7489 -1.6371
 4904TIP3   OH236202   5.913   2.051  13.881  0.0924  0.1411  0.6037
 4904TIP3    H136203   5.906   2.076  13.789 -1.7223 -0.6909  0.4722
 4904TIP3    H236204   5.932   2.133  13.927 -1.2984  0.9869 -0.2737
 4905TIP3   OH236205   4.932   1.862   2.276  0.3733 -0.0971 -0.1939
 4905TIP3    H136206   4.872   1.934   2.297  2.7471  2.0101 -0.2603
 4905TIP3    H236207   4.919   1.800   2.347 -1.3495  0.6037  0.1698
 4906TIP3   OH236208   3.124   4.498   3.999  0.2527  0.1574 -0.3171
 4906TIP3    H136209   3.057   4.474   4.063 -0.5873  1.8102 -0.5323
 4906TIP3    H236210   3.093   4.581   3.962  0.8784 -0.5548 -2.6050
 4907TIP3   OH236211   0.809   3.921  13.927  0.2748  0.6532 -0.5711
 4907TIP3    H136212   0.777   3.851  13.984 -0.1737  0.7434 -0.7070
 4907TIP3    H236213   0.738   3.985  13.926  0.7644  1.2064 -0.2854
 4908TIP3   OH236214   4.861   2.902  11.359  0.0854 -0.6588 -0.7047
 4908TIP3    H136215   4.876   2.965  11.289  0.3574 -0.3510 -0.3762
 4908TIP3    H236216   4.782   2.934  11.403 -1.7454 -2.3712 -2.5352
 4909TIP3   OH236217   2.288   2.630   2.098 -0.0363  0.1142 -0.0260
 4909TIP3    H136218   2.365   2.589   2.136 -0.5401  0.2461  1.1857
 4909TIP3    H236219   2.247   2.560   2.046 -0.1805 -0.5633  0.9616
 4910TIP3   OH236220   4.938   0.528  12.063  0.0707 -0.6838  0.1543
 4910TIP3    H136221   5.029   0.557  12.068  0.2409 -0.3028 -3.2649
 4910TIP3    H236222   4.913   0.512  12.155  2.8246  1.3907  1.4053
 4911TIP3   OH236223   5.729   1.120  10.837  0.8980 -1.0302 -0.3850
 4911TIP3    H136224   5.732   1.149  10.746  0.2650 -0.1824 -0.1443
 4911TIP3    H236225   5.649   1.159  10.873  1.7326 -0.3834  0.8496
 4912TIP3   OH236226   1.985   5.807  12.121  0.3640  0.3480 -0.2381
 4912TIP3    H136227   2.079   5.790  12.110  0.0919 -1.2520 -0.3399
 4912TIP3    H236228   1.957   5.843  12.037  0.7591  0.2275 -0.4233
 4913TIP3   OH236229   0.851   0.999   6.173 -0.4923 -0.2889 -0.1314
 4913TIP3    H136230   0.882   1.011   6.263  0.9601 -2.4442 -0.2473
 4913TIP3    H236231   0.871   1.082   6.129 -0.0100  0.3339  1.2139
 4914TIP3   OH236232   2.077   5.045  14.856 -0.1911  0.1714  0.0608
 4914TIP3    H136233   2.157   5.044  14.805  0.0813  2.0332  0.3923
 4914TIP3    H236234   2.016   5.099  14.806 -0.5121  0.5286  0.8066
 4915TIP3   OH236235   6.571   0.725  11.626  0.3355 -0.3021 -0.0035
 4915TIP3    H136236   6.627   0.656  11.591 -2.7296 -2.0505 -2.0389
 4915TIP3    H236237   6.509   0.678  11.683  0.5472  1.4395  1.7588
 4916TIP3   OH236238   5.175   4.979   0.911 -0.0664  0.1403 -0.1206
 4916TIP3    H136239   5.083   4.954   0.916 -0.9250  2.8144 -0.7900
 4916TIP3    H236240   5.215   4.912   0.856 -1.7161 -0.8111 -0.2257
 4917TIP3   OH236241   5.555   3.898   2.808  0.4866  0.0610 -0.0884
 4917TIP3    H136242   5.597   3.979   2.837  1.5476 -1.0262  1.4785
 4917TIP3    H236243   5.463   3.923   2.796 -0.0407  0.7335  3.9601
 4918TIP3   OH236244   3.240   1.824  14.585  0.0443 -0.0210 -0.9506
 4918TIP3    H136245   3.325   1.820  14.629 -0.2374  0.4271 -0.3465
 4918TIP3    H236246   3.239   1.910  14.543 -2.0146  2.2491  3.1336
 4919TIP3   OH236247   2.425   0.156   4.486  0.3887  0.5583  0.0609
 4919TIP3    H136248   2.427   0.179   4.579  0.9034  2.1159 -0.2908
 4919TIP3    H236249   2.482   0.221   4.444  2.1730 -1.6047 -1.0584
 4920TIP3   OH236250   4.074   1.130  10.846  0.3849  0.6405 -0.5388
 4920TIP3    H136251   3.997   1.120  10.790 -1.5971 -1.6280  2.2296
 4920TIP3    H236252   4.147   1.141  10.786 -2.0002  2.5172 -3.3512
 4921TIP3   OH236253   5.343   2.510   0.319  0.5153  0.1471 -0.0306
 4921TIP3    H136254   5.381   2.492   0.233  0.1856 -3.9105  0.4659
 4921TIP3    H236255   5.249   2.490   0.308 -0.0906  2.3974  0.6315
 4922TIP3   OH236256   4.550   3.274   2.698 -0.6511 -0.7800  0.7051
 4922TIP3    H136257   4.582   3.184   2.690 -0.0364 -0.3890 -2.1030
 4922TIP3    H236258   4.465   3.274   2.653  0.0736  0.3302 -0.7412
 4923TIP3   OH236259   0.649   5.900  14.536 -0.0149 -0.4600  0.2588
 4923TIP3    H136260   0.575   5.839  14.538 -0.4627  0.0480 -0.3533
 4923TIP3    H236261   0.632   5.956  14.460  0.0421  0.8533  1.1848
 4924TIP3   OH236262   1.876   0.607  11.268  0.1774  0.2676  0.2624
 4924TIP3    H136263   1.838   0.526  11.235 -1.5146  1.5040 -1.0825
 4924TIP3    H236264   1.809   0.643  11.326  0.4880  1.1183  0.1200
 4925TIP3   OH236265   5.423   1.305   0.391 -0.0728 -0.1162  0.1254
 4925TIP3    H136266   5.487   1.346   0.333  0.3226  0.6347  1.0618
 4925TIP3    H236267   5.339   1.321   0.347  0.3894 -1.6606 -1.4304
 4926TIP3   OH236268   4.685   2.866  11.594  0.3835  0.1461 -0.1470
 4926TIP3    H136269   4.748   2.795  11.608  0.7332  0.3156 -0.7985
 4926TIP3    H236270   4.607   2.839  11.642  0.8841 -0.1685  0.5046
 4927TIP3   OH236271   3.139   2.826  12.285  0.6733 -0.0185  0.2199
 4927TIP3    H136272   3.217   2.880  12.299  1.8600 -1.5233 -0.3640
 4927TIP3    H236273   3.097   2.866  12.209 -0.1468  1.8827  1.5978
 4928TIP3   OH236274   0.521   0.274  12.414 -0.1483  0.4344 -0.1487
 4928TIP3    H136275   0.453   0.323  12.461  0.7931 -0.4064  2.2706
 4928TIP3    H236276   0.600   0.286  12.468  0.5586 -2.1024 -0.5125
 4929TIP3   OH236277   5.296   4.791   4.189  0.2317  0.1033  0.1145
 4929TIP3    H136278   5.211   4.801   4.232  0.9519  1.4515  1.3216
 4929TIP3    H236279   5.314   4.697   4.190 -0.2541  0.0021  1.8580
 4930TIP3   OH236280   0.899   4.843  16.288 -0.5716 -0.1733  0.3310
 4930TIP3    H136281   0.974   4.902  16.276 -0.8219 -0.0592 -0.7853
 4930TIP3    H236282   0.871   4.822  16.199  0.5101 -3.2750  0.5866
 4931TIP3   OH236283   6.576   0.993  16.376 -0.1443  0.4003  0.0580
 4931TIP3    H136284   6.577   0.924  16.442  0.2694  0.8880  0.5719
 4931TIP3    H236285   6.553   0.949  16.295 -0.3870 -0.2520  0.4820
 4932TIP3   OH236286   4.751   5.005   6.174  0.1160  0.0703  0.0557
 4932TIP3    H136287   4.744   4.914   6.205 -0.5377  0.8796  2.5826
 4932TIP3    H236288   4.843   5.017   6.155  0.1215 -1.2793 -0.9651
 4933TIP3   OH236289   1.706   1.584  11.888 -0.7375 -0.1080  0.2629
 4933TIP3    H136290   1.667   1.661  11.928  1.5255  1.1883  0.1698
 4933TIP3    H236291   1.749   1.617  11.809 -1.5332 -1.8775 -0.9728
 4934TIP3   OH236292   5.956   5.855  15.953 -0.1160 -0.8301  0.6621
 4934TIP3    H136293   5.963   5.916  15.880  3.0069  0.4150  1.8501
 4934TIP3    H236294   5.861   5.842  15.964 -0.7698  0.8981 -1.9313
 4935TIP3   OH236295   3.210   2.440  15.378 -0.5989 -0.5804 -0.4876
 4935TIP3    H136296   3.235   2.532  15.383  0.3075 -0.8702  1.5490
 4935TIP3    H236297   3.114   2.440  15.382 -0.5998  0.2735 -0.3894
 4936TIP3   OH236298   1.261   1.569  14.645 -0.0907 -0.6083 -0.8386
 4936TIP3    H136299   1.230   1.508  14.712 -1.0549  0.7409 -0.0141
 4936TIP3    H236300   1.185   1.582  14.588 -0.5384  1.2832  0.1209
 4937TIP3   OH236301   1.561   2.581   4.758  0.6257  0.6498 -0.2077
 4937TIP3    H136302   1.577   2.671   4.728 -0.1399  0.3917 -1.4626
 4937TIP3    H236303   1.601   2.577   4.845 -1.7180  3.0685  1.1415
 4938TIP3   OH236304   0.005   2.165  11.090 -0.2378 -0.1510  0.5378
 4938TIP3    H136305   0.074   2.169  11.024 -2.2470 -0.6911 -1.7281
 4938TIP3    H236306   0.004   2.253  11.129  1.5194 -0.0625  0.5003
 4939TIP3   OH236307   6.583   2.183  15.727  0.5765 -0.1452 -0.5669
 4939TIP3    H136308   6.523   2.149  15.794  0.2186  1.8485  0.2013
 4939TIP3    H236309   6.604   2.107  15.673 -1.2960 -1.2634  0.1702
 4940TIP3   OH236310   2.299   3.552   4.067  0.1453  0.1139 -0.3692
 4940TIP3    H136311   2.227   3.497   4.036  0.5259  0.0087 -1.0879
 4940TIP3    H236312   2.362   3.490   4.104  0.3585  0.1045 -0.7431
 4941TIP3   OH236313   6.461   1.119  15.877  0.4872 -0.7800 -0.4828
 4941TIP3    H136314   6.485   1.191  15.819 -0.4163  0.3420  0.4669
 4941TIP3    H236315   6.543   1.072  15.893  1.5379  1.2137  0.4227
 4942TIP3   OH236316   3.605   0.307   0.339 -0.0364 -0.2364  0.6271
 4942TIP3    H136317   3.643   0.223   0.362 -0.6278 -0.3776  1.1031
 4942TIP3    H236318   3.680   0.365   0.325  0.3942 -1.0516 -0.5333
 4943TIP3   OH236319   2.984   0.113   4.610 -0.0890 -0.0537  0.0643
 4943TIP3    H136320   2.930   0.072   4.677  0.7856 -1.9862 -0.3531
 4943TIP3    H236321   2.955   0.074   4.527  0.0873  0.9305 -0.4876
 4944TIP3   OH236322   5.462   6.404  16.269 -0.3995 -0.3541 -0.0921
 4944TIP3    H136323   5.520   6.457  16.214 -0.8073  1.0566  0.7923
 4944TIP3    H236324   5.375   6.420  16.233 -0.6513  0.4643  0.8395
 4945TIP3   OH236325   4.231   3.605   1.471  0.2851 -0.5393  0.5044
 4945TIP3    H136326   4.188   3.678   1.515  1.1749  0.2538  0.0736
 4945TIP3    H236327   4.316   3.639   1.443  0.3030 -1.4319 -0.6196
 4946TIP3   OH236328   0.982   5.677   4.157  0.2110  0.2001 -0.1479
 4946TIP3    H136329   1.021   5.621   4.091  1.8710  1.5516 -0.3997
 4946TIP3    H236330   0.961   5.619   4.230  1.6300 -0.7725 -0.4903
 4947TIP3   OH236331   2.827   1.708  11.988  0.0754 -0.3236  0.4022
 4947TIP3    H136332   2.905   1.756  12.016 -0.0617 -1.1760  2.3656
 4947TIP3    H236333   2.833   1.624  12.031 -1.1289 -1.0401 -0.7381
 4948TIP3   OH236334   6.168   1.494   2.775  0.0353  0.1042  0.5216
 4948TIP3    H136335   6.217   1.420   2.739  0.3763  0.2074  0.7736
 4948TIP3    H236336   6.209   1.511   2.860 -1.8755 -1.2658  1.7881
 4949TIP3   OH236337   3.946   1.482   1.196 -0.5472 -0.3428  0.2766
 4949TIP3    H136338   3.970   1.472   1.104 -0.7201 -0.1503  0.2097
 4949TIP3    H236339   3.920   1.574   1.203  0.6050 -0.0341  0.7760
 4950TIP3   OH236340   2.550   4.884   4.215  0.0881 -0.2078 -0.3696
 4950TIP3    H136341   2.559   4.974   4.246 -0.7450  0.0924 -0.9435
 4950TIP3    H236342   2.510   4.837   4.289  0.2946 -0.0522 -0.1589
 4951TIP3   OH236343   2.913   1.668  11.169  0.6886  0.8604 -0.1794
 4951TIP3    H136344   2.970   1.599  11.204 -1.6396 -1.4593 -0.6202
 4951TIP3    H236345   2.940   1.677  11.078 -0.6392 -1.5096 -0.9030
 4952TIP3   OH236346   6.775   6.736  11.294  0.4598 -0.4603  0.4548
 4952TIP3    H136347   6.808   6.822  11.269  0.5097 -0.5391  0.2451
 4952TIP3    H236348   6.832   6.674  11.249 -0.1226 -0.5992 -0.1169
 4953TIP3   OH236349   0.273   5.023   2.226 -0.5455 -0.2170 -0.4338
 4953TIP3    H136350   0.231   4.937   2.228 -0.8318 -0.0961 -1.1886
 4953TIP3    H236351   0.353   5.009   2.176  0.3337 -0.4395  0.9625
 4954TIP3   OH236352   3.637   4.375   4.198 -0.5302 -0.0190 -0.0125
 4954TIP3    H136353   3.560   4.386   4.143 -0.3924  1.8480  0.1077
 4954TIP3    H236354   3.685   4.458   4.190  0.2891 -0.2707  1.6988
 4955TIP3   OH236355   2.626   3.446  16.472  0.2243 -0.0323 -0.8579
 4955TIP3    H136356   2.626   3.430  16.378 -1.2032  0.5557 -0.9792
 4955TIP3    H236357   2.706   3.404  16.504  1.4515  0.9295 -2.5204
 4956TIP3   OH236358   5.163   6.273   1.296 -0.6031  0.1323  0.4776
 4956TIP3    H136359   5.110   6.266   1.375 -2.3335 -0.3136 -0.6808
 4956TIP3    H236360   5.230   6.205   1.307 -0.2155  0.6960  1.9502
 4957TIP3   OH236361   1.232   6.411   6.271  0.3964 -0.2820  0.4352
 4957TIP3    H136362   1.193   6.421   6.184  0.2743 -2.2290  0.2198
 4957TIP3    H236363   1.270   6.497   6.291 -2.8573  1.3670  0.1312
 4958TIP3   OH236364   3.252   3.183  11.335  0.1566  0.0638  0.0454
 4958TIP3    H136365   3.157   3.171  11.343  0.0376  0.7055 -0.2859
 4958TIP3    H236366   3.266   3.199  11.241  0.4885  0.7565  0.2067
 4959TIP3   OH236367   5.424   0.965  15.932  1.1431 -0.2807  0.1224
 4959TIP3    H136368   5.441   0.876  15.961  1.3335 -0.1022  0.5799
 4959TIP3    H236369   5.445   1.019  16.008 -0.2252  0.0575  0.2985
 4960TIP3   OH236370   1.987   6.330  12.571  0.4449 -0.6414 -0.1583
 4960TIP3    H136371   2.000   6.315  12.477 -0.5346  0.2037 -0.4369
 4960TIP3    H236372   2.044   6.404  12.591  0.0956 -0.3398 -0.2577
 4961TIP3   OH236373   0.691   3.437   2.732 -0.8013 -0.1483  0.2498
 4961TIP3    H136374   0.623   3.457   2.668 -1.6339 -3.2982  0.0171
 4961TIP3    H236375   0.757   3.506   2.720 -0.8053 -0.6660 -4.1374
 4962TIP3   OH236376   5.180   3.541   6.170 -0.8954 -0.3242  0.1387
 4962TIP3    H136377   5.229   3.558   6.089 -1.3345  1.4541  0.2036
 4962TIP3    H236378   5.166   3.628   6.208 -1.7283 -1.0337  1.5221
 4963TIP3   OH236379   1.414   1.685  11.391 -0.2594  0.0759 -0.3789
 4963TIP3    H136380   1.327   1.717  11.415 -1.0854 -3.0560  1.4105
 4963TIP3    H236381   1.466   1.695  11.471  0.4404  0.1189 -0.8308
 4964TIP3   OH236382   2.390   2.687   1.467  0.5255 -0.8167  0.3894
 4964TIP3    H136383   2.442   2.621   1.511  1.7454  0.3473  0.7659
 4964TIP3    H236384   2.440   2.768   1.478 -1.0366  0.2229  0.1691
 4965TIP3   OH236385   1.967   1.323   0.138  0.7297 -0.2042 -0.4268
 4965TIP3    H136386   1.976   1.229   0.148  1.5747  0.0856  2.4003
 4965TIP3    H236387   1.885   1.344   0.183  2.2377  0.7089  2.0954
 4966TIP3   OH236388   3.510   6.161   5.664 -0.2451 -0.4184 -0.0238
 4966TIP3    H136389   3.530   6.068   5.654 -1.0506 -0.7395  1.1418
 4966TIP3    H236390   3.493   6.172   5.757 -2.8654  0.3374 -0.5089
 4967TIP3   OH236391   3.864   3.927   5.595  0.3722  0.6078 -0.0963
 4967TIP3    H136392   3.933   3.913   5.660  0.6550 -0.2007 -0.5575
 4967TIP3    H236393   3.792   3.966   5.644  0.7490  0.4208  0.6152
 4968TIP3   OH236394   3.909   0.971   0.781  0.4669 -0.2544 -0.0813
 4968TIP3    H136395   3.835   0.919   0.751 -0.7095  1.8262 -1.0268
 4968TIP3    H236396   3.901   0.973   0.876 -0.8533  0.1042 -0.1822
 4969TIP3   OH236397   5.197   4.843  14.158 -0.0593  0.2053 -0.2088
 4969TIP3    H136398   5.156   4.897  14.227  1.0001  0.8794 -0.0859
 4969TIP3    H236399   5.272   4.802  14.202 -1.6647 -2.6320  0.1280
 4970TIP3   OH236400   6.364   3.072  14.983 -0.6035 -0.1533  0.5243
 4970TIP3    H136401   6.283   3.102  14.943 -0.9245 -2.1961 -0.5019
 4970TIP3    H236402   6.342   3.057  15.075 -0.7085  1.5932  0.8040
 4971TIP3   OH236403   2.189   1.587   5.273 -0.5629 -0.6328 -0.3559
 4971TIP3    H136404   2.270   1.542   5.299 -0.2282  0.7924  1.2608
 4971TIP3    H236405   2.218   1.666   5.228 -1.0972 -0.8879 -1.1662
 4972TIP3   OH236406   3.886   3.273  15.286  0.5722  0.7283  0.0615
 4972TIP3    H136407   3.976   3.258  15.256  0.4939  1.4044 -0.5130
 4972TIP3    H236408   3.842   3.315  15.213  0.1088  1.5074  0.7639
 4973TIP3   OH236409   5.141   0.728  16.394 -0.1027 -0.1408  0.0512
 4973TIP3    H136410   5.074   0.669  16.429  0.3378  0.1359  1.4187
 4973TIP3    H236411   5.211   0.669  16.366 -1.2688 -0.5087 -2.3364
 4974TIP3   OH236412   5.223   4.655  12.235  0.1321  0.1002  0.2361
 4974TIP3    H136413   5.185   4.579  12.278 -0.8022  0.5996  0.3258
 4974TIP3    H236414   5.170   4.667  12.157  0.1491  0.7668  0.3200
 4975TIP3   OH236415   3.196   0.926  11.790  1.1225  0.6974  0.4719
 4975TIP3    H136416   3.252   0.995  11.825  2.8481 -0.9793  1.2134
 4975TIP3    H236417   3.109   0.966  11.784  1.6547  2.3779  2.6058
 4976TIP3   OH236418   3.040   0.758  15.793  0.3895 -0.5682  0.0938
 4976TIP3    H136419   3.008   0.669  15.812  0.7284 -0.5088  0.9828
 4976TIP3    H236420   3.024   0.807  15.873  0.0101  0.2473 -0.4610
 4977TIP3   OH236421   2.193   1.083  11.591 -0.1317  0.2776  0.3119
 4977TIP3    H136422   2.271   1.084  11.535 -0.6456  0.5861 -0.4057
 4977TIP3    H236423   2.226   1.054  11.676  0.2447 -2.8963 -0.7699
 4978TIP3   OH236424   1.362   0.363  16.088 -0.7654 -0.2588 -0.0887
 4978TIP3    H136425   1.423   0.429  16.120 -2.5480  0.8661  1.1428
 4978TIP3    H236426   1.282   0.376  16.139 -1.5451 -2.7053 -0.5362
 4979TIP3   OH236427   3.608   6.378   6.391  0.4212  0.1786 -0.2804
 4979TIP3    H136428   3.700   6.406   6.394  0.8299 -1.0841 -0.2081
 4979TIP3    H236429   3.585   6.383   6.298  0.4352  0.8640 -0.2526
 4980TIP3   OH236430   5.410   5.071   3.003  0.2472  0.2548 -0.6171
 4980TIP3    H136431   5.443   4.981   2.997  3.5875  1.3170 -0.2085
 4980TIP3    H236432   5.463   5.112   3.072 -1.4991  2.4492 -0.4472
 4981TIP3   OH236433   6.269   3.377  15.821 -0.0325  0.1012  0.1630
 4981TIP3    H136434   6.346   3.361  15.766  0.9056  1.6203  0.9690
 4981TIP3    H236435   6.304   3.390  15.909 -1.4719 -1.8933  1.0988
 4982TIP3   OH236436   1.322   3.401  16.345 -0.6249  0.4694 -0.0481
 4982TIP3    H136437   1.346   3.333  16.282 -2.4671 -0.5597  0.2654
 4982TIP3    H236438   1.352   3.482  16.305 -0.4545 -0.3006 -1.5873
 4983TIP3   OH236439   4.671   0.433  13.426  0.0958  0.1508 -0.3280
 4983TIP3    H136440   4.641   0.523  13.437  2.9384  1.1284  0.0783
 4983TIP3    H236441   4.651   0.412  13.335 -1.7310  0.6977 -0.0924
 4984TIP3   OH236442   4.051   3.463   3.608  0.0309 -0.0464 -0.4092
 4984TIP3    H136443   4.121   3.429   3.552  0.3656  0.3287 -0.2243
 4984TIP3    H236444   3.985   3.394   3.608  0.3903 -0.3947 -0.6081
 4985TIP3   OH236445   4.667   4.566   4.011  0.6302 -0.3196  0.1408
 4985TIP3    H136446   4.621   4.610   3.940 -0.3413 -0.4062  0.7056
 4985TIP3    H236447   4.745   4.529   3.969 -0.4097 -1.2066 -1.1081
 4986TIP3   OH236448   3.132   4.681  15.498  0.1397 -0.2505  0.0868
 4986TIP3    H136449   3.104   4.626  15.426  0.3388 -0.4163  0.1333
 4986TIP3    H236450   3.072   4.660  15.570 -0.7428  0.7043 -0.3508
 4987TIP3   OH236451   2.151   3.657  13.692  0.0492 -0.0134  0.2291
 4987TIP3    H136452   2.166   3.643  13.599  0.3061 -0.2904  0.3094
 4987TIP3    H236453   2.064   3.621  13.709 -0.0636  0.1854  0.0622
 4988TIP3   OH236454   0.552   1.300  16.144 -0.0720 -0.3072  0.2550
 4988TIP3    H136455   0.604   1.238  16.094 -0.1674 -1.1367  1.1498
 4988TIP3    H236456   0.546   1.377  16.089  2.2720 -0.1021  0.2116
 4989TIP3   OH236457   4.554   3.698   3.620  0.4199 -0.1374  0.6047
 4989TIP3    H136458   4.524   3.758   3.552 -0.7113  1.0335  2.0786
 4989TIP3    H236459   4.648   3.716   3.627  1.0996 -1.9462 -2.1931
 4990TIP3   OH236460   5.771   2.203   4.211  0.2930 -0.6586  0.4177
 4990TIP3    H136461   5.814   2.166   4.134 -1.1076 -1.7327  0.1105
 4990TIP3    H236462   5.838   2.258   4.251  1.5673 -1.3415 -0.6720
 4991TIP3   OH236463   1.252   4.392   0.837 -0.0556  0.1114  0.5389
 4991TIP3    H136464   1.162   4.423   0.840  0.6274  2.2586  0.1348
 4991TIP3    H236465   1.294   4.444   0.768  1.7299 -0.1726  1.3433
 4992TIP3   OH236466   2.340   4.750   0.478  0.3548 -0.7611  0.4086
 4992TIP3    H136467   2.393   4.673   0.500 -0.8495 -1.2732  1.6300
 4992TIP3    H236468   2.251   4.717   0.467 -0.1323  0.4002  0.6593
 4993TIP3   OH236469   0.851   4.337   4.504 -0.5817 -0.2422  0.4246
 4993TIP3    H136470   0.757   4.350   4.512 -0.6002 -0.3701  0.4214
 4993TIP3    H236471   0.890   4.404   4.561 -0.6567  0.2157 -0.0560
 4994TIP3   OH236472   2.561   0.944   2.611  0.2624  0.1894 -0.2019
 4994TIP3    H136473   2.538   1.015   2.672 -0.5571  0.1487 -0.4487
 4994TIP3    H236474   2.490   0.881   2.621  0.1997  0.1068 -1.0834
 4995TIP3   OH236475   6.780   4.432   4.415 -0.2430  0.0844 -0.3896
 4995TIP3    H136476   6.785   4.524   4.442  0.8662 -0.2667  0.6826
 4995TIP3    H236477   6.816   4.383   4.489 -1.7354 -1.3105 -0.5307
 4996TIP3   OH236478   5.672   1.677  13.943  0.6445  0.0182 -0.6838
 4996TIP3    H136479   5.677   1.691  13.848  0.1537  0.1744 -0.6911
 4996TIP3    H236480   5.646   1.762  13.978 -1.0627 -0.4887 -0.5993
 4997TIP3   OH236481   3.363   1.108   5.571  0.2270  0.1650 -0.1167
 4997TIP3    H136482   3.285   1.162   5.585  0.4129  0.8812 -1.6664
 4997TIP3    H236483   3.331   1.032   5.521  0.1890 -0.5550  0.9754
 4998TIP3   OH236484   6.578   2.052   1.056  0.0275 -0.5624 -0.0975
 4998TIP3    H136485   6.619   2.090   0.978  1.2825 -1.2629  0.2072
 4998TIP3    H236486   6.501   2.107   1.071 -0.9113 -1.0511 -2.4850
 4999TIP3   OH236487   0.399   2.765   5.440 -0.5924  0.2402  0.4504
 4999TIP3    H136488   0.389   2.836   5.503 -1.2709  0.2964  0.2887
 4999TIP3    H236489   0.441   2.805   5.365  1.1140 -0.0358  1.2192
 5000TIP3   OH236490   0.285   3.573   4.501  0.0991  0.1393 -0.2317
 5000TIP3    H136491   0.191   3.582   4.487 -0.1798  0.0961  1.4128
 5000TIP3    H236492   0.293   3.517   4.579  1.5078 -0.5658 -0.8447
 5001TIP3   OH236493   4.644   5.122   4.492  0.0397  0.4796 -0.4279
 5001TIP3    H136494   4.654   5.028   4.478 -2.7601 -0.1264  0.7028
 5001TIP3    H236495   4.652   5.132   4.587 -3.7758  0.5231  0.0823
 5002TIP3   OH236496   3.580   4.287   5.619  0.0560 -0.2654 -0.2988
 5002TIP3    H136497   3.488   4.293   5.645  0.4583 -0.5426  1.2811
 5002TIP3    H236498   3.627   4.339   5.684  1.1104 -0.8132 -0.5991
 5003TIP3   OH236499   2.020   6.490   1.633  0.0014  0.2508  0.0493
 5003TIP3    H136500   2.088   6.556   1.620 -0.6575  0.9951  0.3322
 5003TIP3    H236501   2.046   6.444   1.713 -0.2540  1.0865  0.6245
 5004TIP3   OH236502   4.368   1.575  16.078  0.0275  0.0330  0.1444
 5004TIP3    H136503   4.461   1.554  16.072  0.4586  1.4150  1.5156
 5004TIP3    H236504   4.341   1.539  16.162 -0.8645 -0.9344 -0.5304
 5005TIP3   OH236505   3.091   3.970  11.483 -0.1788  0.2781 -0.4615
 5005TIP3    H136506   3.075   3.878  11.462  0.7578  0.5569 -2.6642
 5005TIP3    H236507   3.185   3.975  11.495 -0.1906  0.9850 -0.6373
 5006TIP3   OH236508   5.060   6.078  15.025 -0.3657 -0.2209 -0.3850
 5006TIP3    H136509   5.025   6.143  14.963 -0.8391 -0.8614 -0.8001
 5006TIP3    H236510   4.984   6.052  15.077 -0.1984 -0.5179 -0.2885
 5007TIP3   OH236511   1.591   2.413   3.968 -0.1079  0.2686 -0.4280
 5007TIP3    H136512   1.639   2.393   4.049  2.3678  0.9039 -1.6232
 5007TIP3    H236513   1.628   2.352   3.903 -1.3727  0.3896 -1.2888
 5008TIP3   OH236514   1.107   2.789  11.554 -0.6634 -0.2864  0.3319
 5008TIP3    H136515   1.103   2.875  11.597  0.9913 -0.2331  0.4512
 5008TIP3    H236516   1.051   2.799  11.477 -1.6292  0.4351  1.0982
 5009TIP3   OH236517   5.701   0.046   0.587 -0.6104  0.1115  0.3525
 5009TIP3    H136518   5.709  -0.027   0.648 -4.3707 -1.7966 -1.1453
 5009TIP3    H236519   5.658   0.115   0.638 -1.6455 -0.6307  0.5229
 5010TIP3   OH236520   0.102   0.122  15.854  0.0077 -0.7715  0.1398
 5010TIP3    H136521   0.046   0.091  15.783 -0.2654  0.1055 -0.0367
 5010TIP3    H236522   0.042   0.131  15.929 -0.2787  0.8679 -0.2379
 5011TIP3   OH236523   5.885   2.179   2.722  0.1990  0.3449  0.1017
 5011TIP3    H136524   5.856   2.157   2.634 -0.0773  0.5172  0.1494
 5011TIP3    H236525   5.810   2.222   2.763 -0.3009 -1.3611  1.0463
 5012TIP3   OH236526   6.283   1.804   3.223  0.1215 -0.3278  0.2064
 5012TIP3    H136527   6.214   1.750   3.261  1.6069 -1.5933  1.2374
 5012TIP3    H236528   6.243   1.891   3.212 -2.3687 -1.5872 -1.5902
 5013TIP3   OH236529   4.747   2.637   0.513 -0.4123  0.0352  0.0085
 5013TIP3    H136530   4.823   2.614   0.567 -2.0375 -2.0768  1.5530
 5013TIP3    H236531   4.732   2.560   0.459 -0.8249  0.8578 -1.0750
 5014TIP3   OH236532   0.310   5.058   6.390  0.3641  0.2964  0.5870
 5014TIP3    H136533   0.267   5.097   6.466 -0.3200 -0.1465  0.4362
 5014TIP3    H236534   0.257   5.087   6.315  1.0941  0.8196  0.2626
 5015TIP3   OH236535   0.953   6.346   3.799  0.5798  0.2222 -0.0355
 5015TIP3    H136536   0.898   6.282   3.754 -0.4402  1.1596 -0.1566
 5015TIP3    H236537   0.948   6.321   3.891  1.9435 -1.1509 -0.2717
 5016TIP3   OH236538   2.513   3.361   4.095  0.6318 -0.4449 -0.2207
 5016TIP3    H136539   2.540   3.398   4.179 -0.3779 -0.0799 -0.0339
 5016TIP3    H236540   2.461   3.284   4.119  0.7042 -0.5894 -0.5311
 5017TIP3   OH236541   3.744   1.962   5.621  0.1555 -0.1091  0.3121
 5017TIP3    H136542   3.739   1.867   5.631  0.8399 -0.2512 -0.5816
 5017TIP3    H236543   3.728   1.996   5.709 -1.4352 -0.9944  0.4080
 5018TIP3   OH236544   0.276   1.074  12.160  0.0951 -0.5894  0.2182
 5018TIP3    H136545   0.254   1.098  12.070  0.5632 -2.6024 -0.4863
 5018TIP3    H236546   0.353   1.128  12.181 -2.3303  2.8992  0.9724
 5019TIP3   OH236547   2.496   6.259   6.192 -0.2124 -0.4705  0.0692
 5019TIP3    H136548   2.513   6.328   6.256  1.4123 -1.0472  0.3282
 5019TIP3    H236549   2.583   6.235   6.159 -0.9783 -0.3410 -2.2238
 5020TIP3   OH236550   6.092   2.111  15.112  0.1449  0.1517  0.5042
 5020TIP3    H136551   6.039   2.104  15.192 -0.7028  2.1010  0.1664
 5020TIP3    H236552   6.042   2.169  15.055  1.2936 -0.2799 -1.0035
 5021TIP3   OH236553   6.177   4.176   4.666  0.7872  0.0447 -0.1649
 5021TIP3    H136554   6.171   4.172   4.762  1.2079 -0.8144 -0.1660
 5021TIP3    H236555   6.107   4.118   4.636 -0.2808  1.4278 -0.4124
 5022TIP3   OH236556   2.193   1.343  12.576  0.4026  0.1741 -0.4836
 5022TIP3    H136557   2.245   1.356  12.497  0.7155 -0.4579 -0.3877
 5022TIP3    H236558   2.247   1.379  12.647 -0.3632  1.7894 -0.6806
 5023TIP3   OH236559   2.789   2.136  14.915  0.5322  0.5141  0.3332
 5023TIP3    H136560   2.817   2.158  15.004 -0.7110  0.7079  0.6941
 5023TIP3    H236561   2.703   2.176  14.907  0.2432 -0.2795 -0.6444
 5024TIP3   OH236562   4.722   4.354  10.491  0.2154 -0.1183  0.0690
 5024TIP3    H136563   4.804   4.313  10.518 -0.1250 -0.1896  1.0456
 5024TIP3    H236564   4.655   4.289  10.514 -0.2136  0.4426  0.4252
 5025TIP3   OH236565   1.575   5.426  10.938  0.4580 -0.3744  0.4975
 5025TIP3    H136566   1.500   5.399  10.885  2.2014 -0.9980 -1.7712
 5025TIP3    H236567   1.576   5.365  11.012 -0.7043 -0.9544  0.0541
 5026TIP3   OH236568   4.327   1.341   0.401  0.2215  0.5438  0.2771
 5026TIP3    H136569   4.390   1.313   0.468  1.3763 -1.2566 -1.4434
 5026TIP3    H236570   4.275   1.262   0.382 -1.6945  1.6417  0.6797
 5027TIP3   OH236571   6.393   4.637  13.275  0.0473  0.4426 -0.4474
 5027TIP3    H136572   6.400   4.683  13.358  0.1270  0.9850 -0.7437
 5027TIP3    H236573   6.434   4.552  13.290  0.1124  0.5599  0.0473
 5028TIP3   OH236574   5.781   3.777   3.667  0.4606  0.7738 -0.3705
 5028TIP3    H136575   5.722   3.741   3.601  0.7968 -1.0400  0.2814
 5028TIP3    H236576   5.868   3.771   3.628  0.4979  1.1196 -0.3466
 5029TIP3   OH236577   0.286   6.267   0.544  0.1277 -0.3563  0.1588
 5029TIP3    H136578   0.230   6.191   0.531  2.3802 -2.2451  0.7421
 5029TIP3    H236579   0.232   6.330   0.590 -1.7294 -1.7300 -0.0400
 5030TIP3   OH236580   4.403   0.750   2.011 -0.5677  0.2312 -0.2659
 5030TIP3    H136581   4.307   0.751   2.009 -0.6334 -1.2965  0.7067
 5030TIP3    H236582   4.428   0.676   1.955 -0.2461 -2.9311  3.6583
 5031TIP3   OH236583   3.366   2.733  14.199  0.1023  0.3767 -0.3261
 5031TIP3    H136584   3.388   2.680  14.275  1.0804 -0.1930 -0.9797
 5031TIP3    H236585   3.312   2.804  14.233 -1.7483 -1.3250  0.5135
 5032TIP3   OH236586   2.143   6.418  14.084  0.3901 -0.0598 -0.5262
 5032TIP3    H136587   2.095   6.500  14.072  0.5426  0.0987 -0.0746
 5032TIP3    H236588   2.077   6.349  14.075  0.5814 -0.0188 -2.9547
 5033TIP3   OH236589   6.622   5.956  11.785 -0.0450  0.9713 -0.3476
 5033TIP3    H136590   6.538   5.947  11.829  0.2976  1.7432  0.5252
 5033TIP3    H236591   6.666   5.872  11.798 -1.0007  0.2579 -1.5671
 5034TIP3   OH236592   0.446   0.016  11.106  0.1209  0.0019  0.0175
 5034TIP3    H136593   0.382   0.013  11.178 -1.5613 -0.2457 -1.4248
 5034TIP3    H236594   0.478  -0.074  11.100 -1.0667 -0.3934 -0.6625
 5035TIP3   OH236595   1.101   5.547  10.551 -0.0815 -0.1101 -0.3917
 5035TIP3    H136596   1.093   5.478  10.617  3.9444 -0.1048  0.3206
 5035TIP3    H236597   1.150   5.617  10.594 -2.1572  2.4059 -1.7721
 5036TIP3   OH236598   6.250   0.388  16.762  0.2962 -0.2857 -0.6166
 5036TIP3    H136599   6.219   0.300  16.780 -0.7375  0.0754 -0.5608
 5036TIP3    H236600   6.213   0.442  16.831  1.7598  0.0473 -0.0539
 5037TIP3   OH236601   2.026   5.562  11.334  0.0138 -0.2252 -0.1763
 5037TIP3    H136602   2.109   5.528  11.303 -0.3886 -1.4194 -0.0000
 5037TIP3    H236603   2.007   5.636  11.276  0.5765 -0.7352 -1.0406
 5038TIP3   OH236604   2.468   5.794   2.397 -0.3524  0.1796 -0.6372
 5038TIP3    H136605   2.555   5.778   2.435 -1.2528 -0.0430  1.5208
 5038TIP3    H236606   2.482   5.862   2.332  1.0990  2.1727  1.5631
 5039TIP3   OH236607   3.880   1.029   4.738  0.5854 -0.0745  0.2377
 5039TIP3    H136608   3.887   1.069   4.651  1.6475 -0.0040  0.3393
 5039TIP3    H236609   3.883   1.103   4.799  0.3187 -0.1569  0.3533
 5040TIP3   OH236610   4.599   4.591   3.251  0.8257 -0.7082  0.0689
 5040TIP3    H136611   4.678   4.599   3.198 -0.0022 -0.8425 -1.2272
 5040TIP3    H236612   4.609   4.507   3.296  1.4650 -0.6682  0.0059
 5041TIP3   OH236613   6.748   3.911  15.088 -0.1351  0.5821 -0.0325
 5041TIP3    H136614   6.802   3.888  15.164  0.7789  0.3057 -0.7359
 5041TIP3    H236615   6.809   3.953  15.027 -0.5513 -0.3581 -1.1393
 5042TIP3   OH236616   0.935   0.808  15.668  0.2777 -0.4586 -0.4388
 5042TIP3    H136617   0.974   0.881  15.716 -0.2845 -0.4143 -0.0488
 5042TIP3    H236618   0.919   0.741  15.735 -0.0646 -0.5809 -0.6428
 5043TIP3   OH236619   5.678   3.384   6.783  0.3291  0.0957  0.1589
 5043TIP3    H136620   5.726   3.317   6.831 -2.0429 -0.4216  1.9862
 5043TIP3    H236621   5.684   3.357   6.692  1.5367 -1.1880  0.5783
 5044TIP3   OH236622   2.106   0.975   3.629  0.2450  0.5832  0.4188
 5044TIP3    H136623   2.197   0.963   3.605  0.2608  1.5883 -0.1244
 5044TIP3    H236624   2.085   1.063   3.597 -1.3435 -0.2079 -0.8518
 5045TIP3   OH236625   5.099   4.413   3.204  0.0405  0.1842 -0.3257
 5045TIP3    H136626   5.126   4.394   3.294  1.0802  1.3260 -0.3760
 5045TIP3    H236627   5.116   4.506   3.193  0.0991  0.0277 -1.7700
 5046TIP3   OH236628   0.198   3.787   6.095 -0.1182 -0.1179 -0.1991
 5046TIP3    H136629   0.211   3.729   6.169 -0.6474 -1.9678 -1.4709
 5046TIP3    H236630   0.253   3.751   6.026  0.9088  1.9740 -0.5309
 5047TIP3   OH236631   2.833   0.720  16.453 -0.0583  0.0454  0.0259
 5047TIP3    H136632   2.829   0.814  16.473 -1.9752  0.1190 -0.4900
 5047TIP3    H236633   2.853   0.717  16.359 -2.5219  0.0804 -0.5757
 5048TIP3   OH236634   0.104   3.752   4.679 -0.6086 -0.2026 -0.5801
 5048TIP3    H136635   0.149   3.690   4.737 -0.7607  1.8956  1.9801
 5048TIP3    H236636   0.014   3.754   4.712 -0.3895  2.0008  0.0516
 5049TIP3   OH236637   5.405   4.863  16.183  0.4336 -0.2208  0.2798
 5049TIP3    H136638   5.465   4.840  16.112  0.0153  0.3220 -0.2551
 5049TIP3    H236639   5.461   4.870  16.260  0.8703 -0.9662  0.0414
 5050TIP3   OH236640   2.604   6.632   4.777 -0.0037  0.5107 -0.1932
 5050TIP3    H136641   2.624   6.543   4.808  0.3540  0.7936  0.3882
 5050TIP3    H236642   2.574   6.619   4.687 -1.3102 -0.3410  0.3428
 5051TIP3   OH236643   2.080   2.787   4.500  0.5583 -0.3872 -0.8530
 5051TIP3    H136644   2.010   2.812   4.559 -0.2803 -1.3199 -1.4307
 5051TIP3    H236645   2.160   2.800   4.551 -0.0882 -0.3376  0.1803
 5052TIP3   OH236646   0.430   1.335  11.313 -0.0042 -0.6142 -0.8145
 5052TIP3    H136647   0.516   1.362  11.283  0.2826 -1.4581 -0.7651
 5052TIP3    H236648   0.373   1.347  11.237  0.3069 -0.7707 -1.0709
 5053TIP3   OH236649   4.473   1.447  14.121  0.6900 -0.6128  0.0828
 5053TIP3    H136650   4.486   1.531  14.165 -0.7940  0.2839 -1.1082
 5053TIP3    H236651   4.403   1.405  14.171  1.6351 -1.3055  0.8591
 5054TIP3   OH236652   0.729   0.860  12.473  0.1301 -0.1848 -0.0205
 5054TIP3    H136653   0.786   0.915  12.419 -0.8890 -1.8865 -3.0791
 5054TIP3    H236654   0.642   0.869  12.434 -0.9552 -0.6701  2.1100
 5055TIP3   OH236655   4.794   6.315   1.622 -0.1634 -0.4130 -0.2856
 5055TIP3    H136656   4.763   6.296   1.533 -0.4986  0.1404 -0.2958
 5055TIP3    H236657   4.887   6.293   1.621 -0.4115 -1.4842 -0.4507
 5056TIP3   OH236658   4.395   0.585  14.964 -0.3347  0.1091  0.2691
 5056TIP3    H136659   4.345   0.506  14.942 -0.3992 -0.1873  1.4079
 5056TIP3    H236660   4.455   0.596  14.890 -3.3140  1.6052 -2.1197
 5057TIP3   OH236661   5.112   4.489  11.331  0.0239  0.4878 -0.0976
 5057TIP3    H136662   5.130   4.505  11.423  0.5312  0.7500 -0.2390
 5057TIP3    H236663   5.107   4.576  11.292 -0.2235  0.3799 -0.3117
 5058TIP3   OH236664   6.103   5.585   1.238 -0.5393  0.5518 -0.2897
 5058TIP3    H136665   6.082   5.599   1.146 -0.5728 -1.1240 -0.5658
 5058TIP3    H236666   6.030   5.532   1.272  0.6264 -0.9168  0.0457
 5059TIP3   OH236667   2.514   4.986  16.661 -0.3655 -0.3874 -0.1920
 5059TIP3    H136668   2.430   4.991  16.706  0.0657  0.0153  0.5895
 5059TIP3    H236669   2.549   4.900  16.685  0.3172  0.2223  1.1010
 5060TIP3   OH236670   6.218   3.262   2.370  0.3097 -0.1425  0.0096
 5060TIP3    H136671   6.200   3.211   2.450 -0.1548  0.2596  0.1662
 5060TIP3    H236672   6.220   3.353   2.400 -0.6562  0.0793 -0.5569
 5061TIP3   OH236673   6.355   6.014   5.441  0.1320 -0.5634 -0.2978
 5061TIP3    H136674   6.282   5.985   5.496 -0.2619  0.0675 -0.4729
 5061TIP3    H236675   6.378   6.101   5.476  1.1980 -1.0063  0.1360
 5062TIP3   OH236676   6.050   5.999  15.686 -0.0820  0.0163 -0.0002
 5062TIP3    H136677   5.991   5.927  15.665  1.5918 -1.1374 -1.0013
 5062TIP3    H236678   6.110   6.003  15.612 -0.0380  2.4035  0.0827
 5063TIP3   OH236679   3.423   2.921   5.121 -0.2424 -0.6664 -0.3426
 5063TIP3    H136680   3.342   2.905   5.074 -0.2674  0.4066 -0.6851
 5063TIP3    H236681   3.398   2.976   5.196  0.5505  2.5643 -2.2484
 5064TIP3   OH236682   5.199   0.596  14.175 -0.2211  0.5250  0.3871
 5064TIP3    H136683   5.161   0.571  14.091  0.3254  0.7487  0.0738
 5064TIP3    H236684   5.282   0.548  14.179 -0.2109  0.5691  0.7703
 5065TIP3   OH236685   2.442   3.934  12.146 -0.3493 -0.3428  0.2458
 5065TIP3    H136686   2.460   4.022  12.114  2.5137 -0.4807  1.2611
 5065TIP3    H236687   2.470   3.876  12.075 -0.5226 -0.4915  0.2967
 5066TIP3   OH236688   4.554   5.695  14.699 -0.0187 -0.0398  0.0673
 5066TIP3    H136689   4.601   5.664  14.622 -0.4358 -0.1312 -0.1505
 5066TIP3    H236690   4.618   5.750  14.745  0.2384 -0.0039 -0.3293
 5067TIP3   OH236691   5.061   4.833   2.983  0.2118 -0.5491 -0.1612
 5067TIP3    H136692   5.025   4.921   2.995 -0.5498 -0.9551  0.5537
 5067TIP3    H236693   5.056   4.792   3.069 -0.9361 -1.8532 -0.8123
 5068TIP3   OH236694   3.736   6.245  15.610 -0.0007 -0.2104  0.8942
 5068TIP3    H136695   3.778   6.304  15.673  1.5940 -1.1555  0.7870
 5068TIP3    H236696   3.684   6.185  15.663 -1.4857  1.1219  1.0169
 5069TIP3   OH236697   6.276   0.480   3.295 -0.1484 -0.5247 -0.2959
 5069TIP3    H136698   6.303   0.571   3.285  0.5445 -0.6003  0.7847
 5069TIP3    H236699   6.268   0.448   3.205 -2.0710  1.0469 -0.7695
 5070TIP3   OH236700   4.280   1.692  14.122 -0.0966  0.2352 -0.2415
 5070TIP3    H136701   4.368   1.667  14.149 -0.1100  0.7992  0.3654
 5070TIP3    H236702   4.232   1.610  14.117  0.9887 -0.3443 -2.7259
 5071TIP3   OH236703   3.884   5.251  14.485 -0.1678 -0.0178  0.1730
 5071TIP3    H136704   3.979   5.262  14.489 -0.0905 -0.5447 -0.1071
 5071TIP3    H236705   3.871   5.157  14.476 -0.6496  0.1669 -1.4666
 5072TIP3   OH236706   3.824   5.476  10.596 -0.4585 -0.3091 -0.3792
 5072TIP3    H136707   3.910   5.476  10.555 -0.2088 -0.6676  0.1282
 5072TIP3    H236708   3.823   5.395  10.648 -0.5517  0.3989  0.7472
 5073TIP3   OH236709   4.079   5.605   4.790 -0.1308  0.8583  0.6976
 5073TIP3    H136710   4.012   5.657   4.744 -0.0521 -0.1224 -0.5729
 5073TIP3    H236711   4.155   5.662   4.792 -0.6164  1.5145  1.0449
 5074TIP3   OH236712   4.323   3.302  17.007  0.4240  0.2207 -0.2215
 5074TIP3    H136713   4.295   3.267  16.923  0.0661  0.6918 -0.3020
 5074TIP3    H236714   4.408   3.343  16.990  0.7091 -0.3574 -0.1853
 5075TIP3   OH236715   3.242   5.251  12.306  0.3665  0.0295 -0.0767
 5075TIP3    H136716   3.199   5.210  12.232  0.1083  0.6187 -0.2519
 5075TIP3    H236717   3.307   5.186  12.334 -0.5737 -0.8500  0.1604
 5076TIP3   OH236718   3.268   2.358  14.525 -0.1539  0.1340  0.0867
 5076TIP3    H136719   3.243   2.363  14.617 -0.5584  0.8766 -0.0544
 5076TIP3    H236720   3.336   2.290  14.522  1.2213  1.3848  1.2462
 5077TIP3   OH236721   2.766   0.475  14.175  0.3581  0.6189 -0.1029
 5077TIP3    H136722   2.841   0.533  14.158  1.2121 -0.3216  0.3981
 5077TIP3    H236723   2.693   0.536  14.189  0.0189  1.5793 -4.5772
 5078TIP3   OH236724   1.331   1.180   0.576  0.8282 -0.2722  0.3057
 5078TIP3    H136725   1.338   1.089   0.545  0.6778  0.1848 -1.1429
 5078TIP3    H236726   1.332   1.232   0.496 -2.4255  0.8421  0.8216
 5079TIP3   OH236727   5.385   5.048   4.548  0.7383  0.3788 -0.1054
 5079TIP3    H136728   5.393   4.955   4.569 -0.4787 -0.4696 -2.9197
 5079TIP3    H236729   5.370   5.090   4.632 -0.9648 -2.2846  1.0623
 5080TIP3   OH236730   1.658   6.355  13.330  0.0040 -0.3124 -0.4942
 5080TIP3    H136731   1.659   6.422  13.263  1.6966 -0.7179 -0.9154
 5080TIP3    H236732   1.593   6.385  13.394 -0.9497  0.5335 -1.8237
 5081TIP3   OH236733   1.857   2.734  11.291 -0.5112 -0.0511 -0.0985
 5081TIP3    H136734   1.882   2.806  11.234  2.9597  0.5525  1.8908
 5081TIP3    H236735   1.878   2.655  11.241  3.2974  0.4653  0.3965
 5082TIP3   OH236736   6.684   5.433  14.472 -0.2239 -0.6857 -0.5498
 5082TIP3    H136737   6.631   5.507  14.444 -1.3051 -0.7360  1.2104
 5082TIP3    H236738   6.725   5.461  14.554 -0.0364 -1.7335 -0.2613
 5083TIP3   OH236739   4.499   5.621   0.492  0.1087 -0.0345  0.2874
 5083TIP3    H136740   4.594   5.623   0.502  0.3539  1.0375 -1.7612
 5083TIP3    H236741   4.470   5.553   0.552  2.2006 -0.6422  0.6829
 5084TIP3   OH236742   2.431   4.598  14.162  0.0749  0.2501 -0.6323
 5084TIP3    H136743   2.439   4.687  14.195  0.9912  0.0029 -0.1380
 5084TIP3    H236744   2.338   4.577  14.172  0.1136  0.6063  0.7213
 5085TIP3   OH236745   0.482   4.708   5.402  0.0675 -0.8773  0.0823
 5085TIP3    H136746   0.570   4.727   5.434 -0.3996  0.6352  0.5511
 5085TIP3    H236747   0.448   4.642   5.462  0.5603 -0.8168  0.4272
 5086TIP3   OH236748   5.148   3.916   2.436  0.3551  0.0837  0.1283
 5086TIP3    H136749   5.151   3.824   2.411 -2.7717 -0.4149  1.1555
 5086TIP3    H236750   5.146   3.915   2.531 -0.1604  1.1774  0.1400
 5087TIP3   OH236751   6.084   0.902  12.937  0.4265  0.0679  0.3050
 5087TIP3    H136752   5.990   0.888  12.943  0.3394  0.6902  0.4626
 5087TIP3    H236753   6.118   0.877  13.023  0.4969 -0.7940  0.0339
 5088TIP3   OH236754   0.915   3.513  14.862 -0.5242 -0.3409 -0.2904
 5088TIP3    H136755   0.975   3.502  14.788 -0.7812 -0.9955 -0.4106
 5088TIP3    H236756   0.828   3.510  14.823 -0.6605 -0.6958  0.0380
 5089TIP3   OH236757   6.362   1.569  12.506 -0.0724 -0.7103 -0.3509
 5089TIP3    H136758   6.271   1.577  12.532 -0.4886 -0.5857 -1.7698
 5089TIP3    H236759   6.360   1.523  12.422  0.8734  2.0936 -2.0498
 5090TIP3   OH236760   2.335   5.787  16.927 -0.4552  0.2719  0.5244
 5090TIP3    H136761   2.281   5.719  16.888 -0.3269  1.0301 -1.0317
 5090TIP3    H236762   2.407   5.740  16.968 -1.0006 -0.5900  0.5117
 5091TIP3   OH236763   5.083   6.049   6.267  0.1580  0.2318 -0.4548
 5091TIP3    H136764   5.007   6.107   6.256 -1.5126 -1.5857  0.6487
 5091TIP3    H236765   5.058   5.991   6.339  3.2915  0.5313  1.0352
 5092TIP3   OH236766   2.643   0.512   5.273  0.3422  0.5117  0.8221
 5092TIP3    H136767   2.701   0.568   5.221 -0.0846  0.2703  0.0662
 5092TIP3    H236768   2.566   0.498   5.217  0.0873 -0.1588  1.3213
 5093TIP3   OH236769   1.896   2.849  14.995 -0.3214 -0.2642 -0.0242
 5093TIP3    H136770   1.884   2.871  14.903  0.5852  1.9518  0.3318
 5093TIP3    H236771   1.972   2.791  14.996  1.9359  2.5068 -0.4512
 5094TIP3   OH236772   2.441   3.798   0.359 -0.4230 -0.1024  0.2452
 5094TIP3    H136773   2.381   3.738   0.316  0.6874 -0.3739 -0.9701
 5094TIP3    H236774   2.514   3.743   0.388  0.6659  0.6128 -0.9914
 5095TIP3   OH236775   4.237   6.646   5.603  0.7342  0.3719 -0.0051
 5095TIP3    H136776   4.159   6.628   5.551  0.1844  0.8926  0.6213
 5095TIP3    H236777   4.260   6.736   5.581  0.5527  0.5623  0.5832
 5096TIP3   OH236778   2.790   1.713  17.107 -0.4779 -0.0276 -0.2496
 5096TIP3    H136779   2.760   1.696  17.196  1.7964 -2.8225  0.1288
 5096TIP3    H236780   2.838   1.796  17.113 -0.3807 -0.1613  1.1194
 5097TIP3   OH236781   6.051   0.656   4.289  0.5085 -0.2718  0.5416
 5097TIP3    H136782   6.045   0.625   4.380  3.2365 -0.6676  0.6459
 5097TIP3    H236783   6.059   0.576   4.237  1.0132  0.0219  0.1641
 5098TIP3   OH236784   5.538   0.374   3.097  0.3190 -0.2224  0.3858
 5098TIP3    H136785   5.603   0.308   3.121 -0.4344 -1.7332 -1.4883
 5098TIP3    H236786   5.568   0.454   3.141  1.7419 -1.5704  2.0241
 5099TIP3   OH236787   2.264   6.034  11.972  0.0451  0.0227 -0.3836
 5099TIP3    H136788   2.253   5.951  12.018 -0.3408 -0.5294 -1.4490
 5099TIP3    H236789   2.328   6.015  11.903 -0.5287  0.4365 -1.0432
 5100TIP3   OH236790   3.593   3.754   5.956 -0.3440  0.2232 -0.0514
 5100TIP3    H136791   3.567   3.767   5.865 -0.7786  1.4410  0.2258
 5100TIP3    H236792   3.599   3.659   5.967 -0.4260  0.0669 -1.3025
 5101TIP3   OH236793   6.315   3.538  14.415 -0.2475  0.0790  0.1132
 5101TIP3    H136794   6.250   3.469  14.401  0.5854 -0.8111  0.5174
 5101TIP3    H236795   6.331   3.537  14.509  1.1748 -0.4902 -0.1199
 5102TIP3   OH236796   2.709   1.804   3.272 -0.4777 -0.2076 -0.2911
 5102TIP3    H136797   2.692   1.711   3.256  1.3123 -1.3379  3.3693
 5102TIP3    H236798   2.636   1.834   3.325  0.1149 -0.2310  0.5626
 5103TIP3   OH236799   3.328   2.011   1.607  0.5331  0.1594 -0.1146
 5103TIP3    H136800   3.238   1.998   1.637 -0.0187  1.9958 -0.8507
 5103TIP3    H236801   3.367   1.923   1.609 -0.9556 -0.5192  1.1527
 5104TIP3   OH236802   1.697   3.909   0.326 -0.2337  0.2143  0.1067
 5104TIP3    H136803   1.655   3.844   0.381  0.3913  0.3621  0.7759
 5104TIP3    H236804   1.691   3.991   0.376  0.3486  0.3481 -0.0293
 5105TIP3   OH236805   0.715   3.116   2.208  0.2181  0.6415  0.5626
 5105TIP3    H136806   0.718   3.120   2.113  0.0662  0.4595  0.5491
 5105TIP3    H236807   0.641   3.171   2.232  0.4744  0.9725  0.5968
 5106TIP3   OH236808   6.669   2.925   3.495  0.0184 -0.5891  0.2900
 5106TIP3    H136809   6.682   2.971   3.412  0.7999 -0.6903  0.3490
 5106TIP3    H236810   6.691   2.990   3.562 -0.9764 -0.3900  0.4382
 5107TIP3   OH236811   1.111   3.347  16.762 -0.7282  0.4190 -0.2915
 5107TIP3    H136812   1.152   3.373  16.845  1.5601  3.4069 -2.1505
 5107TIP3    H236813   1.028   3.394  16.761  0.2621  2.2352 -0.6003
 5108TIP3   OH236814   5.913   6.183   3.661 -0.5442  0.0908 -0.1381
 5108TIP3    H136815   5.950   6.184   3.573 -0.0312 -0.5472  0.0564
 5108TIP3    H236816   5.964   6.249   3.709 -0.8770  0.4931 -0.3422
 5109TIP3   OH236817   1.439   2.649  16.684 -0.5400 -0.2202  0.7128
 5109TIP3    H136818   1.437   2.688  16.596  1.1335  0.0425  0.7576
 5109TIP3    H236819   1.427   2.723  16.743 -0.0517 -0.1507  0.7313
 5110TIP3   OH236820   3.595   0.182   5.958  0.8443 -0.0631  0.9536
 5110TIP3    H136821   3.585   0.277   5.949  1.1460 -0.1204 -0.1216
 5110TIP3    H236822   3.688   0.170   5.979  0.7861 -0.1131  1.1801
 5111TIP3   OH236823   3.730   0.695  13.673 -0.1621 -0.1424  0.5087
 5111TIP3    H136824   3.724   0.689  13.578  1.1975 -0.2412  0.4194
 5111TIP3    H236825   3.639   0.709  13.702 -0.6095 -0.3043 -0.7755
 5112TIP3   OH236826   2.085   2.166   3.899 -0.5083  0.5785  0.3001
 5112TIP3    H136827   2.092   2.261   3.889 -1.8773  0.5434 -1.3676
 5112TIP3    H236828   2.159   2.131   3.850 -0.0454  0.7670  0.8521
 5113TIP3   OH236829   5.624   6.121   1.909 -0.3185  0.0003 -0.7355
 5113TIP3    H136830   5.604   6.037   1.949 -1.6127  1.4286  1.9574
 5113TIP3    H236831   5.540   6.168   1.908  0.7026  1.9630 -0.1922
 5114TIP3   OH236832   5.623   5.332   1.367  0.0141 -0.7480 -0.5940
 5114TIP3    H136833   5.529   5.313   1.359 -0.3806  0.6503  0.3479
 5114TIP3    H236834   5.632   5.371   1.454  1.1227  0.9438 -1.4147
 5115TIP3   OH236835   6.149   2.557  13.337 -0.4666 -0.1945  0.4517
 5115TIP3    H136836   6.125   2.647  13.314  1.0908 -0.4861 -2.7837
 5115TIP3    H236837   6.232   2.542  13.293 -0.1144 -2.9047  1.8378
 5116TIP3   OH236838   2.815   3.798  11.821 -0.9017  0.0436 -0.0700
 5116TIP3    H136839   2.872   3.875  11.825 -1.0678  0.1277  2.1685
 5116TIP3    H236840   2.868   3.728  11.860 -0.9181 -0.9012 -1.6665
 5117TIP3   OH236841   0.774   2.814   5.164  0.4366  0.2175  0.0165
 5117TIP3    H136842   0.835   2.887   5.156  2.0575 -1.0179  0.5582
 5117TIP3    H236843   0.830   2.736   5.167 -1.1989 -1.0057  0.0676
 5118TIP3   OH236844   5.749   3.199  13.011 -0.2145 -0.5938  0.3638
 5118TIP3    H136845   5.772   3.199  13.104 -4.0784 -0.6087  1.4591
 5118TIP3    H236846   5.722   3.289  12.993 -0.4263 -0.8291 -0.4986
 5119TIP3   OH236847   6.088   1.021   5.148 -0.3973  0.0625 -0.2686
 5119TIP3    H136848   6.032   0.964   5.201  0.6716  0.2616  1.0999
 5119TIP3    H236849   6.119   0.964   5.077  1.1241 -1.3033  1.3977
 5120TIP3   OH236850   1.261   2.182  16.711 -0.1107 -0.5465  0.3539
 5120TIP3    H136851   1.202   2.190  16.636  0.2904  0.6029  0.1339
 5120TIP3    H236852   1.345   2.156  16.673  0.2601  0.6525  0.2965
 5121TIP3   OH236853   5.285   5.904  16.522 -0.0163  0.3065 -0.1783
 5121TIP3    H136854   5.378   5.908  16.499  0.0531  0.5824  0.1539
 5121TIP3    H236855   5.263   5.811  16.517  0.5551  0.1021  0.8278
 5122TIP3   OH236856   0.180   2.124   1.085  0.0377  0.3674  0.4317
 5122TIP3    H136857   0.234   2.172   1.148  1.6101 -0.8289  0.0847
 5122TIP3    H236858   0.216   2.149   0.999  0.1640 -0.5594  0.2016
 5123TIP3   OH236859   4.236   3.350   0.709  0.0571 -0.2700  0.3924
 5123TIP3    H136860   4.204   3.325   0.622  1.8533  1.5167 -0.8464
 5123TIP3    H236861   4.236   3.268   0.758  0.9497 -1.7671 -1.9281
 5124TIP3   OH236862   0.724   6.457   3.387  0.1493  0.1011  0.5629
 5124TIP3    H136863   0.799   6.432   3.333 -0.8396  1.3632 -1.4794
 5124TIP3    H236864   0.698   6.543   3.355 -0.8366  0.6830  2.7289
 5125TIP3   OH236865   1.372   1.595  10.871 -0.3978  0.1719  0.4481
 5125TIP3    H136866   1.332   1.610  10.957  1.4442  0.6004  1.2959
 5125TIP3    H236867   1.446   1.656  10.868  1.0827 -1.5482 -0.3697
 5126TIP3   OH236868   0.105   3.454   2.747 -0.2117 -0.7525 -0.1065
 5126TIP3    H136869   0.106   3.423   2.838  1.3386 -2.1903 -0.5681
 5126TIP3    H236870   0.183   3.416   2.708 -0.4702  0.4257 -1.8766
 5127TIP3   OH236871   1.326   3.531  17.208 -0.1760  0.5627  0.6955
 5127TIP3    H136872   1.288   3.465  17.266 -0.4880  1.7177  1.8462
 5127TIP3    H236873   1.420   3.528  17.226  0.0670 -0.7425 -0.5385
 5128TIP3   OH236874   4.008   5.543   5.045  0.0121  0.0943 -0.4069
 5128TIP3    H136875   4.055   5.625   5.061  0.4082 -0.1412 -0.3378
 5128TIP3    H236876   4.028   5.522   4.954 -0.5871  0.3861 -0.6119
 5129TIP3   OH236877   0.294   1.725  11.733  0.0971  0.0726  0.6668
 5129TIP3    H136878   0.298   1.820  11.746  0.5137  0.0339  0.8450
 5129TIP3    H236879   0.366   1.691  11.786  0.0406 -0.3323  0.4867
 5130TIP3   OH236880   5.391   5.273  16.118 -0.3341  0.1201 -0.2037
 5130TIP3    H136881   5.452   5.289  16.046 -0.1295  0.4149  0.0303
 5130TIP3    H236882   5.447   5.265  16.195 -0.3698 -2.2734 -0.3505
 5131TIP3   OH236883   0.567   2.021  14.335 -0.6360 -0.1504  0.4572
 5131TIP3    H136884   0.506   2.083  14.296  0.5465  1.0477  0.4534
 5131TIP3    H236885   0.527   1.998  14.419  0.0709  2.6055  1.6468
 5132TIP3   OH236886   5.511   0.516  14.031  0.2697  0.4119 -0.4092
 5132TIP3    H136887   5.567   0.519  13.954 -1.1729 -0.0977 -1.5258
 5132TIP3    H236888   5.531   0.597  14.079  1.0701  0.8183 -1.3910
 5133TIP3   OH236889   1.465   4.416   1.765 -0.5492  0.0402  0.1663
 5133TIP3    H136890   1.558   4.434   1.773 -0.2748 -1.4585  0.6129
 5133TIP3    H236891   1.424   4.502   1.760  0.8104  0.7225  0.4710
 5134TIP3   OH236892   1.781   6.349  16.620 -0.1307 -0.2660 -0.8439
 5134TIP3    H136893   1.753   6.441  16.622  0.8234  0.0308  1.5312
 5134TIP3    H236894   1.702   6.299  16.636 -0.1514  0.3283  1.0544
 5135TIP3   OH236895   2.476   2.705   2.659 -0.3392 -0.1114  0.0376
 5135TIP3    H136896   2.535   2.711   2.734 -0.6982 -0.5346  0.3555
 5135TIP3    H236897   2.395   2.670   2.695 -1.4771  2.3021  0.0046
 5136TIP3   OH236898   5.342   3.276  12.254  0.2678 -0.0003 -0.2690
 5136TIP3    H136899   5.336   3.371  12.243 -2.2650 -0.1365 -0.6467
 5136TIP3    H236900   5.321   3.241  12.168 -0.1713 -0.9135  0.2003
 5137TIP3   OH236901   5.352   4.261  14.003 -0.0240  0.2190 -0.2110
 5137TIP3    H136902   5.374   4.274  14.096 -1.3552  0.0558  0.1490
 5137TIP3    H236903   5.434   4.234  13.963  0.2037 -1.4639  1.2658
 5138TIP3   OH236904   1.028   2.790   5.795 -0.0282 -0.1794  0.1061
 5138TIP3    H136905   1.082   2.799   5.873  0.5244  0.7036 -0.3543
 5138TIP3    H236906   1.087   2.753   5.729  1.1921  3.9375 -1.4386
 5139TIP3   OH236907   3.798   2.899  13.602  0.1338  0.3443  0.1700
 5139TIP3    H136908   3.730   2.856  13.653 -0.1459  1.5045  0.8050
 5139TIP3    H236909   3.752   2.933  13.525  0.3101 -0.2638 -0.2121
 5140TIP3   OH236910   5.140   2.347   0.177  0.3691 -0.3061  0.1355
 5140TIP3    H136911   5.211   2.364   0.115  1.0637 -0.8094  0.7798
 5140TIP3    H236912   5.062   2.338   0.122  0.9190 -0.4279 -0.6436
 5141TIP3   OH236913   6.671   6.384   4.355 -0.7187 -0.1928 -0.0010
 5141TIP3    H136914   6.701   6.470   4.328 -1.2741  0.1652  0.4866
 5141TIP3    H236915   6.651   6.394   4.449 -2.5695 -0.3365 -0.3405
 5142TIP3   OH236916   1.090   1.497   4.972  0.1030 -0.3595 -0.3066
 5142TIP3    H136917   1.115   1.406   4.957  1.0140 -0.1973  0.1508
 5142TIP3    H236918   1.094   1.508   5.067 -0.8829 -0.0741 -0.2788
 5143TIP3   OH236919   1.616   1.515   2.663 -0.1705 -0.5698  0.7440
 5143TIP3    H136920   1.608   1.433   2.712 -1.1863 -0.3320  0.9845
 5143TIP3    H236921   1.705   1.546   2.683  1.6401 -3.3257 -2.0758
 5144TIP3   OH236922   5.740   1.772  14.727  0.5055 -0.4521  0.5355
 5144TIP3    H136923   5.717   1.860  14.756 -1.4991 -0.4666 -0.8347
 5144TIP3    H236924   5.705   1.714  14.794 -1.7583 -0.3590 -0.4935
 5145TIP3   OH236925   6.548   5.110  13.646  0.4132  0.1417  0.1638
 5145TIP3    H136926   6.596   5.181  13.602 -0.7615  0.5114 -0.5620
 5145TIP3    H236927   6.460   5.113  13.608 -0.5474  0.2286  2.2550
 5146TIP3   OH236928   4.022   2.286   3.926  0.2453 -0.6169 -0.3706
 5146TIP3    H136929   3.986   2.219   3.867  0.5515 -1.7392  0.6633
 5146TIP3    H236930   4.114   2.291   3.902  0.6012 -1.8202  0.6466
 5147TIP3   OH236931   1.992   6.771   3.279 -0.1078 -0.0109 -0.6739
 5147TIP3    H136932   1.980   6.723   3.361 -2.9617  3.1861  1.0694
 5147TIP3    H236933   2.067   6.829   3.297  0.2335 -0.3668 -0.9322
 5148TIP3   OH236934   3.172   4.706   5.707  0.1025 -0.0946  0.0347
 5148TIP3    H136935   3.208   4.702   5.795  0.8742 -2.0575 -0.3151
 5148TIP3    H236936   3.242   4.742   5.653  0.4810 -1.0478 -0.1330
 5149TIP3   OH236937   5.770   4.127   1.411  0.3555  0.2295  0.2410
 5149TIP3    H136938   5.731   4.203   1.367  0.4314 -0.3057 -0.7902
 5149TIP3    H236939   5.702   4.060   1.405  0.6678 -0.0879  0.2522
 5150TIP3   OH236940   5.473   0.635  12.801 -0.7132  0.8166  0.3733
 5150TIP3    H136941   5.471   0.693  12.725 -0.8451 -2.3581 -2.2795
 5150TIP3    H236942   5.567   0.622  12.818 -0.6833  1.8159  1.0535
 5151TIP3   OH236943   3.954   2.386  11.558  0.2000  0.0577 -0.4223
 5151TIP3    H136944   4.043   2.397  11.591  0.1069 -0.1987 -0.0752
 5151TIP3    H236945   3.898   2.406  11.633 -0.0020 -1.1384 -0.2293
 5152TIP3   OH236946   1.105   5.045   4.060 -0.3732  0.7383  0.1982
 5152TIP3    H136947   1.199   5.033   4.045 -0.3576 -1.2521  1.6406
 5152TIP3    H236948   1.100   5.110   4.131 -0.0041 -0.4290  1.3181
 5153TIP3   OH236949   5.790   0.377  14.575 -0.1089 -0.0131 -0.4671
 5153TIP3    H136950   5.767   0.397  14.666  1.2984  0.1004 -0.1077
 5153TIP3    H236951   5.719   0.416  14.523 -0.2219  1.1497  0.5099
 5154TIP3   OH236952   2.816   0.175  11.983 -0.5853  0.1460 -0.2693
 5154TIP3    H136953   2.725   0.147  11.993 -0.4542 -0.1786  0.0168
 5154TIP3    H236954   2.868   0.098  12.004 -0.2643 -0.3200 -2.5380
 5155TIP3   OH236955   4.862   1.402   0.675  0.4162 -0.4535  0.3216
 5155TIP3    H136956   4.790   1.421   0.615 -0.8075 -2.2488  1.1368
 5155TIP3    H236957   4.938   1.391   0.618 -0.1523  0.4047 -0.6469
 5156TIP3   OH236958   3.639   5.608  15.974  0.6112  0.3901  0.1289
 5156TIP3    H136959   3.578   5.626  15.903 -1.2720  0.6099  1.7146
 5156TIP3    H236960   3.725   5.604  15.932 -0.5240 -0.3935 -2.2702
 5157TIP3   OH236961   2.242   5.155   4.425 -0.5368 -0.4387 -0.0499
 5157TIP3    H136962   2.176   5.086   4.430 -1.2796  0.1243 -1.4951
 5157TIP3    H236963   2.207   5.226   4.479 -1.4160  0.0661 -1.2381
 5158TIP3   OH236964   0.004   6.340  16.282 -0.2032  0.0458  0.3795
 5158TIP3    H136965   0.090   6.371  16.255  0.3481 -1.1230  0.7320
 5158TIP3    H236966  -0.022   6.279  16.213 -0.6684  0.2377  0.3802
 5159TIP3   OH236967   4.369   0.108  15.051  0.1198  0.2722  0.1559
 5159TIP3    H136968   4.355   0.157  15.132  0.4846 -0.6503  0.7978
 5159TIP3    H236969   4.452   0.141  15.017  1.4564 -1.2727  1.6795
 5160TIP3   OH236970   4.446   3.362   3.190  0.1409 -0.2568  0.1473
 5160TIP3    H136971   4.406   3.447   3.208  0.5444  0.2104 -1.0912
 5160TIP3    H236972   4.374   3.308   3.159  0.3367  0.4728 -1.7178
 5161TIP3   OH236973   4.318   2.190   1.411 -0.2586  0.4372 -0.2722
 5161TIP3    H136974   4.279   2.141   1.339 -1.0952  0.1903  0.3358
 5161TIP3    H236975   4.406   2.153   1.420 -0.5983 -0.4084 -0.3461
 5162TIP3   OH236976   0.164   2.708   6.224  0.7921  0.2916  0.1962
 5162TIP3    H136977   0.255   2.701   6.252  0.9161 -0.0181 -0.2688
 5162TIP3    H236978   0.158   2.651   6.147  0.4520  1.0775 -0.3700
 5163TIP3   OH236979   2.349   3.556  11.923  0.2267  0.1908  0.6835
 5163TIP3    H136980   2.334   3.466  11.952 -2.5113  0.2922 -0.1653
 5163TIP3    H236981   2.353   3.550  11.828  1.9280  0.7902  0.6763
 5164TIP3   OH236982   2.007   6.669  14.012 -0.1019  0.2530  0.2622
 5164TIP3    H136983   2.017   6.757  14.048  1.7406  0.2652 -0.1779
 5164TIP3    H236984   1.953   6.681  13.934 -3.5515  0.3214  2.4207
 5165TIP3   OH236985   1.394   0.424   1.519 -0.0994  0.2497  0.5785
 5165TIP3    H136986   1.454   0.456   1.451 -0.3739 -2.2686 -0.9640
 5165TIP3    H236987   1.451   0.388   1.587  0.1997 -1.3456 -0.4786
 5166TIP3   OH236988   3.610   6.092  16.830 -0.2307 -0.3145  0.1617
 5166TIP3    H136989   3.633   6.002  16.810  4.0955  0.8151 -1.1178
 5166TIP3    H236990   3.602   6.094  16.926 -0.2489 -2.0062  0.2232
 5167TIP3   OH236991   2.128   5.479  14.830 -0.3153  0.1479 -0.0931
 5167TIP3    H136992   2.171   5.486  14.745 -1.2720 -2.4488 -0.9034
 5167TIP3    H236993   2.113   5.570  14.858  3.8279  1.1527 -0.6101
 5168TIP3   OH236994   6.308   3.054   2.201 -0.2064 -0.3642  0.3632
 5168TIP3    H136995   6.359   3.086   2.126 -0.0452 -1.5059 -0.0394
 5168TIP3    H236996   6.274   3.133   2.243  0.4431  0.3327 -0.3954
 5169TIP3   OH236997   4.904   5.922  16.844 -0.2369 -0.3521 -0.0948
 5169TIP3    H136998   4.866   6.001  16.882 -2.0694 -0.9285 -0.6141
 5169TIP3    H236999   4.943   5.951  16.762  1.0197  0.3664  0.7376
 5170TIP3   OH237000   0.325   0.080  15.024  0.2114  0.2688 -0.0339
 5170TIP3    H137001   0.242   0.071  14.977  0.6416 -1.1552 -0.5832
 5170TIP3    H237002   0.342   0.174  15.026 -1.8727  0.6834  0.9269
 5171TIP3   OH237003   1.543   0.716  14.861  0.0811 -0.0791  0.2720
 5171TIP3    H137004   1.538   0.793  14.917  0.3924 -0.3395  0.6587
 5171TIP3    H237005   1.611   0.738  14.797 -0.6975  0.4607 -0.3876
 5172TIP3   OH237006   0.491   5.539   3.720  0.0615 -0.7955 -0.7147
 5172TIP3    H137007   0.460   5.558   3.809  0.8068  1.4837 -0.8703
 5172TIP3    H237008   0.580   5.506   3.732  0.4009  0.1300 -0.6206
 5173TIP3   OH237009   2.048   0.607  16.674 -0.4276  0.0482  0.1938
 5173TIP3    H137010   2.011   0.529  16.714 -2.0459  0.1502 -0.9959
 5173TIP3    H237011   2.116   0.637  16.735  0.0666 -2.1308  0.7764
 5174TIP3   OH237012   1.938   1.313   2.464 -0.0472 -0.4200  0.1579
 5174TIP3    H137013   1.872   1.270   2.410  0.6845  0.7852 -1.7940
 5174TIP3    H237014   2.008   1.336   2.403  0.9419  0.7893  1.6651
 5175TIP3   OH237015   2.371   0.159  14.488 -0.0730  0.4768  0.4527
 5175TIP3    H137016   2.293   0.132  14.438  0.2917 -1.3515  0.7734
 5175TIP3    H237017   2.341   0.231  14.543 -1.1135  0.8730 -0.5934
 5176TIP3   OH237018   0.505   0.772   5.260 -0.2066 -0.3716 -0.0281
 5176TIP3    H137019   0.479   0.769   5.168  0.4867 -1.5675 -0.2033
 5176TIP3    H237020   0.592   0.732   5.261  0.0552  0.1979  1.0665
 5177TIP3   OH237021   2.820   4.893   6.209  0.0968  0.1582 -0.1089
 5177TIP3    H137022   2.747   4.834   6.227  0.2384 -0.4956 -1.5566
 5177TIP3    H237023   2.892   4.835   6.186 -0.1132  0.8542 -2.8345
 5178TIP3   OH237024   2.859   2.462  13.427  0.2607  0.0353  0.4651
 5178TIP3    H137025   2.806   2.402  13.375  2.2825 -0.2723 -1.3898
 5178TIP3    H237026   2.927   2.407  13.466  0.1335  0.6328  1.5759
 5179TIP3   OH237027   4.725   6.057  14.795 -0.4209 -0.3009  0.0624
 5179TIP3    H137028   4.728   6.152  14.803  0.1248 -0.3540  0.5794
 5179TIP3    H237029   4.642   6.039  14.750  0.6497  0.5607 -2.4439
 5180TIP3   OH237030   3.862   2.041  14.556 -0.5795  0.0927 -0.0036
 5180TIP3    H137031   3.803   2.011  14.487  1.8975 -0.6421 -1.9564
 5180TIP3    H237032   3.892   2.127  14.526  2.8329 -1.4403 -1.6578
 5181TIP3   OH237033   6.299   2.864   3.053 -0.1921 -0.3303 -0.0282
 5181TIP3    H137034   6.272   2.951   3.083 -0.3519 -0.3024 -0.2560
 5181TIP3    H237035   6.393   2.873   3.037 -0.2321 -0.1631 -0.1744
 5182TIP3   OH237036   5.533   0.864   0.356  0.2724 -0.2941  0.0047
 5182TIP3    H137037   5.568   0.949   0.384 -0.4389 -0.2312  0.7459
 5182TIP3    H237038   5.540   0.808   0.434  1.4678 -1.1662 -0.6967
 5183TIP3   OH237039   5.798   2.190   6.491 -0.2528  0.7277 -0.0199
 5183TIP3    H137040   5.740   2.211   6.565  0.4427  3.6562 -0.1712
 5183TIP3    H237041   5.751   2.122   6.443 -0.6835 -1.3628  3.1042
 5184TIP3   OH237042   2.309   0.683  15.495 -0.3825 -0.5866  0.3375
 5184TIP3    H137043   2.249   0.719  15.430  1.4415 -0.1853 -1.2291
 5184TIP3    H237044   2.390   0.667  15.446  0.9499 -0.6614  2.4412
 5185TIP3   OH237045   2.340   5.636  12.485  0.4176 -1.2052  0.5801
 5185TIP3    H137046   2.353   5.591  12.568 -0.0668 -1.0529  0.7471
 5185TIP3    H237047   2.302   5.721  12.509 -1.4083 -1.8281  0.1401
 5186TIP3   OH237048   1.075   1.292  17.005 -0.4934 -0.7842 -0.1572
 5186TIP3    H137049   1.077   1.323  17.095  0.3782  0.3084 -0.5176
 5186TIP3    H237050   0.987   1.313  16.973 -0.0162  1.2012 -0.3121
 5187TIP3   OH237051   4.526   0.736   4.613  0.1378 -0.2261  0.4346
 5187TIP3    H137052   4.544   0.830   4.618  0.2803 -0.3108  2.1199
 5187TIP3    H237053   4.586   0.697   4.677 -0.6292 -1.3633  0.4912
 5188TIP3   OH237054   5.759   6.244   6.570 -0.1696 -0.2685 -0.1429
 5188TIP3    H137055   5.679   6.287   6.599  0.6914  1.5637 -0.3485
 5188TIP3    H237056   5.731   6.189   6.497 -1.5571 -1.2685  1.1016
 5189TIP3   OH237057   3.774   1.128  11.807 -0.1786 -0.2415  0.0769
 5189TIP3    H137058   3.808   1.060  11.866  0.7153 -0.3486 -0.5428
 5189TIP3    H237059   3.787   1.210  11.854 -1.3776 -0.4905  0.8836
 5190TIP3   OH237060   1.472   2.395  11.097  0.2806 -0.1779 -0.0800
 5190TIP3    H137061   1.540   2.456  11.127 -0.4095  0.8546 -0.5724
 5190TIP3    H237062   1.435   2.437  11.019  0.5066 -1.7422 -1.0669
 5191TIP3   OH237063   5.422   0.122  13.698 -0.1484  0.4577 -0.6063
 5191TIP3    H137064   5.494   0.122  13.761 -1.6711 -0.7109  1.2488
 5191TIP3    H237065   5.455   0.070  13.624  0.9707  0.1242  0.1118
 5192TIP3   OH237066   1.777   0.612   5.106  0.4294 -0.0027  0.1063
 5192TIP3    H137067   1.846   0.642   5.166  1.0141  0.0481 -0.5764
 5192TIP3    H237068   1.782   0.517   5.110 -0.6285 -0.0326  1.3649
 5193TIP3   OH237069   5.457   5.076  15.011 -0.1712 -0.0949 -0.1645
 5193TIP3    H137070   5.398   5.116  14.948  1.2691  2.7223  0.1388
 5193TIP3    H237071   5.444   5.126  15.092  0.5536 -1.3530  0.7795
 5194TIP3   OH237072   4.381   3.378   1.790  0.3213 -0.1319  0.4665
 5194TIP3    H137073   4.392   3.384   1.695 -1.6212  1.7760  0.2763
 5194TIP3    H237074   4.321   3.304   1.802 -1.2873  1.0428 -0.0369
 5195TIP3   OH237075   0.187   5.568  16.858  0.3048  0.6106 -0.3529
 5195TIP3    H137076   0.218   5.637  16.916  0.3520  0.4887 -0.2324
 5195TIP3    H237077   0.164   5.614  16.776  0.9224  0.6808 -0.4889
 5196TIP3   OH237078   6.242   5.421  12.276 -0.3423  0.4101 -0.1116
 5196TIP3    H137079   6.304   5.391  12.210 -1.5837  0.5854 -1.4170
 5196TIP3    H237080   6.172   5.355  12.275 -0.3839  0.4160  1.0469
 5197TIP3   OH237081   6.732   6.649   0.053 -1.0231  0.2895  0.3507
 5197TIP3    H137082   6.708   6.719  -0.008  0.2702 -0.4234 -1.0689
 5197TIP3    H237083   6.802   6.601   0.008 -0.7309 -0.9214  1.9792
 5198TIP3   OH237084   6.771   1.252   1.918 -0.3487 -0.1161 -0.5799
 5198TIP3    H137085   6.774   1.182   1.983  0.3083  1.0100  0.6577
 5198TIP3    H237086   6.857   1.249   1.876 -0.0857  0.3232 -0.0890
 5199TIP3   OH237087   1.125   4.816  16.081 -0.3786 -0.1350 -0.0515
 5199TIP3    H137088   1.051   4.757  16.065 -0.2493  0.3795 -3.1801
 5199TIP3    H237089   1.153   4.795  16.170 -3.1768 -1.5521  0.6256
 5200TIP3   OH237090   0.275   4.805  13.870 -0.4859  0.0782 -0.4505
 5200TIP3    H137091   0.301   4.882  13.921 -0.1432 -1.1786  1.3886
 5200TIP3    H237092   0.357   4.770  13.836 -0.4932 -0.2080 -0.1756
 5201TIP3   OH237093   4.896   0.842  13.915  0.1243  0.0561  0.1952
 5201TIP3    H137094   4.947   0.897  13.856  0.9334 -1.1939 -0.3022
 5201TIP3    H237095   4.840   0.903  13.963  0.6326  1.2460 -0.7007
 5202TIP3   OH237096   1.382   5.213  14.316 -0.7835 -0.3709  0.6319
 5202TIP3    H137097   1.347   5.177  14.398 -1.4088  0.5714  0.7911
 5202TIP3    H237098   1.305   5.242  14.268 -0.3349  0.1417  0.2174
 5203TIP3   OH237099   4.198   1.091  16.818  0.3444 -0.3138 -0.1753
 5203TIP3    H137100   4.153   1.175  16.813 -0.2362 -0.5378  0.9413
 5203TIP3    H237101   4.161   1.049  16.895 -0.0976 -2.0309 -1.2762
 5204TIP3   OH237102   1.801   6.032   4.850 -0.1526 -0.1729  1.0155
 5204TIP3    H137103   1.793   6.092   4.776 -1.3303 -0.2820  1.0330
 5204TIP3    H237104   1.797   6.087   4.928  0.9988 -0.0669  1.0161
 5205TIP3   OH237105   3.886   5.068   1.190  0.0818 -0.3314  0.4108
 5205TIP3    H137106   3.850   5.156   1.195 -1.2036 -0.6483 -1.9645
 5205TIP3    H237107   3.959   5.068   1.252  0.4022  2.5375  0.1395
 5206TIP3   OH237108   4.916   1.532   4.165  0.9702 -0.6657 -0.2052
 5206TIP3    H137109   4.835   1.574   4.137  0.6167 -1.0162  0.2622
 5206TIP3    H237110   4.890   1.443   4.191  1.2347 -0.3445  1.2916
 5207TIP3   OH237111   0.256   0.444   3.636  0.0507  0.2165 -0.0625
 5207TIP3    H137112   0.271   0.380   3.566 -1.6163 -0.0652 -0.1906
 5207TIP3    H237113   0.323   0.511   3.621 -0.1114  0.0438 -1.8088
 5208TIP3   OH237114   5.113   2.927  16.602  0.2587  0.2956  0.5424
 5208TIP3    H137115   5.110   2.989  16.675 -1.6964 -0.5375  1.2295
 5208TIP3    H237116   5.088   2.979  16.525 -3.7734  0.0031  1.4657
 5209TIP3   OH237117   0.360   2.869   0.126 -0.1726  0.1677  0.4788
 5209TIP3    H137118   0.309   2.950   0.126  0.3212  0.4865 -0.1879
 5209TIP3    H237119   0.394   2.862   0.216 -1.0150  0.1820  0.8023
 5210TIP3   OH237120   2.690   0.441   1.489 -0.5197  0.2251 -0.0129
 5210TIP3    H137121   2.768   0.496   1.493 -0.8573  1.3794 -4.1658
 5210TIP3    H237122   2.723   0.353   1.507  1.3886  0.9139  0.1362
 5211TIP3   OH237123   2.612   6.764  12.749  0.3842 -0.1787  0.3920
 5211TIP3    H137124   2.593   6.839  12.693  1.0141  0.8898  1.5789
 5211TIP3    H237125   2.566   6.783  12.831  0.9057 -0.8892  0.8583
 5212TIP3   OH237126   5.290   0.900  13.844 -0.4065  0.2402 -0.0071
 5212TIP3    H137127   5.226   0.961  13.806  0.2882  0.6650 -0.5273
 5212TIP3    H237128   5.298   0.831  13.778 -0.3742  0.1587  0.0832
 5213TIP3   OH237129   6.154   6.486   2.938  0.8000  0.4147  0.0548
 5213TIP3    H137130   6.195   6.420   2.882  1.0543  0.7559 -0.1592
 5213TIP3    H237131   6.218   6.556   2.945  0.9757  0.1641  1.1849
 5214TIP3   OH237132   0.566   1.187   3.124 -0.1245 -0.4548  0.5637
 5214TIP3    H137133   0.608   1.113   3.168 -0.3756  1.2377  3.9344
 5214TIP3    H237134   0.638   1.232   3.080  0.3840 -1.4176  0.3668
 5215TIP3   OH237135   3.577   2.069  15.818 -0.4600  0.8120 -0.0540
 5215TIP3    H137136   3.553   2.012  15.745  2.7510  1.8634 -2.1227
 5215TIP3    H237137   3.577   2.157  15.781  2.5811  1.2442  0.7464
 5216TIP3   OH237138   3.159   6.642  14.683 -0.2490  0.0779  0.1045
 5216TIP3    H137139   3.221   6.609  14.618  0.5363  0.4368  0.6610
 5216TIP3    H237140   3.184   6.599  14.765 -0.8181  0.1282  0.3125
 5217TIP3   OH237141   1.728   0.129   1.010 -0.1029 -0.2111 -0.3795
 5217TIP3    H137142   1.762   0.040   1.022 -0.6879 -0.2543  1.3928
 5217TIP3    H237143   1.637   0.123   1.041 -0.3678  0.8559 -0.9178
 5218TIP3   OH237144   3.172   6.155  12.290  0.4318  0.3869 -0.4867
 5218TIP3    H137145   3.134   6.227  12.239 -0.9730  1.1683  1.5031
 5218TIP3    H237146   3.100   6.092  12.300  0.2486  0.8303  1.4561
 5219TIP3   OH237147   3.916   5.151   1.557  0.0705  0.5843  0.3942
 5219TIP3    H137148   3.844   5.088   1.563  0.6091 -0.0123  0.6845
 5219TIP3    H237149   3.965   5.124   1.479 -0.9389  1.9889 -0.7883
 5220TIP3   OH237150   2.169   5.084   3.425 -0.5140  0.0303  0.0278
 5220TIP3    H137151   2.235   5.027   3.389 -0.5363  0.2360 -0.3410
 5220TIP3    H237152   2.146   5.144   3.354  0.1924  1.1148  0.6706
 5221TIP3   OH237153   3.023   5.304   1.000 -0.4200  0.4108  0.9096
 5221TIP3    H137154   3.063   5.233   0.949 -0.3191  1.3726 -0.3938
 5221TIP3    H237155   2.980   5.259   1.073  0.1934 -0.9335  0.4829
 5222TIP3   OH237156   4.977   1.885  14.966 -0.0202 -0.4294  0.1054
 5222TIP3    H137157   5.053   1.943  14.974 -0.7085  0.3896  0.8730
 5222TIP3    H237158   4.933   1.890  15.051 -0.3416 -1.7479  0.0354
 5223TIP3   OH237159   2.180   5.198   6.110  0.7066  0.1138 -0.4637
 5223TIP3    H137160   2.103   5.251   6.128 -0.6820 -1.5696 -1.1959
 5223TIP3    H237161   2.206   5.163   6.196 -0.6122 -0.9271 -0.4609
 5224TIP3   OH237162   3.191   4.395   2.988  0.0006  0.6617 -0.5725
 5224TIP3    H137163   3.243   4.329   2.943 -0.2811  1.6421 -2.4730
 5224TIP3    H237164   3.130   4.426   2.921  1.2641  4.0500 -0.3520
 5225TIP3   OH237165   0.511   2.074   2.920 -0.4094  0.2184  0.0893
 5225TIP3    H137166   0.569   2.088   2.995  0.4627  0.6611 -0.6444
 5225TIP3    H237167   0.472   2.159   2.903 -0.7774  0.0691  0.1612
 5226TIP3   OH237168   1.818   3.720   3.631  0.2994  0.7717  0.1007
 5226TIP3    H137169   1.827   3.716   3.536  0.6121 -0.5984  0.1701
 5226TIP3    H237170   1.839   3.811   3.653 -0.5011  1.3032 -1.1976
 5227TIP3   OH237171   4.671   4.468  17.240  0.1375  0.0575  0.2224
 5227TIP3    H137172   4.737   4.450  17.173  0.7755  0.3590  0.7573
 5227TIP3    H237173   4.717   4.455  17.323 -0.4677  0.3159  0.6056
 5228TIP3   OH237174   1.117   3.542   3.916  0.0243  0.0644  0.2899
 5228TIP3    H137175   1.061   3.554   3.839 -0.2398  2.2929  0.7684
 5228TIP3    H237176   1.067   3.483   3.972 -1.8533  1.8209  0.6068
 5229TIP3   OH237177   4.090   0.201   1.531  0.1879  0.6653  0.4223
 5229TIP3    H137178   4.024   0.156   1.478 -0.0181  0.1545  1.0986
 5229TIP3    H237179   4.096   0.288   1.492 -1.2345  0.8774  0.6434
 5230TIP3   OH237180   5.119   1.312  16.614  0.1852 -0.5413  0.0216
 5230TIP3    H137181   5.168   1.318  16.696 -0.8374 -2.2979  0.8278
 5230TIP3    H237182   5.053   1.244  16.631  0.0075 -1.0257 -2.2934
 5231TIP3   OH237183   4.996   0.349   4.823 -0.3130  0.1259 -0.4918
 5231TIP3    H137184   5.088   0.326   4.811 -0.4162 -0.1448 -0.7571
 5231TIP3    H237185   4.949   0.301   4.755 -0.2677  3.1765 -2.8946
 5232TIP3   OH237186   1.808   0.323   0.727  0.2847 -0.3193 -0.2992
 5232TIP3    H137187   1.803   0.273   0.808 -1.2019 -1.8000 -1.2669
 5232TIP3    H237188   1.718   0.346   0.706  0.8450  2.4318 -0.1625
 5233TIP3   OH237189   0.338   1.291  13.521  0.1867  0.2253 -0.3174
 5233TIP3    H137190   0.340   1.381  13.554 -1.4234  0.1905 -0.0280
 5233TIP3    H237191   0.309   1.300  13.430 -1.1828 -0.0621  0.0732
 5234TIP3   OH237192   5.186   2.506  13.055 -0.4121  0.5606 -0.7387
 5234TIP3    H137193   5.141   2.575  13.104  0.7818  1.1988 -0.5106
 5234TIP3    H237194   5.267   2.491  13.103 -0.9006 -1.4642 -0.4293
 5235TIP3   OH237195   2.560   5.626   0.280 -0.4499  0.5046  0.1380
 5235TIP3    H137196   2.543   5.598   0.190  0.5631 -0.1485  0.1314
 5235TIP3    H237197   2.480   5.672   0.306 -0.9263  0.3353 -0.9424
 5236TIP3   OH237198   6.196   2.750   0.347 -0.2757 -0.9371  0.0496
 5236TIP3    H137199   6.283   2.712   0.331 -0.5020 -1.4357 -0.0050
 5236TIP3    H237200   6.178   2.801   0.268  1.2484  1.6598  1.2570
 5237TIP3   OH237201   3.677   6.232   0.775  0.2075  0.0933 -0.0883
 5237TIP3    H137202   3.716   6.246   0.861 -1.0823 -0.4722  0.6258
 5237TIP3    H237203   3.749   6.199   0.721  1.8162  3.3218 -0.1438
 5238TIP3   OH237204   3.216   1.827   0.930 -0.0076 -0.3632  0.0995
 5238TIP3    H137205   3.158   1.757   0.961  1.4307 -1.9519 -0.6121
 5238TIP3    H237206   3.160   1.904   0.924 -1.9804 -1.7461 -0.2559
 5239TIP3   OH237207   4.627   2.066  14.752  1.0230  0.3639 -0.2409
 5239TIP3    H137208   4.589   2.011  14.684  0.8286  0.6774 -0.3921
 5239TIP3    H237209   4.721   2.066  14.734  1.1420 -0.7049  0.3488
 5240TIP3   OH237210   5.576   1.404   3.863 -0.2386 -0.8039  0.4275
 5240TIP3    H137211   5.560   1.311   3.849 -1.2370 -0.4801 -0.6841
 5240TIP3    H237212   5.588   1.440   3.775  3.7364 -0.4482  0.9392
 5241TIP3   OH237213   2.488   0.934  14.179 -0.3362 -0.3278 -0.2086
 5241TIP3    H137214   2.536   0.936  14.262 -0.6830 -2.8361  0.1158
 5241TIP3    H237215   2.444   1.019  14.175  1.8876  0.9747  0.8006
 5242TIP3   OH237216   3.172   5.562   4.401  0.2055  0.1124  0.3507
 5242TIP3    H137217   3.172   5.468   4.416 -1.1364  0.0388 -0.0065
 5242TIP3    H237218   3.185   5.571   4.306 -1.5850  0.1945  0.0850
 5243TIP3   OH237219   4.888   3.525   3.979 -0.0586 -0.0141 -0.5085
 5243TIP3    H137220   4.940   3.506   3.901  1.0922  1.4845 -0.1652
 5243TIP3    H237221   4.805   3.560   3.945 -1.1771 -2.9231 -1.0720
 5244TIP3   OH237222   5.235   6.749   0.139 -0.2064 -0.0522 -0.3852
 5244TIP3    H137223   5.254   6.766   0.231 -0.7422  0.1973 -0.3196
 5244TIP3    H237224   5.288   6.672   0.117 -1.4270 -1.2267  0.6195
 5245TIP3   OH237225   4.144   1.378  12.650 -0.5362  0.6385 -0.5495
 5245TIP3    H137226   4.093   1.331  12.584 -0.2672  0.0231 -0.3303
 5245TIP3    H237227   4.099   1.462  12.661 -2.3887 -0.4593  0.7281
 5246TIP3   OH237228   3.991   6.224   1.351  0.5832 -0.0736  0.1056
 5246TIP3    H137229   3.996   6.135   1.386 -1.7238  0.3226  1.6819
 5246TIP3    H237230   3.957   6.213   1.262  0.6687 -0.7802  0.1527
 5247TIP3   OH237231   1.900   0.745  14.358 -0.5235 -0.3544  0.0443
 5247TIP3    H137232   1.843   0.788  14.294 -0.4327 -1.6929 -0.9713
 5247TIP3    H237233   1.887   0.652  14.343  0.6919 -0.6903  0.9250
 5248TIP3   OH237234   2.003   2.686  11.826 -0.2345  0.1093  0.9816
 5248TIP3    H137235   1.953   2.768  11.829 -0.8444 -0.2848  2.3446
 5248TIP3    H237236   2.087   2.709  11.867  0.1087  0.3663  0.1584
 5249TIP3   OH237237   5.538   4.582  12.266 -0.4198 -0.3946 -0.3878
 5249TIP3    H137238   5.594   4.657  12.244  0.4748 -0.4372  1.5337
 5249TIP3    H237239   5.456   4.600  12.221  0.2910  0.9546 -1.2345
 5250TIP3   OH237240   2.404   3.657   5.021  0.1419 -0.7871  0.1467
 5250TIP3    H137241   2.335   3.592   5.012  1.4431 -2.0378 -1.6658
 5250TIP3    H237242   2.366   3.738   4.985 -0.4988 -1.3643 -0.5074
 5251TIP3   OH237243   2.670   2.491   2.617  0.3510  0.4019 -0.6499
 5251TIP3    H137244   2.715   2.409   2.598 -0.3401 -0.2273  0.3471
 5251TIP3    H237245   2.675   2.540   2.535 -0.0724 -1.0363 -1.5678
 5252TIP3   OH237246   5.890   5.383   1.316  0.3939  0.0898 -0.1052
 5252TIP3    H137247   5.804   5.348   1.292  0.2842 -0.0208  0.4411
 5252TIP3    H237248   5.870   5.459   1.371  0.6456 -0.7033  1.1123
 5253TIP3   OH237249   5.095   5.046   1.753  0.2940  0.0817  0.2298
 5253TIP3    H137250   5.111   5.026   1.846  3.2169 -2.6672 -0.6830
 5253TIP3    H237251   5.152   4.986   1.706  0.0195  2.3951 -3.3850
 5254TIP3   OH237252   4.460   5.513   3.862  0.4625  0.2945 -0.0351
 5254TIP3    H137253   4.418   5.428   3.851  0.7562  0.0291  0.8175
 5254TIP3    H237254   4.458   5.529   3.957 -0.7928  1.8543 -0.2744
 5255TIP3   OH237255   4.940   4.975   2.743  0.7211 -0.3152 -0.1197
 5255TIP3    H137256   5.024   4.996   2.701  1.1181 -2.3659 -0.4625
 5255TIP3    H237257   4.942   5.024   2.825  0.5412  2.6867 -1.7569
 5256TIP3   OH237258   4.148   4.624   4.858 -0.4183  0.2664  0.1624
 5256TIP3    H137259   4.117   4.714   4.870 -1.8286 -0.1479 -0.1684
 5256TIP3    H237260   4.070   4.575   4.833  0.4044 -0.9827 -0.0536
 5257TIP3   OH237261   5.405   1.251   1.665  0.3825  0.2747  0.0952
 5257TIP3    H137262   5.457   1.228   1.743  1.7396 -0.9670 -1.1108
 5257TIP3    H237263   5.462   1.229   1.591 -1.3743  0.1586 -1.2800
 5258TIP3   OH237264   1.102   4.258  12.253  0.3043 -0.4090 -0.7606
 5258TIP3    H137265   1.019   4.210  12.252 -0.1405  0.2329  1.1573
 5258TIP3    H237266   1.152   4.217  12.323  0.4580  1.0282 -0.0049
 5259TIP3   OH237267   0.291   5.320   3.688  0.6256 -0.0377  0.0664
 5259TIP3    H137268   0.370   5.365   3.659  0.4988 -0.2530 -0.6267
 5259TIP3    H237269   0.236   5.389   3.725  0.2444  0.4827 -1.3924
 5260TIP3   OH237270   0.027   2.101  16.046  0.4836 -0.1497 -0.0273
 5260TIP3    H137271   0.107   2.101  15.994 -0.6601  0.4998 -1.8666
 5260TIP3    H237272  -0.025   2.030  16.009 -1.3387  1.8115 -1.4351
 5261TIP3   OH237273   1.725   2.051  16.457 -0.3755 -0.4376  0.1077
 5261TIP3    H137274   1.800   2.049  16.517  0.5544  0.8925 -0.9498
 5261TIP3    H237275   1.753   2.110  16.387 -3.4677  2.4422  1.0534
 5262TIP3   OH237276   0.861   1.739  16.452  0.5345  0.4076  0.4582
 5262TIP3    H137277   0.895   1.687  16.525  0.9281 -0.4205 -0.2979
 5262TIP3    H237278   0.787   1.689  16.419  1.7374 -0.3933 -1.1322
 5263TIP3   OH237279   4.380   3.110  14.032 -0.0792  0.4468  0.1055
 5263TIP3    H137280   4.367   3.196  14.071  0.0780  1.6985 -2.3960
 5263TIP3    H237281   4.451   3.072  14.083 -0.3731  1.6362  1.4829
 5264TIP3   OH237282   1.863   6.765  15.126 -0.1441 -0.0165 -0.0857
 5264TIP3    H137283   1.892   6.789  15.038 -0.4378  0.3429 -0.0865
 5264TIP3    H237284   1.943   6.739  15.172  0.1084  0.4437 -0.2559
 5265TIP3   OH237285   2.965   5.248  14.273  0.1564 -0.2568 -0.0353
 5265TIP3    H137286   3.056   5.277  14.278 -0.3141  1.0826  1.5292
 5265TIP3    H237287   2.924   5.311  14.213  0.5998 -1.9470 -2.2206
 5266TIP3   OH237288   1.259   0.663   2.791 -0.4375 -0.3029 -0.3768
 5266TIP3    H137289   1.272   0.736   2.852  0.9320 -0.3224 -0.6156
 5266TIP3    H237290   1.194   0.695   2.728 -2.0469 -0.3532  1.1700
 5267TIP3   OH237291   5.923   4.937  14.661  0.1059 -0.5534 -0.1305
 5267TIP3    H137292   5.919   4.871  14.592  0.4225 -1.2789  0.5372
 5267TIP3    H237293   6.009   4.927  14.700 -0.2724 -0.5264  0.7388
 5268TIP3   OH237294   3.835   3.920   6.008  0.0399  0.6020 -0.1065
 5268TIP3    H137295   3.762   3.876   5.963  0.6250  0.4353 -0.9304
 5268TIP3    H237296   3.808   3.924   6.099  0.2100 -2.0805  0.1402
 5269TIP3   OH237297   4.240   5.675   3.744  0.9322 -0.0546  0.1586
 5269TIP3    H137298   4.332   5.693   3.767  0.3427  2.2361  0.9114
 5269TIP3    H237299   4.214   5.749   3.690 -0.6611 -0.3645  0.4700
 5270TIP3   OH237300   6.174   2.695  13.062 -0.0321  0.3014 -0.1676
 5270TIP3    H137301   6.148   2.770  13.116  0.1917  0.5832 -0.4510
 5270TIP3    H237302   6.248   2.656  13.109 -1.1302 -0.6927  0.8071
 5271TIP3   OH237303   6.097   5.533  14.648  0.7698  0.6303 -0.3999
 5271TIP3    H137304   6.036   5.561  14.580 -1.3471 -1.0035  0.6886
 5271TIP3    H237305   6.182   5.565  14.619 -0.6950  3.9643 -1.4844
 5272TIP3   OH237306   3.851   1.857   5.165  0.5681 -0.0043  0.0507
 5272TIP3    H137307   3.824   1.776   5.208  0.9495  0.2567  0.7934
 5272TIP3    H237308   3.914   1.896   5.225  0.9623  0.4661 -0.6583
 5273TIP3   OH237309   3.487   3.115  16.463 -0.0765 -0.0831  0.8694
 5273TIP3    H137310   3.561   3.074  16.507  0.7051 -1.0788 -1.2346
 5273TIP3    H237311   3.525   3.187  16.413 -0.4467 -0.6486 -0.2844
 5274TIP3   OH237312   3.291   2.499  16.534 -0.1114  0.7371 -0.7242
 5274TIP3    H137313   3.214   2.555  16.531 -0.8124 -0.2346 -1.9747
 5274TIP3    H237314   3.274   2.437  16.604 -0.0915  1.0373 -0.4539
 5275TIP3   OH237315   5.843   3.815   0.248 -0.4285  0.3479 -0.0470
 5275TIP3    H137316   5.872   3.899   0.284  1.2694 -0.0060 -0.5086
 5275TIP3    H237317   5.878   3.750   0.309 -1.5689 -0.0489  0.2039
 5276TIP3   OH237318   6.249   5.903  11.318 -0.1853  0.0444  0.1726
 5276TIP3    H137319   6.183   5.918  11.385 -1.3759  0.3787 -1.0159
 5276TIP3    H237320   6.312   5.844  11.358 -1.8536 -1.2754  0.9755
 5277TIP3   OH237321   2.495   3.734  13.786 -0.2707 -0.5466  0.0386
 5277TIP3    H137322   2.455   3.671  13.846 -1.3959 -0.3836 -0.5163
 5277TIP3    H237323   2.536   3.680  13.718  1.9386 -0.7783  1.4423
 5278TIP3   OH237324   0.357   1.623   4.665 -0.2821 -0.8277  0.0756
 5278TIP3    H137325   0.420   1.690   4.637 -1.1231  0.6477  1.5024
 5278TIP3    H237326   0.273   1.654   4.631 -0.6901 -1.1283  0.7988
 5279TIP3   OH237327   4.158   6.589   2.046 -0.1564  0.0361  0.2558
 5279TIP3    H137328   4.182   6.539   2.124  0.2789  0.8379  0.6414
 5279TIP3    H237329   4.135   6.676   2.079 -0.5605  0.2043 -0.4462
 5280TIP3   OH237330   4.377   6.622   4.420 -0.0794  0.4259 -0.7252
 5280TIP3    H137331   4.398   6.636   4.328  1.4695  1.2665 -0.2818
 5280TIP3    H237332   4.368   6.527   4.429 -2.9158  0.4395 -2.2308
 5281TIP3   OH237333   4.289   5.483  15.284 -0.2499  0.0813  0.7646
 5281TIP3    H137334   4.273   5.422  15.357  0.4284 -0.7723  0.2257
 5281TIP3    H237335   4.333   5.558  15.325 -1.4194  0.3933  1.4948
 5282TIP3   OH237336   3.875   4.580   3.018 -0.0873 -0.0068 -0.0443
 5282TIP3    H137337   3.896   4.643   3.087 -1.1836  0.4053 -0.0660
 5282TIP3    H237338   3.925   4.610   2.942  0.7695 -0.2008  0.4298
 5283TIP3   OH237339   0.138   4.901  13.627 -0.0653 -0.1490  0.2726
 5283TIP3    H137340   0.148   4.996  13.635 -1.2804 -0.0980  1.3562
 5283TIP3    H237341   0.183   4.866  13.704  0.6003 -0.4781 -0.2578
 5284TIP3   OH237342   3.436   3.624  15.499  0.1598 -0.2588  0.2252
 5284TIP3    H137343   3.493   3.550  15.478  3.4931  1.2097  3.2367
 5284TIP3    H237344   3.484   3.675  15.563 -4.0671  1.9124  2.0921
 5285TIP3   OH237345   0.425   0.913  11.557 -0.0561  0.3191 -0.5081
 5285TIP3    H137346   0.485   0.984  11.536 -0.3475  0.8872  0.5265
 5285TIP3    H237347   0.352   0.925  11.496  0.6011 -0.0364 -1.3822
 5286TIP3   OH237348   6.652   4.089  16.678 -0.0250  0.3165  0.1767
 5286TIP3    H137349   6.572   4.086  16.626  0.2875  1.8014 -0.4372
 5286TIP3    H237350   6.659   4.002  16.716  0.1616 -1.1504 -2.9254
 5287TIP3   OH237351   1.440   2.806  17.210  0.3692 -0.3585  0.0491
 5287TIP3    H137352   1.497   2.762  17.272 -0.0700 -0.8364  0.1261
 5287TIP3    H237353   1.369   2.743  17.194 -0.4014  0.4108  0.3526
 5288TIP3   OH237354   6.763   4.511  12.670  0.1775  0.6690 -0.2422
 5288TIP3    H137355   6.844   4.460  12.662  0.6487  1.5005 -0.9988
 5288TIP3    H237356   6.784   4.596  12.630  0.5894  2.8332  3.9410
 5289TIP3   OH237357   0.547   4.824  13.403 -0.1859 -0.3979 -0.9315
 5289TIP3    H137358   0.559   4.878  13.325  0.1770 -0.4786 -0.9318
 5289TIP3    H237359   0.453   4.826  13.419 -0.2078  0.0021 -1.0995
 5290TIP3   OH237360   3.923   0.268  12.227  0.1331  0.9697 -0.5386
 5290TIP3    H137361   3.943   0.314  12.309 -0.9081  1.0807 -0.3243
 5290TIP3    H237362   3.829   0.281  12.216 -0.3840 -1.7436 -0.0394
 5291TIP3   OH237363   5.834   0.383  11.975  0.3202 -0.2382 -0.0178
 5291TIP3    H137364   5.813   0.299  11.935  1.8883 -0.4573 -0.4568
 5291TIP3    H237365   5.802   0.448  11.912 -0.0957 -0.5321 -0.1078
 5292TIP3   OH237366   2.331   2.189   4.051  0.2604  0.2663  0.0335
 5292TIP3    H137367   2.321   2.094   4.053  4.3028 -0.3376  0.4959
 5292TIP3    H237368   2.339   2.211   3.958  0.7304 -0.0896 -0.0145
 5293TIP3   OH237369   4.172   0.655   2.396 -0.4741 -0.5192 -0.2780
 5293TIP3    H137370   4.185   0.588   2.330  0.3369 -0.1253 -0.5280
 5293TIP3    H237371   4.256   0.699   2.403 -0.4766 -0.6894  1.1756
 5294TIP3   OH237372   3.844   0.909  11.931 -0.4733  0.0427 -0.0813
 5294TIP3    H137373   3.763   0.863  11.908  0.7539 -1.4804 -1.5725
 5294TIP3    H237374   3.906   0.840  11.955  0.6906  1.1075  0.0978
 5295TIP3   OH237375   3.482   0.608   5.992  0.4325 -0.2592 -0.0625
 5295TIP3    H137376   3.567   0.591   5.951  0.8351  0.2424  0.5416
 5295TIP3    H237377   3.442   0.521   6.002  0.0376 -0.3408 -2.0847
 5296TIP3   OH237378   0.113   5.612  15.832  0.0391 -0.1558  1.0958
 5296TIP3    H137379   0.069   5.626  15.915 -1.4532  0.3295  0.2618
 5296TIP3    H237380   0.073   5.532  15.797  0.4567 -0.2049  0.7201
 5297TIP3   OH237381   1.027   4.701   1.513 -0.3587 -0.1741 -0.3365
 5297TIP3    H137382   0.955   4.680   1.454  0.9677 -0.2063 -2.0435
 5297TIP3    H237383   1.066   4.781   1.478  0.3664 -0.0779  0.6173
 5298TIP3   OH237384   5.244   5.307   0.834  0.6341  0.2854 -0.0712
 5298TIP3    H137385   5.186   5.380   0.812  1.1672  0.7635  0.0485
 5298TIP3    H237386   5.208   5.271   0.915  1.1741  1.3607  0.6823
 5299TIP3   OH237387   2.615   1.664  12.334  0.3147 -0.3156 -0.5680
 5299TIP3    H137388   2.532   1.644  12.290 -0.0040 -1.9718  0.6873
 5299TIP3    H237389   2.602   1.636  12.424  2.1553 -0.3679 -0.2749
 5300TIP3   OH237390   2.653   0.409   3.358 -0.0389 -0.8875 -0.5935
 5300TIP3    H137391   2.571   0.448   3.327 -1.5806 -0.8107  3.0956
 5300TIP3    H237392   2.720   0.472   3.333 -1.5746  0.8142 -0.6752
 5301TIP3   OH237393   3.282   6.477   0.253 -0.1435  0.1520 -0.0330
 5301TIP3    H137394   3.297   6.563   0.293  0.5955 -0.0133  0.0689
 5301TIP3    H237395   3.361   6.427   0.274 -0.6096 -0.5901  0.0024
 5302TIP3   OH237396   4.764   2.037  14.467 -0.0120 -0.5266  0.0474
 5302TIP3    H137397   4.857   2.055  14.457 -0.1492  0.3651  0.2671
 5302TIP3    H237398   4.721   2.103  14.412 -0.5477 -0.0619  0.9908
 5303TIP3   OH237399   0.091   4.720  16.580  0.3934 -0.2185 -0.1918
 5303TIP3    H137400   0.065   4.645  16.633  0.6107 -0.0757  0.1251
 5303TIP3    H237401   0.150   4.770  16.637  0.6666 -0.0858 -0.5820
 5304TIP3   OH237402   0.338   1.261   5.404 -0.3282 -0.1665 -0.0162
 5304TIP3    H137403   0.292   1.254   5.488 -2.7247 -1.8714 -1.3552
 5304TIP3    H237404   0.302   1.340   5.363 -0.7328 -0.4952 -0.3015
 5305TIP3   OH237405   2.463   4.202   2.084 -0.1884 -0.3641  0.1094
 5305TIP3    H137406   2.442   4.272   2.145 -1.4522  0.1570 -0.8742
 5305TIP3    H237407   2.554   4.219   2.058 -0.3974  0.7584  0.0802
 5306TIP3   OH237408   1.038   3.255   5.562 -0.6471  0.2103 -0.0969
 5306TIP3    H137409   1.044   3.275   5.468 -1.5567 -1.7894 -0.6484
 5306TIP3    H237410   1.068   3.164   5.569 -2.5297 -0.3902  1.1827
 5307TIP3   OH237411   6.187   3.802   2.776 -0.2895 -0.0778  0.0700
 5307TIP3    H137412   6.165   3.816   2.869 -0.8229 -0.2695 -0.0219
 5307TIP3    H237413   6.140   3.872   2.730  1.7490  1.3998  0.1258
 5308TIP3   OH237414   1.704   3.595   3.010 -0.0603 -0.2903 -0.6073
 5308TIP3    H137415   1.625   3.548   3.034 -0.9457  0.1545 -2.4795
 5308TIP3    H237416   1.751   3.536   2.950 -0.4128  0.5365 -1.7385
 5309TIP3   OH237417   0.214   4.408   5.047  0.4471 -0.2769  0.0987
 5309TIP3    H137418   0.271   4.484   5.034  1.6934 -0.8615  1.6840
 5309TIP3    H237419   0.204   4.403   5.142 -1.5698 -0.7320 -0.1054
 5310TIP3   OH237420   3.929   3.559   4.362  0.6585  0.7076  0.4039
 5310TIP3    H137421   3.959   3.620   4.295  0.8111 -0.0838 -0.2612
 5310TIP3    H237422   3.834   3.558   4.353  0.7912 -0.9792 -1.2407
 5311TIP3   OH237423   2.176   6.072  14.803 -0.6094 -0.3187  0.3926
 5311TIP3    H137424   2.245   6.137  14.790 -1.1359  0.2362  0.3316
 5311TIP3    H237425   2.153   6.080  14.895 -0.6093 -0.4880  0.4070
 5312TIP3   OH237426   2.765   0.278  13.571 -0.4299 -0.1502  0.4734
 5312TIP3    H137427   2.860   0.264  13.568 -0.3159  0.5652  0.5792
 5312TIP3    H237428   2.755   0.373  13.565 -1.1168 -0.1761  1.1031
 5313TIP3   OH237429   1.988   3.782   6.318  0.0799  0.8522  0.6801
 5313TIP3    H137430   2.055   3.831   6.366  0.3082 -0.6828  2.0082
 5313TIP3    H237431   1.906   3.827   6.339  0.6046  2.5383 -0.6834
 5314TIP3   OH237432   1.121   1.960  13.331  0.6926  0.8355 -0.4681
 5314TIP3    H137433   1.043   1.906  13.341  0.7436  0.7981 -0.2525
 5314TIP3    H237434   1.117   2.021  13.406 -0.1854  2.1721 -1.5502
 5315TIP3   OH237435   4.388   0.631  15.807  0.2552 -0.8924 -0.4266
 5315TIP3    H137436   4.336   0.634  15.726  0.0634  2.3839 -0.3417
 5315TIP3    H237437   4.444   0.709  15.802  1.6490 -1.6789  1.7266
 5316TIP3   OH237438   6.194   2.732   5.586 -0.3818  0.1395 -0.3500
 5316TIP3    H137439   6.174   2.710   5.676 -0.8698 -1.3312 -0.7925
 5316TIP3    H237440   6.111   2.765   5.550 -0.6632 -0.9442 -0.7286
 5317TIP3   OH237441   2.879   2.498  14.400  0.0306 -0.4697 -0.6131
 5317TIP3    H137442   2.970   2.478  14.376 -0.4963 -1.3605 -1.9548
 5317TIP3    H237443   2.843   2.541  14.323 -0.8871 -0.7183 -0.3383
 5318TIP3   OH237444   1.382   2.143  15.748  0.1615  0.2155 -0.6553
 5318TIP3    H137445   1.406   2.173  15.661  0.3481 -0.4981 -0.8594
 5318TIP3    H237446   1.434   2.197  15.808 -1.1753  1.8585 -0.8849
 5319TIP3   OH237447   6.540   0.836  15.183  0.2687  0.4455  0.2173
 5319TIP3    H137448   6.508   0.922  15.158 -0.0007  0.5430  0.8863
 5319TIP3    H237449   6.615   0.821  15.125 -1.0153  0.1578 -1.4694
 5320TIP3   OH237450   0.078   6.402   5.851 -0.0191 -0.0084 -0.1177
 5320TIP3    H137451   0.007   6.438   5.903 -0.5985 -0.0793 -0.8351
 5320TIP3    H237452   0.102   6.473   5.792 -0.8471 -0.6077 -1.2181
 5321TIP3   OH237453   6.806   2.604  16.159  0.3190  0.2287  0.1855
 5321TIP3    H137454   6.762   2.520  16.172 -1.7082  1.1638 -0.2245
 5321TIP3    H237455   6.831   2.632  16.248  0.4315 -0.4877  0.3882
 5322TIP3   OH237456   3.858   6.209   2.187  0.3458 -0.1975  0.5541
 5322TIP3    H137457   3.936   6.155   2.186  0.4705 -0.0827 -1.8038
 5322TIP3    H237458   3.850   6.243   2.098 -1.2042  1.5407  1.2610
 5323TIP3   OH237459   2.198   0.583   0.197 -0.0916 -0.5180  0.2685
 5323TIP3    H137460   2.262   0.514   0.177 -0.2313 -0.5977  0.0891
 5323TIP3    H237461   2.113   0.540   0.186 -0.2135  0.0919 -1.3927
 5324TIP3   OH237462   6.639   4.445  16.253  1.1755 -0.1925 -0.1127
 5324TIP3    H137463   6.697   4.413  16.185  2.1773  2.3871 -0.6137
 5324TIP3    H237464   6.696   4.492  16.314  0.0951 -1.0866  1.6721
 5325TIP3   OH237465   1.239   4.367  15.208 -0.2201 -0.4256 -0.0224
 5325TIP3    H137466   1.184   4.339  15.281  1.8253 -2.3285  0.9112
 5325TIP3    H237467   1.327   4.339  15.233  0.9489  1.0679 -2.1498
 5326TIP3   OH237468   1.987   2.541   3.159 -0.5488 -0.3484 -0.0700
 5326TIP3    H137469   2.031   2.586   3.087  1.1423  0.4012  1.3540
 5326TIP3    H237470   2.053   2.537   3.228 -1.9868 -1.3915  1.3012
 5327TIP3   OH237471   5.188   2.124   3.712 -0.1871  0.0904  0.4926
 5327TIP3    H137472   5.261   2.115   3.773 -0.8742 -0.4581  1.2543
 5327TIP3    H237473   5.111   2.102   3.764 -0.8627  0.3652 -0.3807
 5328TIP3   OH237474   0.454   6.213   0.004  0.3265 -0.6003 -0.0706
 5328TIP3    H137475   0.483   6.278   0.069  3.0249 -0.0371 -1.7032
 5328TIP3    H237476   0.527   6.206  -0.057 -1.6656 -1.9463 -2.4510
 5329TIP3   OH237477   6.683   4.304  11.650  0.3247 -0.3015  0.3522
 5329TIP3    H137478   6.737   4.228  11.670 -0.0974 -0.2949  1.5825
 5329TIP3    H237479   6.704   4.325  11.559 -0.5938 -2.7450 -0.5031
 5330TIP3   OH237480   5.898   6.315   0.491  0.0515 -0.3149 -0.6839
 5330TIP3    H137481   5.915   6.389   0.432  0.1424 -0.6341 -1.0600
 5330TIP3    H237482   5.826   6.346   0.547  0.3298  0.1920 -0.5943
 5331TIP3   OH237483   4.202   3.556  15.384 -0.1949 -0.0825  0.1073
 5331TIP3    H137484   4.264   3.510  15.328 -1.2828 -1.9343  0.3081
 5331TIP3    H237485   4.256   3.612  15.440  1.4590 -2.4937  1.1008
 5332TIP3   OH237486   1.093   5.298  11.579  0.7163  0.1934  0.5672
 5332TIP3    H137487   1.085   5.234  11.649 -0.2177  0.9239  1.1576
 5332TIP3    H237488   1.078   5.382  11.622  2.0132  0.8276 -0.1648
 5333TIP3   OH237489   0.661   3.597  12.199 -0.1273  0.9949  0.1118
 5333TIP3    H137490   0.722   3.561  12.135  0.4359  1.7240  0.2317
 5333TIP3    H237491   0.714   3.657  12.252 -1.0903  2.1806 -0.2248
 5334TIP3   OH237492   3.687   5.634  10.435 -0.4043 -0.7183  0.3286
 5334TIP3    H137493   3.640   5.566  10.387  0.9382  1.2594 -4.4295
 5334TIP3    H237494   3.741   5.587  10.498 -2.2939 -3.6800 -0.1064
 5335TIP3   OH237495   6.263   4.677  16.498  0.5564 -0.3960  0.0448
 5335TIP3    H137496   6.225   4.740  16.437  0.6146 -0.6680 -0.2763
 5335TIP3    H237497   6.353   4.667  16.469  0.8226  0.0987  0.6853
 5336TIP3   OH237498   5.146   5.145  11.359 -0.6142 -0.1195 -0.7253
 5336TIP3    H137499   5.053   5.148  11.382 -0.6183  2.0458 -0.7932
 5336TIP3    H237500   5.191   5.186  11.434 -0.0248  1.3934 -1.8584
 5337TIP3   OH237501   5.277   0.032   2.670 -0.1575 -0.1628  0.6276
 5337TIP3    H137502   5.271   0.120   2.633 -0.7568 -0.4385  0.0285
 5337TIP3    H237503   5.198  -0.013   2.637  0.6720 -1.2408  0.0556
 5338TIP3   OH237504   1.365   2.909  11.782  0.6429  0.0696  0.1909
 5338TIP3    H137505   1.302   2.981  11.775  2.4976  1.9041  1.1391
 5338TIP3    H237506   1.425   2.922  11.708  0.5458 -1.0056 -0.0917
 5339TIP3   OH237507   3.469   3.880   6.182 -0.0009  0.1057 -0.5510
 5339TIP3    H137508   3.523   3.832   6.119  1.0833 -1.4261  1.4171
 5339TIP3    H237509   3.508   3.967   6.186  1.4226 -0.5224 -0.2803
 5340TIP3   OH237510   4.753   4.156   3.153 -0.9045  0.3803  0.4050
 5340TIP3    H137511   4.728   4.071   3.118 -1.5684  0.0168  1.7224
 5340TIP3    H237512   4.817   4.189   3.090  0.3048 -1.6321  0.4835
 5341TIP3   OH237513   0.706   2.340   4.934  0.0272 -0.5596  0.7654
 5341TIP3    H137514   0.757   2.396   4.875 -1.3350  0.6806  0.7280
 5341TIP3    H237515   0.692   2.393   5.012 -1.5560 -0.6922  0.6013
 5342TIP3   OH237516   1.905   0.626   1.810  0.0920  0.4807 -0.1236
 5342TIP3    H137517   1.890   0.611   1.903  1.1082  0.2395  0.0131
 5342TIP3    H237518   1.855   0.556   1.767  1.0041 -0.4671  0.3179
 5343TIP3   OH237519   0.311   4.274   1.643  0.4768 -0.2618 -0.3151
 5343TIP3    H137520   0.217   4.260   1.627  0.2142  0.9232  0.0850
 5343TIP3    H237521   0.337   4.336   1.574  0.3096  1.5354  1.1388
 5344TIP3   OH237522   0.185   0.687   1.887  0.2335 -0.2230  0.5566
 5344TIP3    H137523   0.095   0.655   1.887  0.3456 -0.5468  0.7600
 5344TIP3    H237524   0.210   0.690   1.795  0.2654 -0.8566  0.5424
 5345TIP3   OH237525   6.069   6.402   3.992  0.0431 -0.7898  0.2063
 5345TIP3    H137526   6.136   6.470   4.000 -0.0231 -0.7903  0.7946
 5345TIP3    H237527   6.048   6.400   3.899  1.7776 -1.6739 -0.1953
 5346TIP3   OH237528   1.685   0.607   0.216 -0.2188 -0.2045  0.1921
 5346TIP3    H137529   1.612   0.590   0.158 -0.7924 -1.1915  1.1681
 5346TIP3    H237530   1.646   0.648   0.293  0.3901  0.1680  0.3093
 5347TIP3   OH237531   2.978   6.731  13.196 -0.9481 -0.6665  0.1745
 5347TIP3    H137532   2.951   6.805  13.142  0.7352 -1.7447 -2.3492
 5347TIP3    H237533   2.995   6.769  13.282 -2.1026  1.4707 -0.4638
 5348TIP3   OH237534   5.443   4.682  11.601  0.4541 -0.8023 -0.4842
 5348TIP3    H137535   5.476   4.671  11.512 -1.6864  1.2622 -1.6782
 5348TIP3    H237536   5.432   4.777  11.610 -1.0245 -1.0854  1.3102
 5349TIP3   OH237537   1.882   4.399  14.929  0.0040  0.5838 -0.5211
 5349TIP3    H137538   1.790   4.422  14.943 -0.2682 -0.8634  0.2549
 5349TIP3    H237539   1.882   4.304  14.920  1.3152  0.6487 -1.5339
 5350TIP3   OH237540   3.118   1.759  14.353 -0.2728 -0.4549 -0.1633
 5350TIP3    H137541   3.159   1.749  14.440 -0.4304 -0.7712 -0.1243
 5350TIP3    H237542   3.163   1.695  14.298 -2.9388 -3.2772  0.6672
 5351TIP3   OH237543   2.977   5.827   0.562  0.3596  0.5536 -0.1594
 5351TIP3    H137544   3.067   5.814   0.531  0.6608 -0.0511  0.9175
 5351TIP3    H237545   2.975   5.785   0.647 -1.0292  0.3471 -0.2772
 5352TIP3   OH237546   0.045   3.460   1.065 -0.0820  0.3022 -0.1753
 5352TIP3    H137547   0.131   3.420   1.076  0.2313  1.2353  0.9648
 5352TIP3    H237548   0.006   3.457   1.152 -0.8966  0.6022 -0.5206
 5353TIP3   OH237549   0.370   2.271   0.913 -0.1826 -0.3000 -0.3003
 5353TIP3    H137550   0.454   2.289   0.955 -0.8238  0.8252  0.5512
 5353TIP3    H237551   0.393   2.221   0.835  1.3623  0.7891 -0.5879
 5354TIP3   OH237552   0.474   6.775  15.774 -0.1005 -0.2933 -0.6378
 5354TIP3    H137553   0.498   6.703  15.716 -0.0223 -0.3029 -0.5948
 5354TIP3    H237554   0.524   6.850  15.742 -1.1060  0.0676 -1.4540
 5355TIP3   OH237555   4.579   4.310   0.587  0.1679 -0.0526  0.3206
 5355TIP3    H137556   4.523   4.385   0.605 -0.6217 -0.8478  1.2970
 5355TIP3    H237557   4.524   4.234   0.604  1.5413 -0.8623  1.4445
 5356TIP3   OH237558   0.262   4.895  16.174  0.3720  0.0878  0.1817
 5356TIP3    H137559   0.282   4.970  16.118 -0.7325  0.4492  0.2415
 5356TIP3    H237560   0.200   4.929  16.239 -1.3597 -1.1948 -0.7133
 5357TIP3   OH237561   0.010   0.894  14.227 -0.6611 -0.1075  0.4677
 5357TIP3    H137562  -0.045   0.949  14.282 -1.6799 -1.8657  1.2840
 5357TIP3    H237563   0.085   0.871  14.283 -0.0549  0.7134  0.0082
 5358TIP3   OH237564   4.667   0.360  15.334 -0.6907 -0.6573 -0.3113
 5358TIP3    H137565   4.689   0.310  15.255 -1.6291 -1.0496 -0.3288
 5358TIP3    H237566   4.641   0.446  15.302 -1.5645 -0.9778 -0.4700
 5359TIP3   OH237567   1.113   3.018  12.125  0.0036  0.0016  0.4375
 5359TIP3    H137568   1.203   3.039  12.148 -0.0593 -1.4781  2.2320
 5359TIP3    H237569   1.120   2.938  12.073 -0.3554 -1.7298  2.8922
 5360TIP3   OH237570   2.302   3.829   2.670 -0.4400 -0.1407  0.3883
 5360TIP3    H137571   2.378   3.837   2.612 -0.1310  0.1758  0.8283
 5360TIP3    H237572   2.307   3.906   2.726 -0.0743 -0.9997  1.5875
 5361TIP3   OH237573   4.630   4.935  13.481  0.0113 -0.1436  0.4253
 5361TIP3    H137574   4.711   4.971  13.443 -0.0261  0.1574  0.6289
 5361TIP3    H237575   4.650   4.843  13.496 -0.2690 -0.5012 -1.1791
 5362TIP3   OH237576   2.540   4.953   2.045  0.0056  0.5481 -0.4864
 5362TIP3    H137577   2.537   4.931   2.138  0.0837 -0.9551 -0.8130
 5362TIP3    H237578   2.617   5.009   2.036  1.1118 -0.8369  0.0693
 5363TIP3   OH237579   6.195   4.492  15.427 -0.2133  0.1720  0.0346
 5363TIP3    H137580   6.123   4.551  15.401 -1.4263 -0.7535  1.1792
 5363TIP3    H237581   6.177   4.411  15.380  2.5041  1.1463 -3.0630
 5364TIP3   OH237582   0.836   5.137   2.571 -0.4245  0.1852 -0.2463
 5364TIP3    H137583   0.863   5.179   2.653  0.7570  1.5113 -1.2603
 5364TIP3    H237584   0.740   5.136   2.574 -0.4660  2.1809  0.2406
 5365TIP3   OH237585   5.544   3.237   5.818  0.6503 -0.2043 -0.2263
 5365TIP3    H137586   5.498   3.208   5.896 -2.8021  0.4513 -1.8257
 5365TIP3    H237587   5.584   3.157   5.783  1.9072 -0.5777  1.8773
 5366TIP3   OH237588   0.414   3.071   5.476  0.6180  0.2888 -0.0548
 5366TIP3    H137589   0.336   3.086   5.530  1.8210  1.0015  1.5483
 5366TIP3    H237590   0.385   3.093   5.387 -1.0720  0.2800  0.4519
 5367TIP3   OH237591   4.865   0.333   2.864 -0.2278 -0.0996 -0.2149
 5367TIP3    H137592   4.950   0.289   2.875 -0.5448 -0.2931  1.9628
 5367TIP3    H237593   4.802   0.262   2.859 -0.4255  0.0748 -0.2004
 5368TIP3   OH237594   0.631   2.316  12.944 -0.0852  0.1422 -0.4518
 5368TIP3    H137595   0.718   2.275  12.951 -0.2508 -0.2952 -0.9023
 5368TIP3    H237596   0.644   2.405  12.976  0.2596 -0.2930  0.6737
 5369TIP3   OH237597   0.784   3.041   2.952  0.6412 -0.0039  0.2084
 5369TIP3    H137598   0.849   2.971   2.955  0.9857  0.2638 -0.6066
 5369TIP3    H237599   0.700   2.996   2.944  0.6776 -0.3629  1.5963
 5370TIP3   OH237600   6.667   3.974   6.041 -0.3704 -0.2016  0.1777
 5370TIP3    H137601   6.745   4.004   5.994  0.6888 -1.3188  1.1507
 5370TIP3    H237602   6.701   3.940   6.124 -1.8026 -1.4428  0.3004
 5371TIP3   OH237603   0.971   2.048   1.365  0.3739 -0.5036 -0.3322
 5371TIP3    H137604   1.029   2.031   1.291 -0.9421  1.2100 -1.8598
 5371TIP3    H237605   0.912   1.973   1.368  1.1213 -1.0971 -0.3109
 5372TIP3   OH237606   2.642   0.509   1.232 -0.7545 -0.4835  0.0065
 5372TIP3    H137607   2.670   0.453   1.304 -2.3284 -2.8685 -1.0910
 5372TIP3    H237608   2.646   0.453   1.155 -2.2680  0.9645 -1.2106
 5373TIP3   OH237609   1.376   1.039  14.564  0.6127  0.1945 -1.1169
 5373TIP3    H137610   1.427   1.107  14.520  1.5298  0.0296 -0.3430
 5373TIP3    H237611   1.426   0.959  14.551  0.7105  0.0759 -0.1137
 5374TIP3   OH237612   5.085   3.168  17.071 -0.1869 -0.1069 -0.4732
 5374TIP3    H137613   5.058   3.239  17.130 -0.5341  0.2927 -1.0933
 5374TIP3    H237614   5.161   3.128  17.113 -0.6814 -0.1023  0.4478
 5375TIP3   OH237615   2.426   1.324  11.837 -0.1175  0.0074  0.7836
 5375TIP3    H137616   2.368   1.396  11.813 -0.3597 -0.5791 -0.4745
 5375TIP3    H237617   2.469   1.299  11.755  2.5677  0.9502  1.7726
 5376TIP3   OH237618   3.121   6.099  13.020 -0.1584  0.8213 -0.0401
 5376TIP3    H137619   3.103   6.114  12.928 -1.2850  2.5257  0.3999
 5376TIP3    H237620   3.052   6.147  13.066 -1.0825 -1.9660  1.6951
 5377TIP3   OH237621   1.497   2.613  13.092 -0.2092 -0.0263  0.0999
 5377TIP3    H137622   1.438   2.642  13.023 -0.8835 -0.2888  0.5568
 5377TIP3    H237623   1.503   2.518  13.080  0.3746  0.0299 -0.1300
 5378TIP3   OH237624   5.753   1.816  13.138  0.2334 -1.5688  1.3071
 5378TIP3    H137625   5.760   1.894  13.083  1.1794  0.5113  4.1646
 5378TIP3    H237626   5.698   1.756  13.087  1.8434 -0.2813 -2.3112
 5379TIP3   OH237627   5.392   5.855  15.241  0.4912 -0.7609  0.0429
 5379TIP3    H137628   5.317   5.809  15.206 -0.5621 -2.1203  3.5937
 5379TIP3    H237629   5.467   5.821  15.192 -0.8065 -2.4221 -0.8711
 5380TIP3   OH237630   0.609   2.167   3.508 -0.3366 -0.1181 -0.5604
 5380TIP3    H137631   0.624   2.228   3.436 -1.5005  1.5212  0.4877
 5380TIP3    H237632   0.640   2.215   3.586 -0.4746 -1.2263  0.1997
 5381TIP3   OH237633   4.627   0.400  11.770 -0.7916 -0.1668  0.6897
 5381TIP3    H137634   4.722   0.389  11.761 -0.7038  1.3344 -0.7815
 5381TIP3    H237635   4.617   0.454  11.848 -0.2524  1.3019 -0.2089
 5382TIP3   OH237636   2.178   4.464   1.911 -0.0325 -0.0147 -0.6020
 5382TIP3    H137637   2.136   4.410   1.978 -0.9899  0.5157 -0.7467
 5382TIP3    H237638   2.207   4.401   1.845 -1.3984 -0.3563 -0.9115
 5383TIP3   OH237639   0.174   3.988   0.649 -0.4390 -0.4954 -0.6820
 5383TIP3    H137640   0.219   4.019   0.728  1.0186  0.0413 -1.6725
 5383TIP3    H237641   0.106   3.929   0.682  0.5962 -0.8686  0.9478
 5384TIP3   OH237642   5.790   6.573   3.721  0.5485  0.5327  0.1413
 5384TIP3    H137643   5.859   6.546   3.660 -1.0506 -0.8468 -1.1169
 5384TIP3    H237644   5.732   6.628   3.669  0.3278  1.1724  1.0369
 5385TIP3   OH237645   4.850   5.956   4.725  0.3734 -0.1834 -0.1439
 5385TIP3    H137646   4.865   5.950   4.631 -0.1730  0.2041 -0.2590
 5385TIP3    H237647   4.937   5.944   4.764  0.3363 -2.5168 -0.5969
 5386TIP3   OH237648   2.727   4.892  16.923  0.2361 -0.0893 -0.1557
 5386TIP3    H137649   2.670   4.824  16.885  2.8483 -2.1445 -0.7489
 5386TIP3    H237650   2.760   4.940  16.847  2.1397 -1.4047 -0.2268
 5387TIP3   OH237651   3.991   1.648  13.267  0.0678  0.6061  0.0583
 5387TIP3    H137652   3.951   1.636  13.181 -0.4870  1.6732  0.1478
 5387TIP3    H237653   4.066   1.705  13.249  0.0846  0.6423  0.2498
 5388TIP3   OH237654   0.315   1.084   1.458 -0.7156 -0.1884 -0.3629
 5388TIP3    H137655   0.360   1.036   1.528  0.2081 -0.7211 -1.2938
 5388TIP3    H237656   0.305   1.173   1.493  1.4363  0.0663 -0.2279
 5389TIP3   OH237657   2.590   5.851   5.668  0.2714 -0.0399 -0.4013
 5389TIP3    H137658   2.507   5.898   5.683 -0.7253 -0.8640 -2.8169
 5389TIP3    H237659   2.585   5.775   5.725 -1.1112 -0.5641 -1.1684
 5390TIP3   OH237660   5.154   2.610  17.010  0.8714 -0.2752  0.2088
 5390TIP3    H137661   5.250   2.612  17.012  0.8982 -1.2825  0.4333
 5390TIP3    H237662   5.128   2.702  17.018  1.7975 -0.0830  1.2405
 5391TIP3   OH237663   1.286   2.114   3.681  0.0920 -0.4393 -0.4680
 5391TIP3    H137664   1.317   2.107   3.591  0.2459  0.7291 -0.5135
 5391TIP3    H237665   1.210   2.056   3.685  0.2692 -0.7309 -1.2658
 5392TIP3   OH237666   4.515   3.329   3.918 -0.3472  0.0045 -0.5868
 5392TIP3    H137667   4.541   3.237   3.928 -0.8378  0.0677  1.8213
 5392TIP3    H237668   4.451   3.328   3.847 -0.8448 -1.6336 -0.1538
 5393TIP3   OH237669   4.402   0.820   2.315  0.3028  0.8219 -0.2599
 5393TIP3    H137670   4.482   0.844   2.361  0.0488 -0.6720  1.0322
 5393TIP3    H237671   4.429   0.751   2.255 -0.1655 -0.3937  0.8931
 5394TIP3   OH237672   2.655   0.532   0.418  0.3269  0.1189  0.7069
 5394TIP3    H137673   2.623   0.591   0.349  0.3491 -1.1128 -0.4001
 5394TIP3    H237674   2.698   0.590   0.481  2.5663  1.1323 -1.5714
 5395TIP3   OH237675   2.134   6.367   0.504  0.1673  0.1385 -0.0960
 5395TIP3    H137676   2.197   6.310   0.549 -1.4899  0.7777  3.3297
 5395TIP3    H237677   2.148   6.453   0.543  0.5045  1.4888 -2.9424
 5396TIP3   OH237678   1.848   0.195  13.901 -0.2674 -0.2112 -0.4028
 5396TIP3    H137679   1.789   0.180  13.976  0.1337  0.5442  0.0816
 5396TIP3    H237680   1.936   0.183  13.938 -0.1004 -1.7259 -1.2132
 5397TIP3   OH237681   4.505   1.689  12.348 -0.4911  0.2652 -0.3437
 5397TIP3    H137682   4.421   1.661  12.311 -0.3932  1.0110 -1.1418
 5397TIP3    H237683   4.536   1.611  12.394 -1.3882 -0.1773 -0.4425
 5398TIP3   OH237684   3.767   2.592  13.155 -0.4994 -0.0039  0.9409
 5398TIP3    H137685   3.793   2.607  13.065 -2.3004  1.8441  0.6372
 5398TIP3    H237686   3.849   2.578  13.202  1.1100  4.3598 -0.0788
 5399TIP3   OH237687   4.235   6.392  17.202  0.5499 -0.4288  0.2778
 5399TIP3    H137688   4.329   6.409  17.192  0.8150 -1.8682  0.0406
 5399TIP3    H237689   4.193   6.476  17.183  1.8136  0.4239  1.1125
 5400TIP3   OH237690   2.619   5.488  16.170  0.0000 -0.0003  0.0820
 5400TIP3    H137691   2.684   5.507  16.238  0.1868 -0.3218 -0.0040
 5400TIP3    H237692   2.639   5.551  16.100 -0.2802  0.4231  0.3756
 5401TIP3   OH237693   1.197   3.330  12.156  0.4039  0.0328 -0.1271
 5401TIP3    H137694   1.247   3.249  12.156 -0.2858 -0.3941 -0.1844
 5401TIP3    H237695   1.240   3.384  12.089  0.0349 -0.7994 -1.0644
 5402TIP3   OH237696   4.406   5.554  11.661  0.5314 -0.2327  0.6394
 5402TIP3    H137697   4.362   5.624  11.709  1.4386  0.3246  0.6918
 5402TIP3    H237698   4.379   5.473  11.704 -1.9713 -0.1086 -0.5421
 5403TIP3   OH237699   3.061   3.703  16.247 -0.3958  0.5306 -0.2880
 5403TIP3    H137700   3.018   3.754  16.179 -0.2645  1.9131  0.6096
 5403TIP3    H237701   3.037   3.612  16.229 -0.8212  0.9274 -1.8186
 5404TIP3   OH237702   0.067   3.821   1.650 -0.2735 -0.3179 -0.2783
 5404TIP3    H137703   0.148   3.856   1.687 -0.2339 -1.3061  0.6109
 5404TIP3    H237704   0.066   3.853   1.560  1.6076 -1.0919 -0.6297
 5405TIP3   OH237705   3.262   1.677  14.901  0.7477  0.7308  0.4554
 5405TIP3    H137706   3.182   1.649  14.857 -0.5485  1.3256  2.2750
 5405TIP3    H237707   3.290   1.600  14.951  0.4295  0.9410  0.9769
 5406TIP3   OH237708   2.006   3.934   1.297 -0.1251  0.0511  0.1447
 5406TIP3    H137709   1.956   3.946   1.378 -0.7738  1.6533 -0.4551
 5406TIP3    H237710   1.950   3.879   1.243 -1.0212  1.3241 -0.2814
 5407TIP3   OH237711   3.849   4.320  12.789 -0.2176  0.2058  0.4039
 5407TIP3    H137712   3.879   4.411  12.793  0.1895  0.0042  2.5000
 5407TIP3    H237713   3.808   4.314  12.702  1.1303  1.9294 -0.4326
 5408TIP3   OH237714   6.139   1.550  15.503  0.0124  0.6322  0.5807
 5408TIP3    H137715   6.062   1.605  15.494 -0.4936  0.2663  2.2702
 5408TIP3    H237716   6.106   1.468  15.539  0.8327 -0.6045 -1.3292
 5409TIP3   OH237717   1.310   3.778   3.719 -0.0448 -0.3746 -0.2006
 5409TIP3    H137718   1.264   3.710   3.768 -0.1235 -0.4015 -0.3124
 5409TIP3    H237719   1.403   3.756   3.728  0.0030  0.1834  0.7783
 5410TIP3   OH237720   5.842   6.111   5.381 -0.5119 -0.1368  0.0262
 5410TIP3    H137721   5.780   6.180   5.354 -0.7731 -0.4794 -0.2650
 5410TIP3    H237722   5.788   6.032   5.386 -0.7292  0.0846  2.6305
 5411TIP3   OH237723   6.103   1.821   5.126 -0.3658 -0.0077  0.0434
 5411TIP3    H137724   6.119   1.752   5.063 -1.0642 -0.4849  0.3786
 5411TIP3    H237725   6.157   1.894   5.096 -0.1250 -0.4763 -0.6800
 5412TIP3   OH237726   5.467   2.273  14.121 -0.0957 -0.1330  0.4846
 5412TIP3    H137727   5.518   2.312  14.192 -1.1949 -0.9346  1.7371
 5412TIP3    H237728   5.496   2.183  14.116 -0.1087 -0.1143 -0.0149
 5413TIP3   OH237729   5.029   3.271   2.652 -0.7254 -0.2072  0.2487
 5413TIP3    H137730   5.069   3.207   2.711  0.4886  0.0231 -0.3091
 5413TIP3    H237731   4.953   3.304   2.701  0.1138 -0.1879  1.5873
 5414TIP3   OH237732   0.625   4.041   5.261  0.0283 -0.0159  0.1293
 5414TIP3    H137733   0.642   3.972   5.197 -0.9146 -0.4499  0.3216
 5414TIP3    H237734   0.623   4.122   5.210 -1.5292 -0.4487 -0.5485
 5415TIP3   OH237735   5.429   5.874   5.773 -0.5451 -0.0381 -0.5298
 5415TIP3    H137736   5.494   5.888   5.704 -0.8276 -0.1585 -0.8285
 5415TIP3    H237737   5.439   5.783   5.798 -2.4958 -0.9234 -2.6087
 5416TIP3   OH237738   4.803   2.960   6.456 -0.1700  0.1829 -0.1936
 5416TIP3    H137739   4.747   3.014   6.512  1.4406  1.0548  0.6146
 5416TIP3    H237740   4.784   2.870   6.483 -1.0747  0.4588  0.1444
 5417TIP3   OH237741   5.480   2.070   1.147  0.1957  0.1587  0.2405
 5417TIP3    H137742   5.556   2.055   1.091 -0.3657 -0.1773 -0.4428
 5417TIP3    H237743   5.405   2.040   1.096 -0.3057 -0.4245  1.2813
 5418TIP3   OH237744   0.343   1.797   5.443 -0.0695  0.7269  0.0051
 5418TIP3    H137745   0.339   1.837   5.356  0.0414 -0.9900 -0.8114
 5418TIP3    H237746   0.272   1.733   5.444 -1.1404  1.8193  1.8042
 5419TIP3   OH237747   3.840   6.123  11.969  0.0830  0.1294 -0.7607
 5419TIP3    H137748   3.815   6.032  11.956  0.6681 -0.1275 -0.1202
 5419TIP3    H237749   3.781   6.172  11.912  0.0730 -0.6809 -1.4723
 5420TIP3   OH237750   5.487   0.666  14.353  0.7664 -0.6542  0.5354
 5420TIP3    H137751   5.497   0.758  14.329  2.0750 -0.7840  0.5247
 5420TIP3    H237752   5.410   0.664  14.410  1.4903  0.6402  1.5976
 5421TIP3   OH237753   4.228   3.466  11.040  0.0518  0.3821 -0.3540
 5421TIP3    H137754   4.271   3.442  10.957 -1.4592  2.0058 -1.6917
 5421TIP3    H237755   4.196   3.383  11.074  2.8144 -0.6822 -0.0648
 5422TIP3   OH237756   4.704   4.976   1.093 -0.1305  0.3435 -0.1917
 5422TIP3    H137757   4.660   4.909   1.040  0.7668 -1.0991  0.8228
 5422TIP3    H237758   4.751   5.029   1.029 -1.1734  0.2702 -1.0580
 5423TIP3   OH237759   2.482   1.945   3.407  0.2142  0.3207  0.0026
 5423TIP3    H137760   2.470   2.014   3.473  0.7166  1.2175 -0.8246
 5423TIP3    H237761   2.422   1.969   3.337  1.7013  0.9567 -1.0961
 5424TIP3   OH237762   3.777   0.498   2.423  0.3044  0.2201 -0.3437
 5424TIP3    H137763   3.714   0.542   2.365  0.8223 -0.2594 -1.2881
 5424TIP3    H237764   3.753   0.528   2.511 -1.0200  0.3251 -0.7130
 5425TIP3   OH237765   4.796   1.567  13.306 -0.6546 -0.1022 -0.0472
 5425TIP3    H137766   4.754   1.481  13.296  1.4064 -1.1378 -0.2756
 5425TIP3    H237767   4.848   1.560  13.385  0.3093  0.6082 -0.5966
 5426TIP3   OH237768   2.909   2.707  13.298  0.3088  0.5691 -0.1806
 5426TIP3    H137769   2.905   2.622  13.343  1.8174  0.5835  0.0383
 5426TIP3    H237770   2.900   2.771  13.369  0.7465  0.5935 -0.1488
 5427TIP3   OH237771   4.599   3.582  15.116 -0.0179  0.2736  0.5988
 5427TIP3    H137772   4.596   3.575  15.020 -2.4832  0.4809  0.5926
 5427TIP3    H237773   4.644   3.665  15.133 -0.8778  0.9778 -0.4499
 5428TIP3   OH237774   4.673   1.718   2.540 -0.1716  0.6783 -0.1828
 5428TIP3    H137775   4.596   1.772   2.559 -0.1172  0.0198  2.1987
 5428TIP3    H237776   4.650   1.672   2.459 -2.3530  0.4234  0.5101
 5429TIP3   OH237777   1.512   6.659   2.242  0.0767 -0.1277  0.0066
 5429TIP3    H137778   1.462   6.706   2.176  0.2279  1.2125  0.8034
 5429TIP3    H237779   1.455   6.660   2.320  0.0976 -1.2532  0.0534
 5430TIP3   OH237780   3.202   4.213  15.059  0.8217 -0.0768  0.2606
 5430TIP3    H137781   3.223   4.282  15.122 -1.9638 -0.6572  2.0117
 5430TIP3    H237782   3.271   4.147  15.072  2.1133  1.2297  0.3315
 5431TIP3   OH237783   4.552   0.209  11.997 -0.6118  0.0684  0.8964
 5431TIP3    H137784   4.576   0.190  11.906 -0.1615  1.4491  0.7138
 5431TIP3    H237785   4.480   0.148  12.015 -1.1500  0.2146 -0.5984
 5432TIP3   OH237786   3.615   5.328  13.765  0.0470 -0.7384 -0.1837
 5432TIP3    H137787   3.710   5.317  13.761  0.0189 -0.5544 -1.8307
 5432TIP3    H237788   3.593   5.379  13.687 -1.3803 -0.5192  0.3309
 5433TIP3   OH237789   3.405   3.421  14.878  0.0896 -0.1372  0.0187
 5433TIP3    H137790   3.494   3.422  14.842 -0.3460 -0.7496 -1.1141
 5433TIP3    H237791   3.348   3.420  14.801 -0.9748  2.3275  0.6756
 5434TIP3   OH237792   6.368   3.112   1.023  0.1759  0.1433 -0.0233
 5434TIP3    H137793   6.313   3.188   1.005  0.1350 -0.2346 -1.6225
 5434TIP3    H237794   6.453   3.134   0.985 -0.2244 -1.1297 -1.7819
 5435TIP3   OH237795   3.483   1.639  12.483 -0.1220 -0.4326  0.4735
 5435TIP3    H137796   3.482   1.734  12.470  0.6270 -0.1911  2.0235
 5435TIP3    H237797   3.561   1.609  12.435 -0.8183 -0.4081 -0.7216
 5436TIP3   OH237798   3.230   5.969  12.541  0.2259  0.0980  0.3713
 5436TIP3    H137799   3.185   5.910  12.601 -0.5885  0.6382  0.3174
 5436TIP3    H237800   3.165   5.986  12.472  0.6926  0.5112  0.0304
 5437TIP3   OH237801   0.395   3.382  14.907  0.4341 -0.1252  0.3945
 5437TIP3    H137802   0.426   3.317  14.845  3.5294 -0.8704  2.4919
 5437TIP3    H237803   0.370   3.332  14.984 -2.3402  0.8484  0.2508
 5438TIP3   OH237804   1.125   6.726   0.767  0.2665  0.5380  0.0303
 5438TIP3    H137805   1.062   6.794   0.794 -0.8963 -0.3454 -0.3802
 5438TIP3    H237806   1.073   6.663   0.717  1.4711 -0.2817 -0.2411
 5439TIP3   OH237807   6.633   0.478  17.078  0.4276  0.1322 -0.4869
 5439TIP3    H137808   6.573   0.538  17.121  0.5042 -0.3902  0.3877
 5439TIP3    H237809   6.705   0.468  17.140 -0.2054 -1.8692 -0.0031
 5440TIP3   OH237810   4.005   0.499  12.906  0.3450 -0.0528  0.3506
 5440TIP3    H137811   3.910   0.502  12.903  0.3621  2.6136 -0.3177
 5440TIP3    H237812   4.027   0.516  12.998  0.2455 -3.2899  1.0767
 5441TIP3   OH237813   2.073   3.983  13.795 -0.1620  0.2385 -0.0207
 5441TIP3    H137814   2.063   3.891  13.820 -0.6663  0.4794  0.7128
 5441TIP3    H237815   2.147   3.984  13.735 -0.8037 -0.7947 -0.8619
 5442TIP3   OH237816   3.542   0.632  14.919  0.5998 -0.2483  0.2991
 5442TIP3    H137817   3.627   0.638  14.962  1.5954 -2.0543 -1.2645
 5442TIP3    H237818   3.551   0.559  14.857 -2.1526 -0.6219  0.2087
 5443TIP3   OH237819   6.251   0.123   4.118 -0.6667 -0.4134 -0.0017
 5443TIP3    H137820   6.321   0.188   4.120 -0.6548 -0.3749 -1.1470
 5443TIP3    H237821   6.172   0.173   4.138 -0.6012 -0.1050 -0.4844
 5444TIP3   OH237822   2.144   5.895  17.076  0.5949 -0.1650 -0.2887
 5444TIP3    H137823   2.221   5.868  17.026 -1.5821 -2.2246 -2.8322
 5444TIP3    H237824   2.163   5.869  17.166  2.9180 -0.4232 -0.7997
 5445TIP3   OH237825   3.592   2.897   2.402  0.0598 -0.6632  0.5399
 5445TIP3    H137826   3.601   2.807   2.373 -2.1070 -0.6387 -0.4236
 5445TIP3    H237827   3.498   2.907   2.418  0.4693  0.9484  2.2611
 5446TIP3   OH237828   4.286   2.109   6.178  0.0624  0.0863  0.3089
 5446TIP3    H137829   4.343   2.037   6.154 -1.5905 -0.8816 -0.9828
 5446TIP3    H237830   4.344   2.174   6.219  1.9342 -1.0696 -0.3910
 5447TIP3   OH237831   4.103   2.090  12.477  0.6466 -0.4233 -0.2608
 5447TIP3    H137832   4.031   2.153  12.481 -0.0229 -1.1779 -0.3337
 5447TIP3    H237833   4.171   2.135  12.426  0.5146  0.5629  0.4058
 5448TIP3   OH237834   6.638   0.166  12.448  0.1196  0.1178  0.1798
 5448TIP3    H137835   6.627   0.118  12.366  0.9740  1.5911 -0.8382
 5448TIP3    H237836   6.554   0.156  12.492 -0.3725 -0.6871 -0.8839
 5449TIP3   OH237837   3.887   5.984   5.556 -0.4136 -0.3822 -0.2473
 5449TIP3    H137838   3.811   5.929   5.540 -1.8478  0.1278  3.7641
 5449TIP3    H237839   3.867   6.067   5.512 -2.3765 -0.1551  0.9813
 5450TIP3   OH237840   3.678   1.039  17.101  0.1638  0.1899  0.6931
 5450TIP3    H137841   3.669   1.012  17.009  1.1322  0.0343  0.6360
 5450TIP3    H237842   3.589   1.032  17.136  0.1440 -1.9987  0.3899
 5451TIP3   OH237843   4.310   4.528  14.125 -0.5549  0.1818  0.0905
 5451TIP3    H137844   4.392   4.499  14.163 -0.6663 -0.4888 -0.1652
 5451TIP3    H237845   4.244   4.467  14.159 -0.7795  0.0789 -0.5119
 5452TIP3   OH237846   0.750   3.908   4.256 -0.3200  0.4072  0.5484
 5452TIP3    H137847   0.773   3.819   4.228 -0.8478  0.5200 -0.2972
 5452TIP3    H237848   0.657   3.915   4.236 -0.2757  1.1529  0.6055
 5453TIP3   OH237849   4.445   0.646   3.288 -0.2600  0.2546  0.2032
 5453TIP3    H137850   4.500   0.687   3.221 -2.5901  0.7780 -1.5125
 5453TIP3    H237851   4.506   0.594   3.340  1.5829 -1.2129 -3.0849
 5454TIP3   OH237852   6.771   1.534   6.371 -0.5413  0.1910 -0.0654
 5454TIP3    H137853   6.814   1.500   6.449  0.0625  0.1764 -0.3916
 5454TIP3    H237854   6.762   1.627   6.387 -1.4601  0.0155  0.4928
 5455TIP3   OH237855   5.577   4.670   0.877  0.3516  0.5009 -0.2235
 5455TIP3    H137856   5.587   4.609   0.950  2.0085 -1.1339 -1.7404
 5455TIP3    H237857   5.482   4.680   0.868  0.0107 -1.8572  0.0804
 5456TIP3   OH237858   1.769   0.787  16.832  0.1170 -0.3193  0.5660
 5456TIP3    H137859   1.784   0.880  16.850  0.4766 -0.2554 -0.0442
 5456TIP3    H237860   1.782   0.778  16.738  0.8108 -1.1220  0.7269
 5457TIP3   OH237861   0.201   1.723   3.792  0.0344 -0.0902 -0.6405
 5457TIP3    H137862   0.127   1.673   3.757  1.9332 -3.0284 -0.8319
 5457TIP3    H237863   0.242   1.665   3.856  2.4168  1.1826 -0.8683
 5458TIP3   OH237864   0.098   1.544   1.108 -0.2096 -0.4039  0.2872
 5458TIP3    H137865   0.071   1.560   1.018 -0.2726  1.4827  0.6051
 5458TIP3    H237866   0.030   1.585   1.161 -0.0753 -1.3247  1.2066
 5459TIP3   OH237867   5.449   0.121  10.747 -0.3384 -0.2321 -0.2708
 5459TIP3    H137868   5.406   0.141  10.664  1.2795 -1.0819 -1.3807
 5459TIP3    H237869   5.446   0.025  10.753  0.9286 -0.2837 -0.1456
 5460TIP3   OH237870   0.705   5.936  16.778  0.2177  0.1983  0.4165
 5460TIP3    H137871   0.688   5.952  16.686  0.0159  0.1748  0.4480
 5460TIP3    H237872   0.620   5.907  16.813  0.3637 -0.0764  0.5446
 5461TIP3   OH237873   5.270   6.714  12.713 -0.3565  0.4200  0.0041
 5461TIP3    H137874   5.245   6.624  12.732  0.3629  0.5961  2.1218
 5461TIP3    H237875   5.231   6.733  12.628 -1.3718 -1.5443 -0.0212
 5462TIP3   OH237876   0.198   5.836   5.463  0.0989 -0.3144  0.1317
 5462TIP3    H137877   0.172   5.744   5.456 -0.8411 -0.0382 -0.2294
 5462TIP3    H237878   0.166   5.876   5.382 -0.8549  0.6340  0.9301
 5463TIP3   OH237879   0.613   0.653  14.216 -0.3898 -0.1057 -0.4877
 5463TIP3    H137880   0.697   0.660  14.171  0.0990 -3.1214 -0.2500
 5463TIP3    H237881   0.635   0.648  14.309 -0.9703  0.5412 -0.3049
 5464TIP3   OH237882   1.867   3.266  13.924  0.1949 -0.7526  0.3824
 5464TIP3    H137883   1.827   3.255  14.009 -1.0835 -0.0254 -0.1006
 5464TIP3    H237884   1.952   3.308  13.942  0.1984 -1.1522  1.3187
 5465TIP3   OH237885   6.573   1.612   6.111 -0.3013 -0.0090 -0.4151
 5465TIP3    H137886   6.635   1.661   6.167  0.6582 -1.7793  0.1476
 5465TIP3    H237887   6.611   1.618   6.024  0.8460 -1.2527 -0.0426
 5466TIP3   OH237888   2.132   5.626   4.450  0.5759  0.2566 -0.4663
 5466TIP3    H137889   2.061   5.590   4.396  0.4863 -0.7828  0.3164
 5466TIP3    H237890   2.212   5.608   4.400  0.1954  4.1378 -2.8693
 5467TIP3   OH237891   3.476   5.796  12.516 -0.7453  0.2834 -0.6439
 5467TIP3    H137892   3.500   5.816  12.607  0.4098  0.9340 -1.0593
 5467TIP3    H237893   3.383   5.818  12.510 -1.3977 -1.6965  0.8846
 5468TIP3   OH237894   4.773   0.341   5.515 -0.3281  0.3104 -0.5731
 5468TIP3    H137895   4.732   0.406   5.572  0.2156 -0.9505  1.3395
 5468TIP3    H237896   4.736   0.257   5.542  2.2067 -0.6864  0.0917
 5469TIP3   OH237897   0.000   2.761   1.870  0.2216  0.1685  0.2497
 5469TIP3    H137898   0.062   2.833   1.862  0.2821 -0.0083 -1.0682
 5469TIP3    H237899  -0.071   2.796   1.923  1.1347  0.5695  1.2533
 5470TIP3   OH237900   1.879   3.339   0.270 -0.4191 -0.2279 -0.0647
 5470TIP3    H137901   1.840   3.300   0.192  1.4501 -1.5817 -0.3810
 5470TIP3    H237902   1.971   3.312   0.268  0.4849  2.3829  0.9004
 5471TIP3   OH237903   2.504   0.658  11.587  0.7039 -0.2485  0.1616
 5471TIP3    H137904   2.498   0.740  11.636 -1.3441 -0.9790  1.2363
 5471TIP3    H237905   2.413   0.629  11.578  1.4296 -2.9429  0.7540
 5472TIP3   OH237906   2.677   0.125   6.584 -0.3535 -0.1054  0.5120
 5472TIP3    H137907   2.671   0.207   6.536  1.0382  0.0105  0.5002
 5472TIP3    H237908   2.771   0.112   6.598 -0.5020 -1.9176  0.1150
 5473TIP3   OH237909   1.036   3.644  11.203 -0.2413  0.5974  0.0932
 5473TIP3    H137910   1.110   3.654  11.263 -0.1250  2.1592 -0.2832
 5473TIP3    H237911   0.959   3.654  11.259 -0.1370  1.5885  0.0777
 5474TIP3   OH237912   2.436   2.568  13.214 -0.3251 -0.0228 -0.4576
 5474TIP3    H137913   2.514   2.513  13.210 -1.1648 -1.2633 -0.2878
 5474TIP3    H237914   2.417   2.589  13.122  0.8064  1.2123 -0.4458
 5475TIP3   OH237915   2.230   6.602   2.638  0.7984  0.7021  0.1840
 5475TIP3    H137916   2.298   6.638   2.696  2.4149 -0.1427 -1.0906
 5475TIP3    H237917   2.276   6.536   2.586 -1.5165 -1.6470  0.8737
 5476TIP3   OH237918   4.218   1.487   2.510 -0.7889  0.4297 -0.1844
 5476TIP3    H137919   4.260   1.509   2.427  0.8310 -1.9228 -0.0743
 5476TIP3    H237920   4.124   1.499   2.493 -0.4242  1.1201 -1.9710
 5477TIP3   OH237921   6.329   5.702  15.058  0.1578  0.2782  0.0395
 5477TIP3    H137922   6.256   5.645  15.083  0.3095  0.6133  1.3273
 5477TIP3    H237923   6.299   5.790  15.079  0.1050  0.6552 -1.4995
 5478TIP3   OH237924   3.172   4.360  15.916  0.5389  0.4173 -0.4665
 5478TIP3    H137925   3.157   4.266  15.915  0.2683  0.4617 -0.9880
 5478TIP3    H237926   3.109   4.396  15.853 -0.0001  1.0518  0.4047
 5479TIP3   OH237927   1.556   0.923  15.064  0.0020 -0.0637  0.5232
 5479TIP3    H137928   1.609   1.002  15.068  0.7385 -0.2932 -2.2813
 5479TIP3    H237929   1.588   0.868  15.136  0.9055  1.3278  1.2205
 5480TIP3   OH237930   6.053   5.929  16.208 -0.0835 -0.8542 -0.1520
 5480TIP3    H137931   6.005   5.890  16.136 -2.6417  0.0426  0.9523
 5480TIP3    H237932   6.019   5.884  16.286  0.6199  0.0747  0.7104
 5481TIP3   OH237933   5.421   2.840   3.810  0.2253 -0.5504  0.2024
 5481TIP3    H137934   5.421   2.762   3.755 -0.2627  0.0959 -0.7262
 5481TIP3    H237935   5.424   2.913   3.749 -0.2331  0.1823  1.0363
 5482TIP3   OH237936   1.780   4.756   2.867  0.0193  0.0457  0.0561
 5482TIP3    H137937   1.775   4.661   2.851 -1.5455  0.2248 -0.7442
 5482TIP3    H237938   1.868   4.781   2.837  0.5282 -1.1694  0.4725
 5483TIP3   OH237939   4.072   5.236  10.609  0.1865 -0.3449 -0.0698
 5483TIP3    H137940   4.077   5.174  10.536  0.3456  0.5347 -0.8321
 5483TIP3    H237941   4.087   5.321  10.568  2.1002  0.0060  1.2615
 5484TIP3   OH237942   5.391   2.014   1.383 -0.4895 -0.0026  0.5507
 5484TIP3    H137943   5.458   1.982   1.443 -0.0209  0.7415  0.4279
 5484TIP3    H237944   5.436   2.024   1.299 -1.1933 -1.2630 -0.0156
 5485TIP3   OH237945   2.325   6.764  14.247  0.0854 -0.5654 -0.7041
 5485TIP3    H137946   2.352   6.734  14.160  0.1384  0.3517 -1.0147
 5485TIP3    H237947   2.330   6.686  14.301 -2.1183 -1.7017 -1.9869
 5486TIP3   OH237948   1.974   2.889   5.631  0.0768  0.5345  0.2971
 5486TIP3    H137949   1.903   2.879   5.695 -0.0397  0.2907  0.1305
 5486TIP3    H237950   1.943   2.957   5.571 -0.4750 -0.2906 -0.3865
 5487TIP3   OH237951   2.758   1.917   3.631 -0.4335 -0.1062 -0.4384
 5487TIP3    H137952   2.839   1.952   3.667 -0.9401  1.1654 -0.5019
 5487TIP3    H237953   2.770   1.822   3.635  0.8865  0.0496 -0.0767
 5488TIP3   OH237954   6.004   0.426   3.919  0.3286 -0.3744  0.0130
 5488TIP3    H137955   5.921   0.400   3.879 -0.9469 -0.2935  2.4100
 5488TIP3    H237956   5.992   0.408   4.012  2.5068  0.9682  0.6220
 5489TIP3   OH237957   1.196   5.084  10.774  0.2337 -0.4993 -1.0957
 5489TIP3    H137958   1.291   5.093  10.770  0.1367  2.3391  0.3070
 5489TIP3    H237959   1.181   5.020  10.843  1.1565 -0.1816 -0.5819
 5490TIP3   OH237960   1.977   5.236   3.873 -0.6094 -0.4130 -0.2014
 5490TIP3    H137961   1.987   5.162   3.814  1.0205  0.1472 -0.6837
 5490TIP3    H237962   2.063   5.247   3.913 -1.2267  0.2904  0.9894
 5491TIP3   OH237963   5.080   5.656   3.200 -0.1810  0.1574 -0.3367
 5491TIP3    H137964   5.148   5.717   3.227  0.4098  0.1732 -1.7439
 5491TIP3    H237965   4.999   5.708   3.199 -0.0073  0.4391  0.2278
 5492TIP3   OH237966   1.082   0.983  15.437 -0.1556  0.1740  0.5348
 5492TIP3    H137967   1.071   1.061  15.491  0.1770 -0.5077  1.6093
 5492TIP3    H237968   1.133   1.013  15.362 -0.2657  1.0484  0.7981
 5493TIP3   OH237969   0.424   3.868   2.320 -0.2819 -0.2714  0.6996
 5493TIP3    H137970   0.444   3.787   2.367  2.6315  0.3654  0.7397
 5493TIP3    H237971   0.434   3.936   2.386  0.2425  0.3478 -0.0083
 5494TIP3   OH237972   2.358   1.204   4.725 -0.4696  0.8022  0.3417
 5494TIP3    H137973   2.376   1.168   4.638  0.2407  2.3087 -0.1577
 5494TIP3    H237974   2.304   1.137   4.767 -2.3902  0.8025 -1.8915
 5495TIP3   OH237975   2.564   1.554   4.065  0.2555  0.6281 -0.0367
 5495TIP3    H137976   2.565   1.531   4.158  0.5941 -1.1404 -0.4476
 5495TIP3    H237977   2.475   1.586   4.050  0.1350  0.7508  0.8364
 5496TIP3   OH237978   3.029   6.670  12.838 -0.4695 -0.5418  0.2198
 5496TIP3    H137979   2.971   6.607  12.796 -0.4170  0.3951 -1.3256
 5496TIP3    H237980   2.974   6.712  12.905 -1.1303 -0.6949 -0.2228
 5497TIP3   OH237981   6.075   1.083   3.886 -0.1458 -0.1663 -0.1650
 5497TIP3    H137982   6.082   1.105   3.979 -3.1369 -4.0648  1.2386
 5497TIP3    H237983   6.166   1.087   3.854  1.0893  0.6862  3.0299
 5498TIP3   OH237984   4.991   6.269   3.394 -0.0414 -0.0306 -0.2326
 5498TIP3    H137985   5.059   6.326   3.430  0.8344 -0.8535 -0.5309
 5498TIP3    H237986   4.944   6.236   3.470  0.3965 -0.0589  0.0285
 5499TIP3   OH237987   6.285   1.758   4.143 -0.3568  0.1413  0.0831
 5499TIP3    H137988   6.253   1.677   4.103  0.2455 -0.0967  0.0690
 5499TIP3    H237989   6.258   1.827   4.082  0.5522 -0.2145 -0.7669
 5500TIP3   OH237990   1.128   4.154   2.643 -0.1828  0.1267 -0.0433
 5500TIP3    H137991   1.109   4.220   2.576  1.4597  0.3964 -0.2859
 5500TIP3    H237992   1.198   4.100   2.605  0.6809  0.1930  1.3832
 5501TIP3   OH237993   2.302   1.067  11.852  0.0366  0.2378 -0.1279
 5501TIP3    H137994   2.216   1.084  11.890  0.5049  0.8704  0.7088
 5501TIP3    H237995   2.351   1.148  11.868  0.4889  0.2461 -1.4525
 5502TIP3   OH237996   4.043   0.865  11.566 -0.0476 -0.1206  0.2014
 5502TIP3    H137997   3.965   0.851  11.620  0.8835 -0.4857  1.5003
 5502TIP3    H237998   4.050   0.960  11.558  0.3156 -0.0154  1.5364
 5503TIP3   OH237999   6.561   1.851   4.149 -0.3533 -0.2268 -0.2195
 5503TIP3    H138000   6.546   1.941   4.122  1.1832 -0.0836 -0.7212
 5503TIP3    H238001   6.474   1.814   4.161 -1.0642  0.7265 -2.0248
 5504TIP3   OH238002   5.158   6.048  14.092  0.2454 -0.3881  0.3207
 5504TIP3    H138003   5.191   6.137  14.083 -1.2367  0.0820 -1.0791
 5504TIP3    H238004   5.174   6.008  14.007 -0.9376 -0.7674  0.2529
 5505TIP3   OH238005   1.750   4.565   2.617 -0.5368  0.6694 -0.1625
 5505TIP3    H138006   1.727   4.582   2.526 -0.8970 -0.5930 -0.3294
 5505TIP3    H238007   1.820   4.500   2.612 -1.4708 -0.4088  0.4772
 5506TIP3   OH238008   4.698   4.143   2.833  0.2076 -0.0941 -0.5851
 5506TIP3    H138009   4.635   4.204   2.870  0.3767 -0.0409 -0.3809
 5506TIP3    H238010   4.645   4.071   2.799  0.0245  0.0462 -0.5970
 5507TIP3   OH238011   0.647   5.352  14.111  0.6925 -0.1955  0.0939
 5507TIP3    H138012   0.722   5.344  14.171  1.2261 -1.5406 -0.7053
 5507TIP3    H238013   0.676   5.417  14.046  1.5178 -1.2853 -0.6651
 5508TIP3   OH238014   3.901   4.789   4.500 -0.2174 -0.1286 -0.2493
 5508TIP3    H138015   3.919   4.740   4.420 -0.0396 -1.3311  0.4964
 5508TIP3    H238016   3.981   4.783   4.552 -0.8820 -0.8462  0.7449
 5509TIP3   OH238017   5.124   2.867   0.910 -0.1490 -0.1402  0.0871
 5509TIP3    H138018   5.199   2.919   0.880 -0.7041  1.0217  0.6143
 5509TIP3    H238019   5.136   2.860   1.005 -0.5051 -0.2601  0.1263
 5510TIP3   OH238020   3.603   2.805  16.500  0.6123 -0.1729 -0.1517
 5510TIP3    H138021   3.532   2.751  16.535 -1.2550  1.2748 -1.4484
 5510TIP3    H238022   3.609   2.879  16.561 -0.8494  1.0176 -1.3642
 5511TIP3   OH238023   0.285   5.246  12.027 -0.1126  0.5651 -0.0848
 5511TIP3    H138024   0.227   5.202  11.966 -1.8465  1.4577  0.8405
 5511TIP3    H238025   0.259   5.338  12.023  1.8526  1.1492 -0.2717
 5512TIP3   OH238026   3.191   1.546   5.338 -0.0734  0.1557 -0.1192
 5512TIP3    H138027   3.133   1.517   5.268  0.7557 -0.0210 -0.7431
 5512TIP3    H238028   3.157   1.632   5.363 -0.2045  0.3404 -0.9288
 5513TIP3   OH238029   3.340   1.323  10.845 -0.4170 -0.0523 -0.2582
 5513TIP3    H138030   3.256   1.276  10.842 -1.4786  1.6467  1.1961
 5513TIP3    H238031   3.372   1.320  10.755 -1.2049 -2.1549 -0.5232
 5514TIP3   OH238032   5.687   4.624   5.832 -0.2858  0.1555 -0.2301
 5514TIP3    H138033   5.750   4.555   5.853  0.2580  0.2404 -1.4644
 5514TIP3    H238034   5.652   4.599   5.746 -0.8281  0.8827 -0.2277
 5515TIP3   OH238035   5.768   3.311  15.878 -0.3632  0.2146 -0.1529
 5515TIP3    H138036   5.794   3.251  15.948 -2.0922 -0.8656 -0.3749
 5515TIP3    H238037   5.691   3.357  15.913  0.9363  2.4279  0.0366
 5516TIP3   OH238038   3.704   1.380   3.856  0.2049  0.0293 -0.5128
 5516TIP3    H138039   3.748   1.295   3.846  1.5957  0.6086  0.4422
 5516TIP3    H238040   3.773   1.440   3.883 -1.1087  1.0743  0.6751
 5517TIP3   OH238041   2.174   4.004  11.853 -0.1089  0.1865  0.2655
 5517TIP3    H138042   2.232   4.000  11.929 -1.6284 -2.2424  1.4343
 5517TIP3    H238043   2.224   3.964  11.782 -0.3314 -2.2513  1.3516
 5518TIP3   OH238044   2.409   2.165   4.806  0.7617  0.8329  0.2901
 5518TIP3    H138045   2.469   2.139   4.736  2.2996  1.8775  1.1500
 5518TIP3    H238046   2.381   2.083   4.845  1.6055  0.3048 -0.1794
 5519TIP3   OH238047   4.520   0.477  14.559  0.1413 -0.4268  0.1362
 5519TIP3    H138048   4.445   0.460  14.502  0.4347  0.0041 -0.3863
 5519TIP3    H238049   4.595   0.445  14.509  0.3729 -0.2749  0.3879
 5520TIP3   OH238050   1.202   1.222  12.549 -0.3645  0.4533  0.0798
 5520TIP3    H138051   1.107   1.212  12.546 -0.4144  0.6026  1.0064
 5520TIP3    H238052   1.217   1.316  12.547 -0.1322  0.4340 -2.1619
 5521TIP3   OH238053   2.088   5.082   5.132 -0.1084  0.4767 -0.8121
 5521TIP3    H138054   2.143   5.004   5.139 -1.0972 -0.2296 -0.7246
 5521TIP3    H238055   2.009   5.051   5.088 -0.3828  1.5076 -1.0627
 5522TIP3   OH238056   2.961   1.028   5.032  0.2534 -0.1581 -0.4657
 5522TIP3    H138057   2.878   0.982   5.049  0.4594  0.2757  2.2881
 5522TIP3    H238058   2.935   1.110   4.990 -0.4194 -1.1877 -2.1654
 5523TIP3   OH238059   1.838   1.861   0.972 -0.5950 -0.2016  0.2118
 5523TIP3    H138060   1.896   1.803   0.924  0.9799  1.3446  0.1587
 5523TIP3    H238061   1.872   1.863   1.061 -1.0765  0.0578  0.3991
 5524TIP3   OH238062   6.274   2.964   1.382  0.7364  0.4905  0.2610
 5524TIP3    H138063   6.229   2.936   1.462 -0.1376 -1.3646 -0.8204
 5524TIP3    H238064   6.264   3.059   1.381 -1.0899  0.3472  1.2642
 5525TIP3   OH238065   4.130   1.239   3.301  0.0098  1.2177 -0.0840
 5525TIP3    H138066   4.162   1.265   3.214 -1.5370  0.8225 -0.8132
 5525TIP3    H238067   4.109   1.322   3.345  0.9448  1.4273 -0.0160
 5526TIP3   OH238068   2.542   1.407  15.386  0.4836 -0.2425 -0.1658
 5526TIP3    H138069   2.473   1.474  15.390  1.0744  0.3102  1.3039
 5526TIP3    H238070   2.525   1.351  15.462  2.5119  0.7908  1.1143
 5527TIP3   OH238071   2.848   5.021   6.576 -0.5180 -0.0752  0.0413
 5527TIP3    H138072   2.890   4.946   6.532 -3.3481 -1.3189 -0.7516
 5527TIP3    H238073   2.855   5.001   6.669 -0.8761 -1.1514 -0.1510
 5528TIP3   OH238074   0.735   1.307  13.156 -0.4061  0.0907  0.6715
 5528TIP3    H138075   0.699   1.257  13.230  1.5730 -1.2063  0.8307
 5528TIP3    H238076   0.690   1.270  13.079 -2.4787  1.4494  1.1483
 5529TIP3   OH238077   0.584   2.760   3.614  0.4463 -0.3302 -0.1911
 5529TIP3    H138078   0.670   2.717   3.607  0.6772 -0.0387  0.7106
 5529TIP3    H238079   0.581   2.792   3.704  0.1741  1.3372 -0.7575
 5530TIP3   OH238080   4.621   1.294  11.440  0.5945 -0.2568 -0.1857
 5530TIP3    H138081   4.615   1.389  11.450  0.2790 -0.2729 -0.2202
 5530TIP3    H238082   4.651   1.282  11.350 -0.6237 -0.2165 -0.6200
 5531TIP3   OH238083   4.901   3.267  15.940 -0.1857 -0.3196  0.0569
 5531TIP3    H138084   4.949   3.268  15.857  2.3600  0.0591  1.4285
 5531TIP3    H238085   4.874   3.176  15.951 -0.3474 -0.4254 -1.0400
 5532TIP3   OH238086   1.157   6.775  12.931  0.5055 -0.3944 -0.0475
 5532TIP3    H138087   1.106   6.711  12.981 -0.3476  0.5533  0.3168
 5532TIP3    H238088   1.247   6.742  12.934  0.5147 -0.2670  2.2812
 5533TIP3   OH238089   4.848   3.269  16.898  0.2452  0.6525 -1.0207
 5533TIP3    H138090   4.870   3.177  16.887  0.5368  0.7967 -1.6877
 5533TIP3    H238091   4.933   3.314  16.900  0.0979  0.9302 -0.9648
 5534TIP3   OH238092   5.034   3.297   1.561  0.1662  0.0851  0.8648
 5534TIP3    H138093   5.128   3.307   1.546 -0.1683  0.3043 -1.6243
 5534TIP3    H238094   5.023   3.207   1.590  1.0160 -0.6542 -0.9267
 5535TIP3   OH238095   2.872   0.667  14.980 -0.0954 -0.0068  0.2483
 5535TIP3    H138096   2.850   0.591  14.927  1.0368 -0.1639 -0.0352
 5535TIP3    H238097   2.908   0.630  15.061 -0.4757  0.2338  0.5309
 5536TIP3   OH238098   5.918   4.854   0.124 -0.5597 -0.1108  0.1227
 5536TIP3    H138099   5.891   4.940   0.091  2.1272  0.8549  0.1670
 5536TIP3    H238100   5.860   4.837   0.198 -0.5300  2.1668  0.7472
 5537TIP3   OH238101   1.772   5.474  13.735  0.1171 -0.5284  0.0531
 5537TIP3    H138102   1.776   5.553  13.789  0.3336  0.3544 -1.2028
 5537TIP3    H238103   1.679   5.463  13.716  0.0565 -0.7503  0.4811
 5538TIP3   OH238104   1.678   3.004   4.488 -0.4029 -0.5030 -0.3519
 5538TIP3    H138105   1.671   3.013   4.393 -0.3999  0.7456 -0.2487
 5538TIP3    H238106   1.767   2.972   4.503 -0.8208 -1.9762 -0.8233
 5539TIP3   OH238107   0.360   5.645   4.545 -0.1332 -0.7239 -0.7169
 5539TIP3    H138108   0.292   5.710   4.524 -1.1849 -1.5493  0.0392
 5539TIP3    H238109   0.314   5.577   4.593  1.5743 -0.3855  1.5799
 5540TIP3   OH238110   3.434   0.494   3.477  0.2378  0.0854  0.1126
 5540TIP3    H138111   3.522   0.458   3.486  0.2479 -0.1842 -0.8768
 5540TIP3    H238112   3.413   0.482   3.384 -0.8134  0.2044  0.3208
 5541TIP3   OH238113   3.499   5.531   2.826 -0.4547  0.6712  0.4264
 5541TIP3    H138114   3.581   5.580   2.826  0.6148 -0.9559 -1.0782
 5541TIP3    H238115   3.521   5.448   2.870 -0.3058 -1.0757 -2.6319
 5542TIP3   OH238116   5.193   3.498   2.656  0.0592 -0.0511 -0.3928
 5542TIP3    H138117   5.229   3.422   2.610 -0.9400 -0.6388 -0.2294
 5542TIP3    H238118   5.130   3.461   2.718 -1.4364  0.9765 -1.2339
 5543TIP3   OH238119   3.821   5.049  11.189 -0.3831  0.3436  0.3600
 5543TIP3    H138120   3.775   5.054  11.273 -0.1866 -1.6120  0.6461
 5543TIP3    H238121   3.787   4.969  11.148  1.5926 -0.3126 -0.1015
 5544TIP3   OH238122   3.916   4.699  15.953 -0.4773  0.1944 -0.4680
 5544TIP3    H138123   3.926   4.739  16.039  1.0545  1.5970 -1.2441
 5544TIP3    H238124   3.865   4.762  15.903  2.2167  1.5062 -1.7937
 5545TIP3   OH238125   2.898   5.785  12.667  0.8659  0.4915 -0.3426
 5545TIP3    H138126   2.916   5.872  12.702 -0.2872  1.1974 -1.3785
 5545TIP3    H238127   2.969   5.769  12.605 -0.3818  1.9978 -2.2878
 5546TIP3   OH238128   4.434   2.682   2.702  0.0309  0.0494 -0.1622
 5546TIP3    H138129   4.514   2.664   2.651 -0.3376 -0.6056 -0.5297
 5546TIP3    H238130   4.400   2.764   2.665  0.6071  0.4066  0.0921
 5547TIP3   OH238131   3.786   5.671  13.056  0.5152 -0.2219 -0.3476
 5547TIP3    H138132   3.788   5.766  13.055  1.8572 -0.2134  0.2483
 5547TIP3    H238133   3.740   5.649  13.138 -0.0900 -0.0970 -0.6504
 5548TIP3   OH238134   1.426   2.819  16.925 -0.5019 -0.2470  0.3093
 5548TIP3    H138135   1.490   2.867  16.978  0.0621  0.7088 -1.1643
 5548TIP3    H238136   1.342   2.861  16.946 -0.2674  0.2081  0.3558
 5549TIP3   OH238137   0.492   2.929   6.580 -0.3038  0.3552 -0.0880
 5549TIP3    H138138   0.557   2.859   6.586  0.9684  1.5188  0.2433
 5549TIP3    H238139   0.407   2.884   6.585  0.4701 -1.1636 -0.1081
 5550TIP3   OH238140   0.861   4.397   3.526 -0.0964  0.6080 -0.0758
 5550TIP3    H138141   0.876   4.320   3.582  1.3019 -0.5721 -1.9458
 5550TIP3    H238142   0.777   4.379   3.483 -1.1705  1.5145  1.5302
 5551TIP3   OH238143   6.467   1.932   6.285 -0.4167  0.5057  0.2521
 5551TIP3    H138144   6.539   1.902   6.341 -1.4842  0.5271  1.6669
 5551TIP3    H238145   6.419   1.995   6.338 -1.7289  0.1874 -0.5052
 5552TIP3   OH238146   3.800   5.365  13.372 -0.0714  0.3642 -0.1626
 5552TIP3    H138147   3.785   5.415  13.453  0.1483 -2.0258  1.4591
 5552TIP3    H238148   3.715   5.328  13.350  0.7217 -3.4651  2.2575
 5553TIP3   OH238149   6.429   3.256  13.992  0.5401 -0.1223 -0.3644
 5553TIP3    H138150   6.406   3.348  13.980  1.3361  0.0218 -0.9010
 5553TIP3    H238151   6.525   3.255  13.990  0.5317 -1.2230 -2.4844
 5554TIP3   OH238152   1.534   0.254  11.456  0.1004 -0.0209  0.2509
 5554TIP3    H138153   1.443   0.250  11.427  0.0907 -1.8848  0.4125
 5554TIP3    H238154   1.564   0.163  11.455  1.3187  0.2925  2.2362
 5555TIP3   OH238155   0.585   2.452  13.624 -0.5043 -0.3024  0.0165
 5555TIP3    H138156   0.578   2.505  13.545  0.6198 -1.5456 -0.9693
 5555TIP3    H238157   0.534   2.499  13.690  0.2319  1.8413 -0.8789
 5556TIP3   OH238158   2.074   0.249  11.806  0.1227  0.7681 -0.2568
 5556TIP3    H138159   2.036   0.174  11.761  1.6394  0.1297 -0.5392
 5556TIP3    H238160   2.035   0.325  11.762  0.4550  0.1531 -1.6879
 5557TIP3   OH238161   3.560   5.361   3.879 -0.1534  0.0937 -0.4764
 5557TIP3    H138162   3.468   5.338   3.867 -0.7974  1.9094  0.6330
 5557TIP3    H238163   3.599   5.353   3.792 -1.0495 -1.7919 -0.7641
 5558TIP3   OH238164   3.349   6.220  13.729  0.6619  0.1548  0.1638
 5558TIP3    H138165   3.423   6.181  13.776 -0.9819 -1.7403  1.3004
 5558TIP3    H238166   3.293   6.256  13.797  0.7132  2.0812 -0.7157
 5559TIP3   OH238167   2.435   1.505   2.871  0.2186  0.0132 -0.8128
 5559TIP3    H138168   2.459   1.597   2.885 -1.0181  0.1135  1.0642
 5559TIP3    H238169   2.409   1.500   2.779  0.1303  1.5851 -0.8925
 5560TIP3   OH238170   5.500   0.279  13.083  0.3617  0.4011 -0.0293
 5560TIP3    H138171   5.503   0.200  13.136  3.2234  1.6859  1.9980
 5560TIP3    H238172   5.468   0.347  13.143 -2.1648  0.8570 -1.7588
 5561TIP3   OH238173   0.843   1.760   3.789  0.5361  0.2400 -0.9115
 5561TIP3    H138174   0.925   1.791   3.827  0.9122  0.4656 -1.8950
 5561TIP3    H238175   0.785   1.836   3.793 -0.0874 -0.2770  0.9966
 5562TIP3   OH238176   5.864   4.965  13.379 -0.3232  0.4312 -0.0247
 5562TIP3    H138177   5.791   4.992  13.435 -0.8542 -0.1779 -0.4009
 5562TIP3    H238178   5.933   5.029  13.397 -0.2055 -0.1378  1.8563
 5563TIP3   OH238179   1.349   5.211  11.702 -1.1047  0.4083 -0.6700
 5563TIP3    H138180   1.280   5.258  11.654 -1.3827  1.4329  0.6732
 5563TIP3    H238181   1.393   5.159  11.635 -1.6492  1.5768 -1.9996
 5564TIP3   OH238182   3.501   5.278  11.527 -0.2192  0.3848 -0.1034
 5564TIP3    H138183   3.501   5.296  11.433  1.0667 -0.8170 -0.3699
 5564TIP3    H238184   3.424   5.324  11.561 -1.6855 -0.5105 -2.0242
 5565TIP3   OH238185   3.795   5.648   4.482  0.0729  0.1714 -0.3208
 5565TIP3    H138186   3.808   5.702   4.560 -0.4021 -0.9876  0.5740
 5565TIP3    H238187   3.754   5.707   4.419  1.0828  1.3093  0.0457
 5566TIP3   OH238188   2.924   1.223   3.755 -0.1151  0.3482 -0.0475
 5566TIP3    H138189   2.855   1.272   3.711 -0.5999  0.3717  0.7169
 5566TIP3    H238190   2.878   1.152   3.800  0.3906  0.1885  0.2330
 5567TIP3   OH238191   0.337   4.754   5.985 -0.1497 -0.2819 -0.1108
 5567TIP3    H138192   0.275   4.742   6.057  2.3474 -0.5124  2.1466
 5567TIP3    H238193   0.406   4.690   6.001  1.6170  1.1613 -1.4412
 5568TIP3   OH238194   3.398   4.425  12.710 -0.3153 -0.5731  0.0152
 5568TIP3    H138195   3.317   4.373  12.709 -0.1130 -0.9274  0.8006
 5568TIP3    H238196   3.467   4.362  12.732 -0.0675  0.0225  1.0175
 5569TIP3   OH238197   3.489   1.835  14.717  0.1447  0.1920 -0.2147
 5569TIP3    H138198   3.542   1.914  14.713 -0.2865  0.5033  0.0871
 5569TIP3    H238199   3.528   1.783  14.788 -0.0492  0.4966  0.1206
 5570TIP3   OH238200   0.572   4.822  16.902  0.4775  0.4175  0.3505
 5570TIP3    H138201   0.515   4.886  16.944  1.2686 -0.3260  2.7487
 5570TIP3    H238202   0.657   4.866  16.894  0.2686  0.6463 -0.8086
 5571TIP3   OH238203   6.071   4.781   2.929 -0.0934  0.3005  0.3586
 5571TIP3    H138204   6.131   4.840   2.884  0.4894  0.8178  1.7570
 5571TIP3    H238205   6.100   4.693   2.902  0.9917  0.5602  0.6109
 5572TIP3   OH238206   1.573   0.908   2.333 -0.2447 -0.0920 -0.4720
 5572TIP3    H138207   1.545   0.920   2.243  1.3528  0.1889 -0.9692
 5572TIP3    H238208   1.639   0.838   2.328  1.0532  1.0207  0.1885
 5573TIP3   OH238209   1.752   2.670  14.317  0.0961 -0.6951 -0.2093
 5573TIP3    H138210   1.674   2.651  14.371 -0.6323 -1.0967 -1.3667
 5573TIP3    H238211   1.792   2.746  14.359 -1.2957 -0.0694  0.0356
 5574TIP3   OH238212   1.719   4.483   1.498 -0.3904  0.3814  0.6120
 5574TIP3    H138213   1.758   4.454   1.415 -0.1165  2.0501  0.1328
 5574TIP3    H238214   1.679   4.404   1.534  0.4180 -0.6138 -0.5819
 5575TIP3   OH238215   1.925   6.712   1.345 -0.2775 -0.7284 -0.1791
 5575TIP3    H138216   2.012   6.718   1.386 -0.2223  0.8778 -0.4782
 5575TIP3    H238217   1.890   6.629   1.377  0.6490 -0.5676  1.3718
 5576TIP3   OH238218   5.623   5.952   4.853  0.1551  0.2482  0.3955
 5576TIP3    H138219   5.683   5.884   4.885  0.3025  1.9077  4.1364
 5576TIP3    H238220   5.678   6.008   4.798  0.7946 -0.9329 -0.2078
 5577TIP3   OH238221   5.645   4.988  16.263  0.6964  0.1156  0.6977
 5577TIP3    H138222   5.641   5.081  16.282  0.0266  0.1993  0.1602
 5577TIP3    H238223   5.732   4.961  16.294  0.9719  0.9539  0.6711
 5578TIP3   OH238224   3.627   3.842  14.196  0.2010  0.1483  0.6275
 5578TIP3    H138225   3.583   3.850  14.111 -3.0114  1.5680  2.2385
 5578TIP3    H238226   3.617   3.750  14.220 -0.3104  0.0713  0.1453
 5579TIP3   OH238227   0.023   1.837  15.437 -0.0563 -0.2263 -0.4868
 5579TIP3    H138228   0.053   1.878  15.518 -2.2103 -0.1775  0.3498
 5579TIP3    H238229   0.084   1.870  15.370  0.3469  1.6428  0.7066
 5580TIP3   OH238230   0.588   4.243   3.924  0.4568 -0.1743  0.3342
 5580TIP3    H138231   0.510   4.202   3.963  0.6506  0.3589  1.3311
 5580TIP3    H238232   0.661   4.207   3.974  0.6520  1.1527  1.0491
 5581TIP3   OH238233   4.371   0.761   1.150 -0.1408  0.1660  0.5374
 5581TIP3    H138234   4.441   0.810   1.107 -0.2928  0.3939  0.5478
 5581TIP3    H238235   4.300   0.759   1.086 -0.4628  0.7290  0.8698
 5582TIP3   OH238236   3.649   1.764  14.462  1.0495  0.2069 -0.4250
 5582TIP3    H138237   3.689   1.689  14.419 -0.2850 -1.6153  1.3017
 5582TIP3    H238238   3.556   1.740  14.471  1.1562  0.5977  2.9691
 5583TIP3   OH238239   3.355   0.369  15.433  1.1460  0.8737  0.1572
 5583TIP3    H138240   3.425   0.325  15.482  0.4110 -0.3468  0.1552
 5583TIP3    H238241   3.399   0.405  15.356  2.1473  2.0005  1.2098
 5584TIP3   OH238242   2.891   5.974  13.836 -0.1311  0.7026  0.1025
 5584TIP3    H138243   2.842   5.920  13.773 -0.6208  2.4969 -1.1515
 5584TIP3    H238244   2.840   5.969  13.917 -1.4468  1.0879 -0.6677
 5585TIP3   OH238245   1.489   3.396   2.696 -0.1645 -0.6604 -0.0250
 5585TIP3    H138246   1.476   3.394   2.601 -0.0132 -1.5059 -0.0358
 5585TIP3    H238247   1.575   3.357   2.710  0.3117  0.4936  0.3944
 5586TIP3   OH238248   2.592   2.371   1.521  0.3024 -0.3895  0.3901
 5586TIP3    H138249   2.517   2.368   1.581  1.6176 -1.7040  2.0543
 5586TIP3    H238250   2.625   2.281   1.519  0.9167 -0.1587 -1.5424
 5587TIP3   OH238251   4.080   5.942  13.717 -0.0743  0.0049  0.0398
 5587TIP3    H138252   3.985   5.945  13.722 -0.0295  0.7275  0.7441
 5587TIP3    H238253   4.101   5.988  13.636 -0.2812  1.2979  0.6843
 5588TIP3   OH238254   6.026   3.011  16.263 -0.1323 -0.3780 -0.1463
 5588TIP3    H138255   6.061   2.973  16.343 -0.2497  1.8575  1.0569
 5588TIP3    H238256   6.103   3.039  16.213 -0.0863 -1.0158 -0.4482
 5589TIP3   OH238257   2.145   0.728   5.314 -0.6904 -0.7880 -0.0520
 5589TIP3    H138258   2.147   0.656   5.251 -1.4402 -0.5938 -0.3175
 5589TIP3    H238259   2.237   0.745   5.336 -0.5554 -2.5742  0.9002
 5590TIP3   OH238260   3.309   5.513   0.497  0.4583 -0.1737  0.1327
 5590TIP3    H138261   3.300   5.487   0.406  0.6169 -0.2684  0.1460
 5590TIP3    H238262   3.222   5.546   0.521  0.1378 -1.0721  0.2421
 5591TIP3   OH238263   6.495   0.874   1.532 -0.0957  0.1387  0.2902
 5591TIP3    H138264   6.472   0.902   1.621  0.5633 -0.3158  0.6056
 5591TIP3    H238265   6.410   0.860   1.489 -0.4233  1.1780  0.5789
 5592TIP3   OH238266   4.015   3.756   4.877  0.1097  0.1799  0.5556
 5592TIP3    H138267   3.944   3.714   4.926  0.1064 -1.3780 -0.7132
 5592TIP3    H238268   4.078   3.686   4.860  0.6194  0.9126 -0.7388
 5593TIP3   OH238269   1.753   0.245  15.924 -0.6846  0.2920  0.3883
 5593TIP3    H138270   1.794   0.188  15.860  0.1043 -3.0535  3.5114
 5593TIP3    H238271   1.659   0.233  15.910 -0.5569  0.8144 -1.0228
 5594TIP3   OH238272   2.404   4.803  14.540  0.4083 -0.0580  0.1012
 5594TIP3    H138273   2.358   4.863  14.598  2.0986 -1.0865  2.7034
 5594TIP3    H238274   2.408   4.848  14.456 -2.4588  1.3684  0.6274
 5595TIP3   OH238275   6.542   5.493   2.370  0.3485 -0.2081  0.1678
 5595TIP3    H138276   6.480   5.514   2.300  0.6576  1.6278  0.3870
 5595TIP3    H238277   6.619   5.459   2.325  0.3916  0.5671 -0.3588
 5596TIP3   OH238278   2.049   2.392  11.898  0.0065 -0.5167  0.1326
 5596TIP3    H138279   1.971   2.346  11.930  0.0049 -1.8931 -1.6822
 5596TIP3    H238280   2.030   2.484  11.914  0.3708 -0.9950  4.7117
 5597TIP3   OH238281   1.713   2.756  12.359 -0.5763 -0.2582 -0.0808
 5597TIP3    H138282   1.759   2.837  12.380  0.1029 -0.5958 -0.2338
 5597TIP3    H238283   1.765   2.716  12.289 -1.7830 -0.0511 -1.1350
 5598TIP3   OH238284   6.033   5.771  14.275 -0.2747  0.2219 -0.0528
 5598TIP3    H138285   5.973   5.750  14.203  0.7870  0.2299 -0.9742
 5598TIP3    H238286   6.120   5.753  14.239  0.3212  0.9322  0.9904
 5599TIP3   OH238287   1.406   0.260  12.034  0.0727 -0.6504  0.2761
 5599TIP3    H138288   1.338   0.316  11.996  0.3599  0.2921  1.1060
 5599TIP3    H238289   1.463   0.239  11.961 -0.3000 -0.2382 -0.1395
 5600TIP3   OH238290   0.488   0.336  11.885 -0.2756 -0.0564  0.2905
 5600TIP3    H138291   0.407   0.358  11.932 -1.2593 -1.9796 -0.4078
 5600TIP3    H238292   0.552   0.320  11.954 -0.2543  2.0948  0.8484
 5601TIP3   OH238293   5.922   2.036   0.096  0.4768  0.2673 -0.1077
 5601TIP3    H138294   5.932   1.946   0.129  0.6934  0.3945  0.1760
 5601TIP3    H238295   5.858   2.076   0.155 -0.3131  0.0303 -0.7808
 5602TIP3   OH238296   1.537   3.605   2.457 -0.1856 -0.1804 -0.3554
 5602TIP3    H138297   1.619   3.621   2.504 -0.8422  0.6285  0.5250
 5602TIP3    H238298   1.563   3.546   2.385  1.2566  0.4610 -0.4011
 5603TIP3   OH238299   4.057   6.250  12.215 -0.2987  0.0382  0.3047
 5603TIP3    H138300   3.974   6.283  12.249 -1.3927 -1.8491 -0.3827
 5603TIP3    H238301   4.106   6.224  12.293 -0.0124  1.8440  0.7608
 5604TIP3   OH238302   2.651   0.421  10.376 -0.0731  0.4012 -0.2438
 5604TIP3    H138303   2.744   0.420  10.401  0.1880  2.1911 -0.9985
 5604TIP3    H238304   2.618   0.505  10.409 -0.9888  0.5414 -1.4534
 5605TIP3   OH238305   6.267   2.521   5.388 -0.4145 -0.1273 -0.0064
 5605TIP3    H138306   6.343   2.540   5.332 -0.8865 -2.8176 -1.7514
 5605TIP3    H238307   6.274   2.585   5.459  2.5607  0.7870 -0.9359
 5606TIP3   OH238308   5.515   4.404   0.978  0.3731 -0.4803  0.8094
 5606TIP3    H138309   5.421   4.386   0.985  0.0552  0.9981  0.6902
 5606TIP3    H238310   5.543   4.417   1.068  0.2857 -0.1333  0.7888
 5607TIP3   OH238311   0.180   4.638   4.641 -0.2736  0.5484  0.3054
 5607TIP3    H138312   0.096   4.666   4.605  0.4267 -0.2035 -2.0916
 5607TIP3    H238313   0.167   4.545   4.662 -0.5595  0.8865  1.7473
 5608TIP3   OH238314   2.799   6.216   4.055  0.0283  0.4175 -0.1553
 5608TIP3    H138315   2.866   6.241   4.118  0.2827  0.1498 -0.3179
 5608TIP3    H238316   2.728   6.278   4.069  0.3695  0.7915 -0.0781
 5609TIP3   OH238317   4.338   2.564   5.745 -0.2080 -0.6136 -0.1281
 5609TIP3    H138318   4.424   2.601   5.762 -0.6994  1.0915 -1.1383
 5609TIP3    H238319   4.353   2.497   5.679  0.1872  0.6772 -1.3899
 5610TIP3   OH238320   3.018   2.705   3.803 -0.6153  0.3805 -0.0935
 5610TIP3    H138321   2.997   2.761   3.728 -0.8339 -0.2019 -0.4656
 5610TIP3    H238322   2.939   2.707   3.857 -0.9323 -0.2436 -0.5273
 5611TIP3   OH238323   5.329   2.406   1.773 -0.3134  0.2445  0.0178
 5611TIP3    H138324   5.272   2.337   1.806 -1.7066  1.1612 -0.3751
 5611TIP3    H238325   5.418   2.372   1.785 -0.9502 -1.9646 -0.9222
 5612TIP3   OH238326   1.576   0.649   1.644 -0.5770  0.2482  0.1113
 5612TIP3    H138327   1.530   0.635   1.562  1.3442 -0.6688 -0.8826
 5612TIP3    H238328   1.666   0.668   1.618 -0.2196  1.3793  1.9779
 5613TIP3   OH238329   6.089   5.932  12.847  0.0233 -0.0698 -0.2914
 5613TIP3    H138330   6.115   5.893  12.931 -1.5440  0.6648  0.5707
 5613TIP3    H238331   6.086   5.857  12.787  3.4891 -0.3065 -0.3962
 5614TIP3   OH238332   3.332   5.295  15.138  0.0216 -0.1442  0.0332
 5614TIP3    H138333   3.424   5.308  15.116  0.9474 -1.7363  2.4947
 5614TIP3    H238334   3.302   5.227  15.077  1.3916 -1.7276  1.0224
 5615TIP3   OH238335   5.801   1.026  11.357 -0.2426  0.0925 -0.2313
 5615TIP3    H138336   5.800   1.070  11.441 -2.6491 -1.6683  0.7837
 5615TIP3    H238337   5.778   1.094  11.293  0.1910  1.1311  0.6947
 5616TIP3   OH238338   0.580   0.734   4.978  0.5605  0.0377 -0.8452
 5616TIP3    H138339   0.531   0.693   4.907 -2.1102  1.0960  0.2488
 5616TIP3    H238340   0.605   0.661   5.035 -0.3548 -0.4920 -1.0956
 5617TIP3   OH238341   1.505   6.234  16.596 -0.1149 -0.4308  0.0486
 5617TIP3    H138342   1.493   6.139  16.603 -1.8868 -0.1910  0.9080
 5617TIP3    H238343   1.416   6.269  16.597  0.5500  1.3543  1.4896
 5618TIP3   OH238344   1.677   3.076   0.223  0.2011 -0.5723  0.0330
 5618TIP3    H138345   1.675   3.157   0.173  0.3065 -0.6277 -0.0602
 5618TIP3    H238346   1.587   3.065   0.256 -0.5168 -1.8011 -2.1293
 5619TIP3   OH238347   3.022   2.842   1.964  0.0887 -0.0385  0.4684
 5619TIP3    H138348   3.020   2.749   1.941 -0.1507 -0.4786  2.1973
 5619TIP3    H238349   2.975   2.848   2.047 -1.0159  1.8275 -0.2248
 5620TIP3   OH238350   6.077   1.329  14.493  0.2044  0.3728  0.8024
 5620TIP3    H138351   6.058   1.321  14.400  0.4373  2.5828  0.5182
 5620TIP3    H238352   6.048   1.246  14.531 -0.5124 -0.3033 -1.1258
 5621TIP3   OH238353   1.527   1.181  11.484  0.3497 -0.4776 -0.2882
 5621TIP3    H138354   1.612   1.167  11.441 -0.2394 -1.0283 -1.3169
 5621TIP3    H238355   1.493   1.261  11.444  1.1208  0.7654  1.3910
 5622TIP3   OH238356   2.288   2.374  11.281  0.6219  0.4569 -1.1380
 5622TIP3    H138357   2.358   2.383  11.345 -0.1586 -0.8282 -0.0701
 5622TIP3    H238358   2.218   2.430  11.313  0.0708 -0.5080 -0.6061
 5623TIP3   OH238359   3.927   2.297  11.852  0.2381  0.2227  0.2543
 5623TIP3    H138360   3.943   2.298  11.946 -0.6126  2.1744  0.4174
 5623TIP3    H238361   4.014   2.285  11.813  1.0914  2.5838  1.2553
 5624TIP3   OH238362   1.997   6.217  16.871 -0.0737  0.1873 -0.2791
 5624TIP3    H138363   1.916   6.231  16.919  0.5648 -0.2389  0.9488
 5624TIP3    H238364   2.065   6.212  16.938  1.0786  1.1977 -1.3317
 5625TIP3   OH238365   6.743   0.475  13.677  0.2734  0.1600 -0.1434
 5625TIP3    H138366   6.702   0.537  13.617 -0.0787 -2.2929 -2.6347
 5625TIP3    H238367   6.835   0.500  13.678  0.0573  1.0152 -0.7466
 5626TIP3   OH238368   3.809   0.176  13.075  0.7436  0.7393 -0.0027
 5626TIP3    H138369   3.903   0.158  13.072  1.4214  3.8006 -0.0916
 5626TIP3    H238370   3.799   0.242  13.144 -1.5259 -0.2415  0.7000
 5627TIP3   OH238371   4.639   2.704  15.223 -0.2517  0.0809 -0.3584
 5627TIP3    H138372   4.630   2.719  15.318 -0.4270 -2.4277  0.0843
 5627TIP3    H238373   4.679   2.618  15.216  1.7030  1.0451 -2.6042
 5628TIP3   OH238374   4.622   4.594  10.957  0.2145 -0.0957 -0.0709
 5628TIP3    H138375   4.652   4.591  10.865 -0.0637 -1.6715 -0.1468
 5628TIP3    H238376   4.543   4.540  10.958 -0.3638  0.7405  0.9187
 5629TIP3   OH238377   5.351   3.709  12.790  0.4453 -0.7349  0.0457
 5629TIP3    H138378   5.301   3.674  12.716  0.3446 -2.1450  0.7455
 5629TIP3    H238379   5.286   3.726  12.858  0.7952 -1.7114  0.6373
 5630TIP3   OH238380   5.340   1.230   4.753  0.3525  0.2215 -0.0609
 5630TIP3    H138381   5.298   1.287   4.689  1.1364  0.2316 -0.5831
 5630TIP3    H238382   5.317   1.269   4.838  2.6510  2.7063 -0.4190
 5631TIP3   OH238383   4.821   5.705   2.956 -0.3824 -0.2394  0.1637
 5631TIP3    H138384   4.744   5.653   2.980 -0.2504 -0.3979  0.2410
 5631TIP3    H238385   4.884   5.641   2.922  0.4127 -0.3533  1.7744
 5632TIP3   OH238386   6.804   1.122   3.431  0.5228 -0.8326 -0.5481
 5632TIP3    H138387   6.740   1.186   3.402  1.3942  0.2928 -0.0697
 5632TIP3    H238388   6.887   1.170   3.430  0.9604 -1.4764  1.3667
 5633TIP3   OH238389   5.074   5.279   4.542  0.6558  0.3563  0.6672
 5633TIP3    H138390   5.111   5.203   4.496 -0.9567 -0.7506  1.0849
 5633TIP3    H238391   5.137   5.298   4.611  1.1668 -0.5122  0.4640
 5634TIP3   OH238392   3.511   5.212   1.234 -0.0179 -0.7767  0.3096
 5634TIP3    H138393   3.466   5.134   1.267 -1.8621  0.0833 -0.0854
 5634TIP3    H238394   3.458   5.242   1.161  1.6670 -0.1716 -0.7327
 5635TIP3   OH238395   1.957   0.641  13.886  0.3204  0.2143 -0.3770
 5635TIP3    H138396   1.887   0.584  13.919  0.7417  1.3701  2.8535
 5635TIP3    H238397   2.035   0.611  13.932  0.7324  2.6946  0.6897
 5636TIP3   OH238398   3.948   1.732  16.745 -0.0744 -0.1176  0.1737
 5636TIP3    H138399   3.892   1.742  16.822 -0.7546  0.7250 -0.4072
 5636TIP3    H238400   4.029   1.777  16.769 -0.9187  1.7211 -0.2016
 5637TIP3   OH238401   5.636   2.453   2.512 -0.3880  0.1802 -0.2691
 5637TIP3    H138402   5.564   2.464   2.574  0.1050 -2.0615  0.7992
 5637TIP3    H238403   5.707   2.506   2.549 -0.8134  0.7334 -0.2164
 5638TIP3   OH238404   4.103   2.400   6.140  0.4364  0.1317 -0.1142
 5638TIP3    H138405   4.146   2.347   6.074 -0.3547 -1.4028  0.5655
 5638TIP3    H238406   4.017   2.360   6.152  0.1511  1.0212  1.0648
 5639TIP3   OH238407   2.751   6.199  10.931  0.3193 -0.0827 -0.1332
 5639TIP3    H138408   2.766   6.267  10.865  0.6845  1.4554  1.4548
 5639TIP3    H238409   2.824   6.139  10.920  1.8228  1.5553  0.5270
 5640TIP3   OH238410   1.111   5.616  16.462 -0.2858  0.1889 -0.2204
 5640TIP3    H138411   1.193   5.653  16.428 -1.9367  2.7330 -1.8619
 5640TIP3    H238412   1.079   5.683  16.523 -1.8903  0.0454 -0.8634
 5641TIP3   OH238413   4.738   2.625  11.027 -0.0071 -0.1399  0.0250
 5641TIP3    H138414   4.728   2.691  10.959  0.3297 -0.4173 -0.2971
 5641TIP3    H238415   4.766   2.546  10.981  2.9795  0.3862  0.7352
 5642TIP3   OH238416   4.921   1.865  16.743  0.5547  0.1801  0.4928
 5642TIP3    H138417   4.871   1.828  16.670  1.0048 -1.0565  0.7786
 5642TIP3    H238418   4.854   1.886  16.809  0.3277 -0.7683  0.5815
 5643TIP3   OH238419   4.200   6.019   6.610 -0.2537 -0.3365  0.0956
 5643TIP3    H138420   4.273   5.990   6.665  1.5248  3.5672  0.1105
 5643TIP3    H238421   4.239   6.034   6.524 -1.3262  0.5067 -0.2696
 5644TIP3   OH238422   3.176   1.630  11.949  0.0939 -0.4805 -0.5296
 5644TIP3    H138423   3.170   1.537  11.972  0.6320 -0.3076  0.3528
 5644TIP3    H238424   3.215   1.629  11.861 -3.6651 -1.2100 -2.3989
 5645TIP3   OH238425   1.600   2.050   5.431 -0.7843  0.1368  0.3681
 5645TIP3    H138426   1.549   1.985   5.383  0.2669 -0.3558 -0.1001
 5645TIP3    H238427   1.543   2.127   5.435 -1.2587 -0.1318 -0.8350
 5646TIP3   OH238428   2.459   4.698  13.319 -0.3862  0.7613  0.2563
 5646TIP3    H138429   2.515   4.687  13.242 -0.9810  1.0698 -0.2306
 5646TIP3    H238430   2.510   4.664  13.392 -0.0084  0.0126 -0.3539
 5647TIP3   OH238431   3.990   5.653  15.909  0.2207 -0.1394  0.0233
 5647TIP3    H138432   4.002   5.588  15.839  0.4492  0.2548 -0.3024
 5647TIP3    H238433   4.066   5.710  15.903  1.5061 -1.4716  2.1158
 5648TIP3   OH238434   6.514   3.205  14.402  0.3462 -0.6096 -0.1143
 5648TIP3    H138435   6.591   3.246  14.363  0.0792 -0.4396 -0.4729
 5648TIP3    H238436   6.455   3.278  14.421 -0.1441 -0.8243 -0.7798
 5649TIP3   OH238437   6.145   3.729  16.204  0.1021 -0.2160  0.1569
 5649TIP3    H138438   6.160   3.776  16.122 -1.2006  1.9982  1.1060
 5649TIP3    H238439   6.063   3.681  16.189 -0.4372  0.6324  0.3132
 5650TIP3   OH238440   2.618   3.705  11.666  0.6078  0.8082  0.7555
 5650TIP3    H138441   2.699   3.732  11.710  1.3550 -0.6039  0.3268
 5650TIP3    H238442   2.612   3.611  11.685 -0.1561  0.6029 -0.4476
 5651TIP3   OH238443   4.707   2.093  13.644  0.1843 -0.0664  0.2629
 5651TIP3    H138444   4.728   2.186  13.644 -0.3696  0.0782  1.3336
 5651TIP3    H238445   4.624   2.087  13.596  0.7674 -0.1658 -0.7632
 5652TIP3   OH238446   0.834   5.710   2.603  0.0502  0.5491  0.0797
 5652TIP3    H138447   0.752   5.720   2.651 -0.2584 -1.0277 -0.0466
 5652TIP3    H238448   0.810   5.725   2.511 -0.3248 -0.8358 -0.0686
 5653TIP3   OH238449   5.765   0.603   6.194  0.2912  0.0340 -0.2688
 5653TIP3    H138450   5.791   0.535   6.132 -1.4758  1.1089 -2.3132
 5653TIP3    H238451   5.766   0.684   6.143 -1.3532  0.9622  1.0517
 5654TIP3   OH238452   0.159   0.705   5.710  0.3757  0.4804 -0.5352
 5654TIP3    H138453   0.191   0.615   5.698 -1.5544 -0.5058  1.1163
 5654TIP3    H238454   0.074   0.706   5.665  1.1747  2.1024 -2.1516
 5655TIP3   OH238455   1.240   1.887  13.784  0.5338  0.4445  0.0890
 5655TIP3    H138456   1.188   1.827  13.837  0.2519  0.9084  0.3544
 5655TIP3    H238457   1.180   1.917  13.716  0.8329  0.0124 -0.3702
 5656TIP3   OH238458   0.194   2.873  14.265 -0.0702 -0.3327  0.3883
 5656TIP3    H138459   0.192   2.881  14.170 -1.0424  1.3447  0.5009
 5656TIP3    H238460   0.277   2.830  14.284  0.4062 -0.1566 -1.1866
 5657TIP3   OH238461   0.386   4.344  15.137 -0.3279  0.2668  0.0235
 5657TIP3    H138462   0.454   4.297  15.185 -0.9299 -1.6618 -0.9061
 5657TIP3    H238463   0.419   4.349  15.047 -1.9255 -1.9578 -0.7720
 5658TIP3   OH238464   6.243   5.357   5.054 -0.2439 -0.1945 -0.3100
 5658TIP3    H138465   6.177   5.292   5.077 -1.8088  0.5944 -2.3301
 5658TIP3    H238466   6.257   5.407   5.135 -1.8451 -0.5999  0.2473
 5659TIP3   OH238467   5.834   0.428  11.696  0.2898  0.0629  0.6267
 5659TIP3    H138468   5.830   0.348  11.642 -0.2311  0.1738  0.4986
 5659TIP3    H238469   5.826   0.499  11.633 -0.3696  0.1930  0.8525
 5660TIP3   OH238470   2.865   2.073  12.103  0.0396  0.0717  0.2398
 5660TIP3    H138471   2.927   2.009  12.068  1.3934 -0.1049  2.7237
 5660TIP3    H238472   2.787   2.022  12.124  0.8039 -0.6499  1.4211
 5661TIP3   OH238473   0.607   5.157  16.962 -0.6866  0.0851 -0.3794
 5661TIP3    H138474   0.529   5.116  16.925  1.2766 -3.5466 -0.9242
 5661TIP3    H238475   0.606   5.131  17.054 -0.6901  1.0421 -0.0987
 5662TIP3   OH238476   6.647   4.868  14.342 -0.0550 -0.2109  0.0023
 5662TIP3    H138477   6.723   4.811  14.335 -0.8829 -1.2404 -1.0363
 5662TIP3    H238478   6.628   4.895  14.252 -1.0989 -0.2268  0.2026
 5663TIP3   OH238479   5.896   4.759  13.108  0.1963 -0.3578  0.2779
 5663TIP3    H138480   5.946   4.712  13.174 -2.5267 -2.5217  1.0022
 5663TIP3    H238481   5.868   4.691  13.046 -0.4910  1.0096 -0.9892
 5664TIP3   OH238482   1.217   1.860   3.615  0.3594 -0.3369 -0.3917
 5664TIP3    H138483   1.312   1.860   3.605  0.4138 -1.1974  0.0107
 5664TIP3    H238484   1.195   1.769   3.634 -0.3382  0.1474  1.3519
 5665TIP3   OH238485   5.454   0.014  17.173  0.1828  0.8649  0.1713
 5665TIP3    H138486   5.359   0.014  17.160  0.2302 -0.2551 -0.2945
 5665TIP3    H238487   5.489   0.052  17.092  0.1599  0.4387 -0.0442
 5666TIP3   OH238488   4.123   5.356  14.912 -0.1342 -0.1267 -0.5908
 5666TIP3    H138489   4.193   5.354  14.847 -0.1596  0.2698 -0.6372
 5666TIP3    H238490   4.118   5.448  14.939 -0.5304 -0.1787 -0.4752
 5667TIP3   OH238491   0.548   0.165   0.581 -0.3081 -0.6707  0.4341
 5667TIP3    H138492   0.608   0.122   0.519 -0.5707  0.0232 -0.3071
 5667TIP3    H238493   0.461   0.137   0.553 -0.4633  0.1102  0.1256
 5668TIP3   OH238494   0.262   3.945   4.872 -0.2887 -0.6712 -0.6703
 5668TIP3    H138495   0.277   3.851   4.861 -0.4374 -0.9046  0.9539
 5668TIP3    H238496   0.213   3.952   4.954 -2.2814  0.6712 -1.8935
 5669TIP3   OH238497   2.241   0.121   4.208 -0.5082  0.1174  0.3262
 5669TIP3    H138498   2.324   0.133   4.255  0.5992  3.1921 -2.0949
 5669TIP3    H238499   2.183   0.188   4.244 -1.3325 -0.7376  0.6347
 5670TIP3   OH238500   0.906   3.087   0.410  0.0890  1.0848  0.1775
 5670TIP3    H138501   0.885   3.157   0.472 -0.9750  0.7645  0.1796
 5670TIP3    H238502   0.823   3.044   0.391  0.9384 -1.2989  1.4721
 5671TIP3   OH238503   3.000   1.046  12.177  0.4129  0.2650  0.0090
 5671TIP3    H138504   2.956   1.014  12.256  0.5897 -2.2636 -0.8316
 5671TIP3    H238505   3.063   0.977  12.155  0.8569  1.2360 -1.9568
 5672TIP3   OH238506   0.610   3.804  14.824 -0.0638 -0.1255 -0.2472
 5672TIP3    H138507   0.613   3.732  14.760 -0.8861  0.8796 -1.4707
 5672TIP3    H238508   0.603   3.883  14.770 -0.5035  0.7739  1.0961
 5673TIP3   OH238509   4.246   5.277   2.809  0.1123 -0.6466 -0.6030
 5673TIP3    H138510   4.336   5.276   2.841  0.0813  0.4844 -0.4441
 5673TIP3    H238511   4.250   5.319   2.723 -0.3070 -0.2039 -0.4154
 5674TIP3   OH238512   3.404   1.509   0.276  0.5820 -0.3973 -0.0152
 5674TIP3    H138513   3.477   1.458   0.242  1.3020 -1.3149  2.7241
 5674TIP3    H238514   3.443   1.567   0.341 -0.7547  1.1897 -0.5484
 5675TIP3   OH238515   2.282   2.115   0.608  0.1088 -0.0741 -0.0807
 5675TIP3    H138516   2.273   2.167   0.528  0.0489  0.4385  0.2522
 5675TIP3    H238517   2.196   2.073   0.618  0.7890 -1.9203 -1.4733
 5676TIP3   OH238518   3.618   1.940   4.790 -0.4126 -0.6316  0.4183
 5676TIP3    H138519   3.573   2.024   4.800 -0.0302 -0.3208 -0.3287
 5676TIP3    H238520   3.612   1.898   4.876  0.6103  0.7779  1.2209
 5677TIP3   OH238521   5.574   2.549   5.543 -0.4141  0.3118  0.2259
 5677TIP3    H138522   5.576   2.638   5.510  0.6702  0.4950  0.7275
 5677TIP3    H238523   5.481   2.527   5.549 -0.7228  0.1883 -3.0747
 5678TIP3   OH238524   5.165   4.479  14.404 -0.2508  0.5606 -0.0306
 5678TIP3    H138525   5.082   4.501  14.446  0.1791 -0.9656  1.7403
 5678TIP3    H238526   5.140   4.448  14.317 -1.7316 -1.4196  1.0201
 5679TIP3   OH238527   5.818   1.854  16.379 -0.6573 -0.5199 -0.2940
 5679TIP3    H138528   5.888   1.885  16.437 -0.6943 -0.1509 -0.4480
 5679TIP3    H238529   5.848   1.876  16.291 -1.1351 -0.0105 -0.3374
 5680TIP3   OH238530   4.109   2.529  12.279  0.6105  0.3230 -0.5601
 5680TIP3    H138531   4.201   2.504  12.283  0.0261 -1.8738  2.6431
 5680TIP3    H238532   4.104   2.609  12.333  0.3470 -1.0719  1.6096
 5681TIP3   OH238533   4.954   2.997  11.767  0.1073  0.5511 -0.5631
 5681TIP3    H138534   4.885   2.958  11.820 -0.2709  0.8909 -0.8001
 5681TIP3    H238535   5.016   2.926  11.752 -0.0108  0.3328 -0.0535
 5682TIP3   OH238536   1.847   4.631   5.337  0.1353  0.1579  0.1072
 5682TIP3    H138537   1.925   4.622   5.391 -1.0697  0.5557  1.9939
 5682TIP3    H238538   1.869   4.585   5.256  2.0740 -0.2869  0.8242
 5683TIP3   OH238539   2.497   4.838  14.877  0.0698  0.1416  0.3976
 5683TIP3    H138540   2.493   4.812  14.969 -0.1250 -1.3605 -0.0061
 5683TIP3    H238541   2.478   4.757  14.828  0.0562  0.9300 -0.9602
 5684TIP3   OH238542   3.859   6.003  15.174  0.3753  0.0563 -0.1006
 5684TIP3    H138543   3.820   5.951  15.104 -0.8435  0.4705  0.2504
 5684TIP3    H238544   3.824   6.091  15.162  1.7987  0.6489 -0.2160
 5685TIP3   OH238545   3.105   6.042  13.496  0.6780 -0.7298 -0.3063
 5685TIP3    H138546   3.116   6.123  13.448  1.7078 -0.5409  0.2188
 5685TIP3    H238547   3.036   5.995  13.449  0.9822 -0.1286 -1.3787
 5686TIP3   OH238548   6.382   1.614   1.046  0.2457 -1.1516 -0.6070
 5686TIP3    H138549   6.438   1.668   0.989 -0.5398  0.9174  0.4745
 5686TIP3    H238550   6.443   1.555   1.090  2.0023  2.1659  1.8566
 5687TIP3   OH238551   4.996   3.686   3.419  0.3739 -0.3096  0.6657
 5687TIP3    H138552   5.078   3.723   3.453  0.1214  0.2469  0.6919
 5687TIP3    H238553   5.016   3.594   3.403  1.1895 -0.0437  0.0765
 5688TIP3   OH238554   4.691   4.469   2.387 -0.4967 -0.0006  0.1551
 5688TIP3    H138555   4.600   4.451   2.410 -0.2026  0.3153  1.6829
 5688TIP3    H238556   4.737   4.470   2.471  0.6445  1.3648 -0.4572
 5689TIP3   OH238557   4.112   4.144  16.531  0.5394 -0.0999 -0.2937
 5689TIP3    H138558   4.171   4.208  16.490  1.5850 -0.4757  0.5504
 5689TIP3    H238559   4.058   4.112  16.459  0.4955  1.1948 -0.8670
 5690TIP3   OH238560   1.812   1.982   1.308  0.4224 -0.1839 -0.1664
 5690TIP3    H138561   1.732   1.940   1.279  1.1784 -0.8616 -1.3738
 5690TIP3    H238562   1.834   1.940   1.391  0.8263 -1.7843 -1.0371
 5691TIP3   OH238563   3.561   6.425  16.788 -0.6955  0.6191  0.2522
 5691TIP3    H138564   3.645   6.388  16.816  0.3042  1.2978 -1.7074
 5691TIP3    H238565   3.522   6.460  16.868  0.9303  0.3808  1.1805
 5692TIP3   OH238566   2.748   3.806  16.396  0.8074 -0.0662  0.4285
 5692TIP3    H138567   2.821   3.843  16.445  0.3999  0.0713  0.9319
 5692TIP3    H238568   2.680   3.792  16.461  0.0953  0.5519 -0.1623
 5693TIP3   OH238569   3.608   0.991  16.846  0.5516 -0.5941  0.0678
 5693TIP3    H138570   3.662   1.018  16.772 -2.4846 -0.4165 -2.2820
 5693TIP3    H238571   3.568   0.908  16.818 -0.4180 -0.7102  1.6646
 5694TIP3   OH238572   4.837   5.816   1.854  0.0483 -0.0886  0.0296
 5694TIP3    H138573   4.763   5.823   1.793  0.1076 -0.3532 -0.0744
 5694TIP3    H238574   4.889   5.895   1.838 -0.4004  0.2768  0.3528
 5695TIP3   OH238575   0.260   3.169  13.070 -0.8589 -0.7158 -0.0043
 5695TIP3    H138576   0.236   3.103  13.005 -1.3171 -1.1216  0.5629
 5695TIP3    H238577   0.277   3.248  13.018 -0.7586 -1.1525 -0.6531
 5696TIP3   OH238578   5.008   5.696  16.507 -0.0473  0.1046  0.0268
 5696TIP3    H138579   5.068   5.645  16.561 -2.4618 -1.7442  1.1514
 5696TIP3    H238580   4.987   5.638  16.434 -1.5974  0.0986  0.4587
 5697TIP3   OH238581   0.774   1.047   1.876 -0.7888  0.4623  0.3355
 5697TIP3    H138582   0.792   1.141   1.882 -0.6472  0.4850 -0.4130
 5697TIP3    H238583   0.856   1.009   1.846 -1.1376  0.2250 -0.3371
 5698TIP3   OH238584   1.072   2.100  16.512  0.0813  0.5536 -0.4572
 5698TIP3    H138585   0.998   2.080  16.454  0.4210  0.3740 -0.8308
 5698TIP3    H238586   1.137   2.033  16.492 -1.0258 -1.6341  2.4792
 5699TIP3   OH238587   4.263   6.493   0.773 -0.1121 -0.5075 -1.1004
 5699TIP3    H138588   4.240   6.453   0.857 -0.9537  1.9974 -0.0557
 5699TIP3    H238589   4.306   6.576   0.796 -1.2311  0.7235 -3.1223
 5700TIP3   OH238590   5.892   1.812   4.000  0.1667 -0.8506  0.4177
 5700TIP3    H138591   5.916   1.885   4.056 -0.1491 -1.9461  2.0521
 5700TIP3    H238592   5.874   1.740   4.061 -2.2854 -1.5060 -0.9396
 5701TIP3   OH238593   2.183   0.894  14.953  0.0224  0.3354 -0.1359
 5701TIP3    H138594   2.102   0.844  14.940 -0.4743  0.5293  1.8657
 5701TIP3    H238595   2.243   0.833  14.995  0.2948  0.6906 -0.0044
 5702TIP3   OH238596   2.330   3.709  14.500 -0.0974  0.5651 -0.3676
 5702TIP3    H138597   2.300   3.636  14.446 -1.3457  1.2447 -0.6382
 5702TIP3    H238598   2.368   3.771  14.438  0.6602  0.3022 -0.1759
 5703TIP3   OH238599   6.359   1.536  17.210 -0.4183 -0.4880  0.0254
 5703TIP3    H138600   6.356   1.460  17.152 -0.9901 -0.2042 -0.3244
 5703TIP3    H238601   6.275   1.580  17.197  0.5825  1.1977 -1.1293
 5704TIP3   OH238602   3.610   6.104   3.752 -0.0289  0.5077 -0.4767
 5704TIP3    H138603   3.546   6.040   3.721  0.2581 -1.0409  1.8388
 5704TIP3    H238604   3.691   6.080   3.708  0.4497 -1.8401  1.4537
 5705TIP3   OH238605   5.981   5.942   2.406 -0.0340  0.0574 -0.7111
 5705TIP3    H138606   5.897   5.903   2.429  1.0457 -1.5355  0.8519
 5705TIP3    H238607   6.008   5.895   2.327  0.7819 -1.8318  0.5872
 5706TIP3   OH238608   5.495   6.726   3.704 -0.2256  0.2190  0.2765
 5706TIP3    H138609   5.524   6.815   3.725  2.5862 -0.7112  0.8376
 5706TIP3    H238610   5.464   6.691   3.787  1.2349 -0.1669  0.6779
 5707TIP3   OH238611   1.874   5.434   4.824 -0.0585 -0.3053  0.1975
 5707TIP3    H138612   1.793   5.476   4.853 -0.2453 -2.0149  2.4002
 5707TIP3    H238613   1.895   5.372   4.893  2.8156 -0.3944 -0.6217
 5708TIP3   OH238614   6.312   0.965  12.336  0.1752  0.6766 -0.2240
 5708TIP3    H138615   6.391   1.019  12.349  0.0692  0.4119  1.8464
 5708TIP3    H238616   6.277   0.953  12.424 -1.5467 -0.2009 -0.9893
 5709TIP3   OH238617   3.282   2.104  12.245 -0.0873 -0.8431  0.1071
 5709TIP3    H138618   3.337   2.117  12.167 -1.7500  0.0781 -0.9601
 5709TIP3    H238619   3.235   2.022  12.227 -0.6099 -0.5314  0.0509
 5710TIP3   OH238620   0.748   1.539  13.784  0.2585  0.1656 -0.2794
 5710TIP3    H138621   0.747   1.523  13.878 -2.4303 -1.4187 -0.4644
 5710TIP3    H238622   0.752   1.634  13.776  1.1954  0.3096  1.3766
 5711TIP3   OH238623   6.367   2.458   1.851 -0.0086  0.0356 -0.3285
 5711TIP3    H138624   6.389   2.517   1.779  0.8755  0.9699  0.6748
 5711TIP3    H238625   6.272   2.461   1.856 -0.0647  0.1542 -1.2878
 5712TIP3   OH238626   2.714   0.590  11.823  0.2978 -0.3185 -0.4167
 5712TIP3    H138627   2.729   0.628  11.736 -0.9583  0.4222 -0.3341
 5712TIP3    H238628   2.756   0.652  11.883 -0.9663  0.4871 -0.3428
 5713TIP3   OH238629   2.023   4.138   2.633 -0.0606  0.9144  0.2936
 5713TIP3    H138630   1.951   4.149   2.571 -1.0064  0.0560  1.1969
 5713TIP3    H238631   2.101   4.133   2.579 -0.7270  1.3588 -0.7415
 5714TIP3   OH238632   0.796   4.542  11.858  0.3717  0.0280  0.7615
 5714TIP3    H138633   0.860   4.472  11.871  1.0974  0.3863 -0.7319
 5714TIP3    H238634   0.798   4.591  11.940 -0.5388 -1.9680  2.0696
 5715TIP3   OH238635   1.680   5.525  15.359 -0.6314  0.4145  0.1600
 5715TIP3    H138636   1.652   5.465  15.428 -0.6156  1.1898  0.8648
 5715TIP3    H238637   1.613   5.516  15.291 -0.2298 -0.9332 -0.0800
 5716TIP3   OH238638   0.770   4.785  14.737 -0.3554  0.7975 -0.2194
 5716TIP3    H138639   0.819   4.846  14.681 -0.1086  0.9422  0.1494
 5716TIP3    H238640   0.806   4.799  14.824  1.2788 -1.4265 -0.4420
 5717TIP3   OH238641   2.491   5.002   5.395 -0.3284  0.1075  0.7924
 5717TIP3    H138642   2.512   4.957   5.313 -1.9817 -0.1080  0.4516
 5717TIP3    H238643   2.501   5.095   5.374  1.1708  0.0076  0.9364
 5718TIP3   OH238644   0.591   4.668  11.752 -0.1883 -0.2430  0.1357
 5718TIP3    H138645   0.669   4.643  11.801 -0.6748  0.3743  1.2820
 5718TIP3    H238646   0.615   4.659  11.660  1.5698  0.9385  0.4429
 5719TIP3   OH238647   6.284   3.853  14.803  0.1801  0.3299  0.3147
 5719TIP3    H138648   6.260   3.784  14.864  0.1961  0.7625  0.8118
 5719TIP3    H238649   6.380   3.853  14.803  0.2887 -1.6907 -1.9974
 5720TIP3   OH238650   4.316   0.777  16.788 -0.3089  0.0813  0.4027
 5720TIP3    H138651   4.323   0.797  16.881  0.1955 -0.7784  0.5575
 5720TIP3    H238652   4.363   0.849  16.745 -0.6801  0.5616  0.7979
 5721TIP3   OH238653   3.476   1.336  12.580 -0.2965  0.0110  0.0793
 5721TIP3    H138654   3.445   1.423  12.605  0.5065 -0.0441  1.3525
 5721TIP3    H238655   3.558   1.325  12.629  0.6472 -0.6859 -1.5540
 5722TIP3   OH238656   6.289   1.549  16.298  0.7646 -0.0477  0.3127
 5722TIP3    H138657   6.201   1.586  16.305  0.4060 -0.5791 -1.0152
 5722TIP3    H238658   6.348   1.620  16.323  0.0091  0.7733 -0.1979
 5723TIP3   OH238659   3.241   5.990   5.938  0.2884  0.0895 -0.3752
 5723TIP3    H138660   3.153   6.002   5.903  1.0651  1.8168 -1.9500
 5723TIP3    H238661   3.271   5.908   5.900 -0.0421  0.3468 -1.2066
 5724TIP3   OH238662   2.295   0.486   4.086 -0.5950  0.4604  0.0476
 5724TIP3    H138663   2.368   0.547   4.097 -1.4044  1.4628 -0.0451
 5724TIP3    H238664   2.262   0.473   4.175 -0.2539 -0.0705  0.1019
 5725TIP3   OH238665   5.043   4.475  15.242 -0.1619 -0.6719  0.1495
 5725TIP3    H138666   5.008   4.489  15.154 -0.2418  0.6183  0.3635
 5725TIP3    H238667   4.973   4.504  15.301 -0.0846 -1.4585  0.6451
 5726TIP3   OH238668   3.782   5.774   0.406 -0.2494 -0.4819 -0.4108
 5726TIP3    H138669   3.780   5.775   0.310 -0.1267 -0.8455 -0.4186
 5726TIP3    H238670   3.856   5.718   0.428 -0.6492 -0.9014 -0.1051
 5727TIP3   OH238671   6.743   1.536  13.791 -0.6049  0.0600 -0.4701
 5727TIP3    H138672   6.827   1.495  13.812 -2.3075 -2.8643  1.3058
 5727TIP3    H238673   6.747   1.622  13.834  1.5595  0.1698 -0.7733
 5728TIP3   OH238674   0.452   3.313   0.199 -0.0675  0.3869  0.3106
 5728TIP3    H138675   0.408   3.334   0.117  0.3148  1.9433  0.4753
 5728TIP3    H238676   0.529   3.261   0.172 -1.0907 -0.9725 -0.0997
 5729TIP3   OH238677   6.313   5.564  11.194 -0.0857 -0.3018 -0.0876
 5729TIP3    H138678   6.352   5.634  11.247 -0.3400 -0.6095  0.5123
 5729TIP3    H238679   6.351   5.577  11.107 -1.3318  1.5634 -0.4270
 5730TIP3   OH238680   5.067   0.602  14.430  0.1257  0.2596  0.5531
 5730TIP3    H138681   5.120   0.592  14.351 -1.5748 -0.7692 -0.5526
 5730TIP3    H238682   5.104   0.677  14.475  0.7877  1.2808 -1.5510
 5731TIP3   OH238683   1.131   4.072  15.114  0.0543  0.8453  0.0508
 5731TIP3    H138684   1.226   4.088  15.114  0.0451  0.9660 -0.7503
 5731TIP3    H238685   1.105   4.085  15.022 -1.0656  2.6958  0.5847
 5732TIP3   OH238686   5.667   0.542  13.791  0.2466 -0.0456  0.2065
 5732TIP3    H138687   5.594   0.495  13.749 -0.5788  0.5078  1.0016
 5732TIP3    H238688   5.736   0.543  13.724  0.1116 -1.9380 -0.0212
 5733TIP3   OH238689   5.830   0.059   4.624  0.3311 -0.2287 -0.7559
 5733TIP3    H138690   5.874   0.139   4.596  0.4221 -0.7371 -2.1268
 5733TIP3    H238691   5.752   0.053   4.569  0.3502 -1.1045 -0.7071
 5734TIP3   OH238692   6.712   5.082   3.839 -0.5479  0.4505 -0.1075
 5734TIP3    H138693   6.652   5.053   3.908 -1.2251  0.9371 -0.4674
 5734TIP3    H238694   6.795   5.040   3.860 -0.6185  0.9155  1.2458
 5735TIP3   OH238695   5.433   4.432   3.175  0.3821  0.2844 -0.1571
 5735TIP3    H138696   5.446   4.339   3.158 -1.1041 -0.0135  0.2110
 5735TIP3    H238697   5.394   4.436   3.262 -0.6841  1.1509 -0.6455
 5736TIP3   OH238698   3.592   2.547   0.895 -0.2116  0.2735 -0.1350
 5736TIP3    H138699   3.598   2.462   0.939 -2.2873  0.5441  0.7486
 5736TIP3    H238700   3.528   2.533   0.825 -2.1845  1.5835  1.3212
 5737TIP3   OH238701   3.685   3.107  15.361  0.5722  0.2220  0.2871
 5737TIP3    H138702   3.738   3.182  15.334 -0.1497  0.9187  0.7343
 5737TIP3    H238703   3.703   3.039  15.296 -0.4692  1.5445 -1.4757
 5738TIP3   OH238704   0.788   1.325   4.763  0.1865  0.2016  0.1397
 5738TIP3    H138705   0.853   1.273   4.809 -1.3424 -0.3456  1.8071
 5738TIP3    H238706   0.716   1.334   4.825 -1.5572  0.3429 -1.7931
 5739TIP3   OH238707   1.354   4.814   0.934  0.2054  0.2481  0.6145
 5739TIP3    H138708   1.289   4.745   0.951 -0.9682  1.3055  0.5462
 5739TIP3    H238709   1.426   4.794   0.995  1.5625 -3.0597 -1.7908
 5740TIP3   OH238710   1.860   5.325  17.022  0.1695 -0.1790  0.3639
 5740TIP3    H138711   1.809   5.281  17.090  0.1380  0.8788  1.0508
 5740TIP3    H238712   1.933   5.365  17.068  0.9994 -0.7070 -0.4518
 5741TIP3   OH238713   2.245   2.006   4.593 -0.3879  0.4045 -0.0731
 5741TIP3    H138714   2.233   2.097   4.622  0.9558  0.9746 -1.1850
 5741TIP3    H238715   2.328   1.980   4.631 -1.5440 -1.0173  1.6726
 5742TIP3   OH238716   2.097   3.849  15.910 -0.3863  0.0144  0.1299
 5742TIP3    H138717   2.016   3.811  15.875  0.1796 -1.3673  0.2634
 5742TIP3    H238718   2.166   3.792  15.877  0.6115  1.5244 -0.4775
 5743TIP3   OH238719   6.304   1.532   3.475 -0.0548 -0.5304  0.1749
 5743TIP3    H138720   6.338   1.465   3.416 -0.7028 -0.9765  0.2933
 5743TIP3    H238721   6.381   1.582   3.502  0.3482 -0.8141 -0.4265
 5744TIP3   OH238722   2.109   0.851   1.187 -0.2779 -0.2325 -0.0994
 5744TIP3    H138723   2.131   0.867   1.279 -1.1732  0.0312  0.0763
 5744TIP3    H238724   2.186   0.880   1.138 -1.3856  3.9260  0.2251
 5745TIP3   OH238725   3.557   4.300  14.670 -0.1113  0.1544 -0.0888
 5745TIP3    H138726   3.646   4.311  14.636 -0.4924 -0.6058 -1.3709
 5745TIP3    H238727   3.542   4.205  14.669 -0.8214  0.2513  0.4553
 5746TIP3   OH238728   3.355   2.134   6.163 -0.0513  0.6954 -0.4462
 5746TIP3    H138729   3.451   2.127   6.164 -0.0488  0.6152  1.0953
 5746TIP3    H238730   3.338   2.227   6.177 -0.1930  0.5403  0.4629
 5747TIP3   OH238731   4.525   6.166  12.465  0.5909 -0.2756  0.1729
 5747TIP3    H138732   4.494   6.209  12.545  1.7522 -0.3883  0.7013
 5747TIP3    H238733   4.617   6.145  12.483  0.4055 -1.8348 -0.5552
 5748TIP3   OH238734   3.963   4.884   2.987  0.0592  0.4056  0.1838
 5748TIP3    H138735   4.040   4.884   2.930  0.3305  1.6531  0.5158
 5748TIP3    H238736   3.997   4.863   3.074  0.3658  2.6800  0.6851
 5749TIP3   OH238737   5.066   0.815   4.339 -0.2128  0.5408  0.2672
 5749TIP3    H138738   5.122   0.890   4.360 -1.7180  1.5310  0.8579
 5749TIP3    H238739   5.128   0.745   4.314  1.2143  2.0040 -0.4764
 5750TIP3   OH238740   3.705   1.933   2.024 -0.4166 -0.0794 -0.0838
 5750TIP3    H138741   3.785   1.881   2.020 -0.1826  0.3452 -1.7643
 5750TIP3    H238742   3.636   1.870   2.044  0.2246 -0.5681  0.6357
 5751TIP3   OH238743   4.866   0.697   0.431  0.0847  0.2239  0.3028
 5751TIP3    H138744   4.917   0.716   0.352  1.1064  0.5645  1.0258
 5751TIP3    H238745   4.775   0.708   0.404  0.3952 -0.1676 -0.9607
 5752TIP3   OH238746   1.279   4.935   3.060  0.3515  0.5254  0.4475
 5752TIP3    H138747   1.293   4.849   3.100  3.2656  1.0699  0.8247
 5752TIP3    H238748   1.269   4.995   3.134 -1.5756  0.5981  0.1871
 5753TIP3   OH238749   6.184   3.666  13.718  0.2700  0.0262 -0.0391
 5753TIP3    H138750   6.095   3.696  13.704 -0.3198 -0.8781  1.4960
 5753TIP3    H238751   6.224   3.734  13.771  0.0767 -0.1872  0.3814
 5754TIP3   OH238752   5.493   2.609  12.547  0.4417  0.2501 -0.0376
 5754TIP3    H138753   5.489   2.609  12.451  1.9131  2.0818 -0.1582
 5754TIP3    H238754   5.525   2.522  12.570  1.7997  0.3614 -1.3421
 5755TIP3   OH238755   0.027   5.225   1.653 -0.6617 -0.3374 -0.2010
 5755TIP3    H138756   0.003   5.198   1.564  0.6087  0.5315 -0.8445
 5755TIP3    H238757  -0.033   5.177   1.710 -1.4351 -0.9936 -1.5201
 5756TIP3   OH238758   3.892   4.268  16.668  0.2310  0.3057  0.2259
 5756TIP3    H138759   3.906   4.358  16.638  0.4224 -0.1153 -0.9698
 5756TIP3    H238760   3.953   4.216  16.616 -0.5615 -0.6343  0.2301
 5757TIP3   OH238761   3.634   2.396  15.020 -0.3985  0.1153  0.0522
 5757TIP3    H138762   3.658   2.323  14.963 -1.0539  1.1285 -1.5939
 5757TIP3    H238763   3.679   2.471  14.983 -4.3929  1.7559 -2.1390
 5758TIP3   OH238764   2.457   0.140   3.675 -0.7820  0.6782  0.1025
 5758TIP3    H138765   2.374   0.187   3.680 -0.8616  0.4694  1.0600
 5758TIP3    H238766   2.503   0.165   3.755 -0.1632  0.3603 -0.1518
 5759TIP3   OH238767   6.015   6.786  13.752  0.6490 -0.0741 -0.6808
 5759TIP3    H138768   6.075   6.762  13.682 -0.5686  0.2720 -1.8934
 5759TIP3    H238769   5.955   6.712  13.759  0.0974  0.3569 -0.7675
 5760TIP3   OH238770   5.417   5.671   4.070 -0.6751  0.3708 -1.0821
 5760TIP3    H138771   5.435   5.648   4.161  0.4569 -1.2806 -1.6846
 5760TIP3    H238772   5.498   5.653   4.023 -0.5626  3.1185 -2.1365
 5761TIP3   OH238773   5.900   2.667   0.795 -0.0537 -0.0717 -0.5936
 5761TIP3    H138774   5.820   2.716   0.779  0.4603  0.5032 -1.4412
 5761TIP3    H238775   5.948   2.720   0.859 -0.8842 -1.0355  0.9045
 5762TIP3   OH238776   4.592   4.729   1.249 -0.3882  0.0549  0.3836
 5762TIP3    H138777   4.636   4.684   1.321  0.2944  1.4788  0.8934
 5762TIP3    H238778   4.500   4.732   1.275 -0.0777  0.9898  1.4698
 5763TIP3   OH238779   5.654   1.246  16.042  0.0233 -0.2604 -0.2234
 5763TIP3    H138780   5.684   1.181  15.979  0.1305  0.0795 -0.5280
 5763TIP3    H238781   5.667   1.204  16.127  0.4365 -0.4991 -0.3984
 5764TIP3   OH238782   1.077   1.571  15.772  0.0396 -0.0109 -0.0971
 5764TIP3    H138783   1.020   1.535  15.841 -0.9232 -1.5938 -1.6623
 5764TIP3    H238784   1.053   1.664  15.769 -0.8480 -0.1872  0.8169
 5765TIP3   OH238785   6.250   6.408   0.993  0.3367  0.0434  0.5190
 5765TIP3    H138786   6.246   6.468   0.919  2.2879 -0.6020 -0.1582
 5765TIP3    H238787   6.256   6.321   0.953 -2.1452 -0.6533  1.4771
 5766TIP3   OH238788   5.992   5.596   4.374  0.4163 -0.2871 -0.2486
 5766TIP3    H138789   6.004   5.588   4.468 -2.3499 -0.6323  0.1623
 5766TIP3    H238790   6.027   5.683   4.352  0.6073  0.0140  1.1915
 5767TIP3   OH238791   3.310   3.020   0.168  0.0976 -0.2953  0.5851
 5767TIP3    H138792   3.289   3.011   0.261 -2.2114 -1.8820 -0.0204
 5767TIP3    H238793   3.277   2.940   0.127  0.0684  0.8288 -1.7796
 5768TIP3   OH238794   2.968   6.055  12.750  0.2400 -0.9735  0.4849
 5768TIP3    H138795   2.897   6.059  12.815 -1.1355 -2.7221 -0.7974
 5768TIP3    H238796   2.939   6.112  12.679  2.0368  1.4425  1.5530
 5769TIP3   OH238797   2.962   4.306  13.128 -0.1454  0.5571  0.3184
 5769TIP3    H138798   2.913   4.235  13.169  0.3606 -0.5193 -0.8873
 5769TIP3    H238799   2.973   4.279  13.037  2.1193  1.0455  0.3907
 5770TIP3   OH238800   6.507   5.130  14.172 -0.0021  0.2225 -0.3217
 5770TIP3    H138801   6.414   5.118  14.152 -0.5904  2.2707  0.8828
 5770TIP3    H238802   6.550   5.135  14.087 -0.8745 -1.3940 -0.8841
 5771TIP3   OH238803   3.400   1.855  16.265  0.2325 -0.0407  0.1338
 5771TIP3    H138804   3.368   1.919  16.202  0.1337 -0.2312 -0.0141
 5771TIP3    H238805   3.494   1.869  16.268  0.2977 -0.3274 -0.3998
 5772TIP3   OH238806   0.395   1.758  12.424 -0.1973 -0.2183  0.6447
 5772TIP3    H138807   0.447   1.789  12.350 -0.7008 -2.2916 -0.6745
 5772TIP3    H238808   0.413   1.820  12.495  1.2145  1.1641 -0.8546
 5773TIP3   OH238809   1.222   0.951  11.915 -0.1097 -0.0402 -0.1602
 5773TIP3    H138810   1.179   0.910  11.839  0.8550  0.1996 -0.8527
 5773TIP3    H238811   1.298   0.996  11.878  0.2788  0.2282  0.9337
 5774TIP3   OH238812   3.409   1.945  14.075  0.0806 -0.0394 -0.2086
 5774TIP3    H138813   3.427   2.035  14.046  1.2027 -0.5858 -1.3174
 5774TIP3    H238814   3.494   1.911  14.103 -0.3597 -0.7151  0.3424
 5775TIP3   OH238815   2.535   2.130   2.048  0.2578  0.1104  0.3396
 5775TIP3    H138816   2.500   2.091   1.968 -0.3897 -1.3786  1.3035
 5775TIP3    H238817   2.513   2.223   2.041 -1.7886 -0.3539 -0.2363
 5776TIP3   OH238818   1.476   5.242  13.496 -0.3110  0.3091 -0.4467
 5776TIP3    H138819   1.510   5.232  13.407 -1.4381 -1.7961 -0.6991
 5776TIP3    H238820   1.473   5.154  13.531 -0.2673  1.0673  1.5628
 5777TIP3   OH238821   6.766   0.337   5.304 -0.5274 -0.1260 -0.3740
 5777TIP3    H138822   6.807   0.322   5.219 -1.1260  1.6454 -1.0193
 5777TIP3    H238823   6.721   0.421   5.295  0.7761  0.9612  2.2015
 5778TIP3   OH238824   2.693   1.752   1.909 -0.5979 -0.4318  0.3077
 5778TIP3    H138825   2.740   1.670   1.925 -1.0744 -0.6748  0.4731
 5778TIP3    H238826   2.689   1.760   1.814 -3.0425 -2.0799  0.1772
 5779TIP3   OH238827   1.527   0.337  14.044  0.7388 -0.6131 -0.2181
 5779TIP3    H138828   1.468   0.272  14.005 -0.5107 -0.7987  1.8044
 5779TIP3    H238829   1.470   0.411  14.064  2.2601  1.5930 -3.2107
 5780TIP3   OH238830   2.758   6.476  12.448 -0.4622  0.2650 -0.0749
 5780TIP3    H138831   2.676   6.446  12.409 -1.0602 -0.7123  1.7964
 5780TIP3    H238832   2.796   6.534  12.383 -2.1633 -0.0234 -1.3951
 5781TIP3   OH238833   0.727   2.225  11.558 -0.1327 -0.6446  0.4290
 5781TIP3    H138834   0.806   2.268  11.588 -1.4213  1.3877  1.0831
 5781TIP3    H238835   0.709   2.263  11.472  1.4724 -3.7276 -1.4850
 5782TIP3   OH238836   6.357   5.928   3.845 -0.0661  0.8757  0.2887
 5782TIP3    H138837   6.379   5.835   3.846 -1.1288  0.5974 -0.3722
 5782TIP3    H238838   6.292   5.939   3.914 -1.5038  0.6752 -0.9585
 5783TIP3   OH238839   2.659   6.623  10.833  0.1555  0.4999  0.1473
 5783TIP3    H138840   2.727   6.558  10.818 -0.3787  0.4300 -2.4623
 5783TIP3    H238841   2.706   6.706  10.834  0.6251  0.2491  1.7130
 5784TIP3   OH238842   6.550   0.866   4.737 -0.3456  0.2649  0.3635
 5784TIP3    H138843   6.501   0.859   4.819 -1.2400  0.8481 -0.0947
 5784TIP3    H238844   6.595   0.782   4.728  0.5084  0.5372  1.9021
 5785TIP3   OH238845   4.936   2.148  11.211 -0.0844  0.4361  0.3291
 5785TIP3    H138846   4.952   2.175  11.302 -1.3810  1.5748  0.2476
 5785TIP3    H238847   4.923   2.053  11.216  0.9468  0.3167  1.1564
 5786TIP3   OH238848   6.797   1.724  15.795  0.1126 -0.3930  0.5627
 5786TIP3    H138849   6.779   1.640  15.837 -0.9747 -0.4169  0.0629
 5786TIP3    H238850   6.864   1.704  15.730  0.8714 -0.5909  1.3748
 5787TIP3   OH238851   2.979   0.789   3.824  0.3954 -0.9248 -0.0002
 5787TIP3    H138852   2.941   0.782   3.737 -2.1745  1.0095  0.8222
 5787TIP3    H238853   3.046   0.857   3.815  0.2831 -0.8749 -0.4939
 5788TIP3   OH238854   1.040   3.551   0.450  0.0771 -0.8285  0.1405
 5788TIP3    H138855   1.048   3.515   0.539  1.3548  0.4870  0.5981
 5788TIP3    H238856   0.968   3.613   0.455 -0.0480 -0.9746  0.1699
 5789TIP3   OH238857   5.169   1.515   3.844  0.2119  0.1991 -0.3143
 5789TIP3    H138858   5.236   1.579   3.820  0.7488  0.3317  1.3674
 5789TIP3    H238859   5.091   1.568   3.863  0.3728  0.2758  0.1412
 5790TIP3   OH238860   5.430   5.904  13.105  0.2050  0.2676  0.4833
 5790TIP3    H138861   5.350   5.951  13.126  1.2447  2.8150 -0.7786
 5790TIP3    H238862   5.493   5.972  13.083  1.8304 -1.7302 -1.5994
 5791TIP3   OH238863   4.578   5.438   4.118 -0.3366 -0.1745 -0.0107
 5791TIP3    H138864   4.615   5.365   4.067  1.0385  0.1889  0.4374
 5791TIP3    H238865   4.563   5.401   4.205 -0.3169 -0.1064  0.0211
 5792TIP3   OH238866   4.417   4.470  11.136  0.1968 -0.6508 -0.2278
 5792TIP3    H138867   4.430   4.434  11.223  0.1448 -0.7377 -0.2560
 5792TIP3    H238868   4.337   4.523  11.144  0.6397 -0.0046 -0.0194
 5793TIP3   OH238869   6.277   3.895   4.491 -0.2888 -0.0351  0.4367
 5793TIP3    H138870   6.354   3.944   4.519 -1.0837  1.0403  0.8317
 5793TIP3    H238871   6.304   3.803   4.493  2.0466  0.4012 -2.6360
 5794TIP3   OH238872   3.091   5.247  13.768 -0.4513 -0.0147  0.3080
 5794TIP3    H138873   3.174   5.235  13.815 -0.6211  0.2280  0.6691
 5794TIP3    H238874   3.093   5.180  13.700  1.0868  1.3947 -1.1676
 5795TIP3   OH238875   5.123   4.411  15.530  0.0060 -0.1862  0.0815
 5795TIP3    H138876   5.090   4.392  15.442 -1.6661  0.9974  0.4193
 5795TIP3    H238877   5.070   4.356  15.587  0.6470 -0.4574  0.4278
 5796TIP3   OH238878   1.754   0.626  12.919  0.6119 -0.6805 -0.1437
 5796TIP3    H138879   1.723   0.548  12.875 -0.0690 -0.4871 -0.0087
 5796TIP3    H238880   1.802   0.674  12.852  0.4223 -0.8653 -0.4115
 5797TIP3   OH238881   6.475   0.044  15.698  0.5784 -0.6730  0.0062
 5797TIP3    H138882   6.405  -0.001  15.651  1.0034 -0.2590 -1.0585
 5797TIP3    H238883   6.430   0.102  15.759  0.0136 -0.9381 -0.1540
 5798TIP3   OH238884   5.967   1.016   1.236  0.1436  0.2241  0.3366
 5798TIP3    H138885   6.054   1.037   1.271 -0.7023 -0.4736  3.0610
 5798TIP3    H238886   5.908   1.075   1.281 -1.0597 -0.9832  0.3988
 5799TIP3   OH238887   1.150   4.773  16.895 -0.5371  0.1147  0.8137
 5799TIP3    H138888   1.211   4.787  16.822 -1.9711 -1.6657 -0.8319
 5799TIP3    H238889   1.120   4.861  16.918 -0.7909  0.6933 -1.4750
 5800TIP3   OH238890   0.063   0.568  14.477 -0.3421  0.4170  0.0422
 5800TIP3    H138891   0.002   0.573  14.551 -0.7610 -1.9454 -0.0620
 5800TIP3    H238892   0.012   0.526  14.408  0.7066  0.6126 -0.8691
 5801TIP3   OH238893   6.546   2.666  14.782  0.4323 -0.1675  0.1182
 5801TIP3    H138894   6.575   2.618  14.704  0.3479 -0.1465  0.0730
 5801TIP3    H238895   6.546   2.601  14.852  0.9215 -0.0874  0.1922
 5802TIP3   OH238896   1.368   1.774  12.386 -0.2432  0.1107  0.3709
 5802TIP3    H138897   1.323   1.733  12.312 -1.4717  1.6740  0.1891
 5802TIP3    H238898   1.445   1.719  12.401 -0.4844 -0.7960 -1.4406
 5803TIP3   OH238899   5.804   5.770   1.050  0.5097 -0.1297 -0.3649
 5803TIP3    H138900   5.882   5.727   1.017 -0.1889 -2.3178  0.6453
 5803TIP3    H238901   5.739   5.701   1.056 -1.0619  1.3255  0.2526
 5804TIP3   OH238902   1.426   1.463   2.479 -0.0419  0.3943 -0.5543
 5804TIP3    H138903   1.494   1.467   2.547  0.0302 -1.0056 -0.5112
 5804TIP3    H238904   1.463   1.406   2.411 -1.0430 -0.1521 -0.6610
 5805TIP3   OH238905   3.971   4.418  12.490 -0.0933  0.4041 -0.1780
 5805TIP3    H138906   3.979   4.482  12.419  1.1752 -2.6477 -3.0322
 5805TIP3    H238907   3.885   4.377  12.475  0.5410 -0.8420 -0.5778
 5806TIP3   OH238908   3.357   3.148  10.774  0.0686  0.3109 -0.0643
 5806TIP3    H138909   3.379   3.224  10.828  0.2325  0.3185 -0.1419
 5806TIP3    H238910   3.439   3.100  10.764  0.1621  0.6098 -0.7856
 5807TIP3   OH238911   2.500   3.298  13.136 -0.2072  0.4044 -0.3892
 5807TIP3    H138912   2.452   3.324  13.057 -1.7148 -0.5038  0.1685
 5807TIP3    H238913   2.432   3.260  13.193  0.9188  0.6324  1.1548
 5808TIP3   OH238914   2.524   3.909   3.545 -0.1555 -0.1482 -0.2365
 5808TIP3    H138915   2.518   3.817   3.567  0.4336 -0.2443 -0.4653
 5808TIP3    H238916   2.509   3.955   3.628 -0.6033 -0.4387 -0.1538
 5809TIP3   OH238917   4.947   3.692  10.770  0.5947  0.0788 -0.3046
 5809TIP3    H138918   4.895   3.742  10.833  1.4229  1.5736 -0.7741
 5809TIP3    H238919   5.002   3.636  10.824  2.0398  2.0771  0.4074
 5810TIP3   OH238920   1.988   6.029  13.329 -0.2143  0.2111  0.3461
 5810TIP3    H138921   1.919   6.087  13.361 -1.4300 -0.7994 -0.3411
 5810TIP3    H238922   1.943   5.967  13.271  1.2177 -0.6976  0.1388
 5811TIP3   OH238923   2.644   4.952  16.031 -0.1555  0.2177  0.5251
 5811TIP3    H138924   2.597   4.917  16.106  0.7099  1.0206  1.4803
 5811TIP3    H238925   2.631   5.046  16.036  0.4899  0.3400  0.0816
 5812TIP3   OH238926   1.755   1.261  12.187 -0.2158 -0.4629  0.1248
 5812TIP3    H138927   1.841   1.283  12.223  0.3970  1.8988 -2.4270
 5812TIP3    H238928   1.694   1.313  12.240  0.1132 -0.7143  0.7656
 5813TIP3   OH238929   0.389   0.822   2.797 -0.0708  0.3588 -0.7044
 5813TIP3    H138930   0.452   0.891   2.775 -0.2898  0.2495 -1.7470
 5813TIP3    H238931   0.443   0.745   2.812  0.2497  0.9400  1.3938
 5814TIP3   OH238932   0.617   2.450   3.346 -0.2906 -0.5770  0.2300
 5814TIP3    H138933   0.671   2.488   3.415 -2.9840  0.9472  1.6929
 5814TIP3    H238934   0.668   2.461   3.266  1.8542 -0.0138  1.5943
 5815TIP3   OH238935   1.628   5.254   2.142 -0.6598 -0.0648  0.1049
 5815TIP3    H138936   1.544   5.239   2.097 -0.3463  0.3122 -0.6206
 5815TIP3    H238937   1.689   5.276   2.071  0.0659 -0.3863  0.6209
 5816TIP3   OH238938   4.431   5.486  14.500  0.4335  0.4832 -0.3496
 5816TIP3    H138939   4.451   5.431  14.575  0.3891 -0.6835 -1.1643
 5816TIP3    H238940   4.340   5.512  14.513  0.3816  0.1712 -0.0759
 5817TIP3   OH238941   5.562   1.452  11.610  0.0797 -0.6032 -0.2258
 5817TIP3    H138942   5.568   1.397  11.532  2.1776 -2.6414  1.2558
 5817TIP3    H238943   5.519   1.397  11.676  1.9522 -0.4631  1.2044
 5818TIP3   OH238944   1.049   1.963  11.911 -0.2593 -0.1805  0.1308
 5818TIP3    H138945   0.963   1.920  11.919 -0.5004 -0.0265 -1.2701
 5818TIP3    H238946   1.043   2.011  11.828  1.2347 -0.2682 -0.0406
 5819TIP3   OH238947   0.708   5.154   4.883 -0.2448 -0.1960  0.0208
 5819TIP3    H138948   0.722   5.191   4.971 -0.7929 -1.0363  0.4755
 5819TIP3    H238949   0.617   5.127   4.883 -0.1714 -0.4514 -0.7191
 5820TIP3   OH238950   5.597   0.577  13.320  0.2982  0.8243  0.3929
 5820TIP3    H138951   5.587   0.501  13.377 -1.8352  0.7296 -0.0041
 5820TIP3    H238952   5.636   0.644  13.376 -1.7688  0.7564  2.0582
 5821TIP3   OH238953   1.414   0.940   2.118  0.5566  0.1090 -0.2464
 5821TIP3    H138954   1.439   0.912   2.029 -2.3134  3.3917 -2.3353
 5821TIP3    H238955   1.419   1.035   2.115  0.1237  0.3306  3.1162
 5822TIP3   OH238956   5.113   0.930   3.097  0.3338 -0.3739  0.5608
 5822TIP3    H138957   5.153   0.851   3.135  2.9622 -0.0454 -1.2588
 5822TIP3    H238958   5.159   1.002   3.140 -0.1027  0.1096  0.2157
 5823TIP3   OH238959   1.540   2.598  14.522 -0.2769  0.3812 -0.4023
 5823TIP3    H138960   1.613   2.582  14.581 -2.2136 -0.0728  2.0104
 5823TIP3    H238961   1.482   2.656  14.571 -1.7276  0.4283 -2.0996
 5824TIP3   OH238962   1.224   4.669  11.188 -0.3472 -0.3053  0.2543
 5824TIP3    H138963   1.201   4.609  11.259 -0.1636 -0.1748  0.4261
 5824TIP3    H238964   1.191   4.626  11.109  2.6761 -2.2976 -0.0813
 5825TIP3   OH238965   6.793   6.148   6.959  0.4529 -0.2939 -0.2801
 5825TIP3    H138966   6.708   6.112   6.986  0.7136 -0.5218  0.2525
 5825TIP3    H238967   6.837   6.076   6.915  0.3174 -0.1322 -0.6888
 5826TIP3   OH238968   6.149   3.360  17.117  0.1118  0.3733 -0.1275
 5826TIP3    H138969   6.056   3.340  17.112 -0.2252  1.3672  1.4538
 5826TIP3    H238970   6.164   3.424  17.047 -1.2515  3.0592  1.8835
 5827TIP3   OH238971   2.529   3.369   3.804 -0.0259  0.4738 -0.9181
 5827TIP3    H138972   2.523   3.395   3.896 -3.3834 -0.1101 -0.8227
 5827TIP3    H238973   2.446   3.323   3.787  1.5018 -1.5840 -3.6164
 5828TIP3   OH238974   1.260   5.339   2.885  0.0382  0.4909 -0.1309
 5828TIP3    H138975   1.267   5.376   2.797  2.1761  0.7087  0.0950
 5828TIP3    H238976   1.244   5.246   2.870  3.1430 -0.0143 -0.8673
 5829TIP3   OH238977   4.245   1.888   1.031  0.1537  0.0165  0.0124
 5829TIP3    H138978   4.229   1.927   1.117  0.4722  0.1820 -0.0048
 5829TIP3    H238979   4.340   1.887   1.022  0.1027  0.6777 -0.6469
 5830TIP3   OH238980   5.044   6.069   5.670 -0.4112 -0.0255  0.0515
 5830TIP3    H138981   5.132   6.098   5.696 -0.3463  0.4116 -0.6123
 5830TIP3    H238982   5.044   5.975   5.687 -0.4422  0.2586  1.7583
 5831TIP3   OH238983   4.754   1.437  16.473 -0.2866  0.7550  0.2680
 5831TIP3    H138984   4.713   1.380  16.408 -1.4706  1.9864 -0.1120
 5831TIP3    H238985   4.835   1.392  16.496 -1.5016 -1.4651  0.5437
 5832TIP3   OH238986   5.774   0.002   2.925 -0.0184 -0.3457  0.0275
 5832TIP3    H138987   5.708   0.044   2.870  0.2785  0.3406  0.1846
 5832TIP3    H238988   5.750   0.025   3.015 -0.4590 -1.4022  0.1913
 5833TIP3   OH238989   5.941   4.879   1.225  0.1697  0.2874  0.1813
 5833TIP3    H138990   5.906   4.811   1.167 -0.1512 -1.1674  1.9831
 5833TIP3    H238991   5.909   4.855   1.312  2.3123  1.2208  1.2979
 5834TIP3   OH238992   6.745   6.036  13.338 -0.0058 -0.1543  0.2336
 5834TIP3    H138993   6.808   5.994  13.279 -0.9258 -1.3919  0.0903
 5834TIP3    H238994   6.679   6.072  13.279  0.3854  0.8730  0.4016
 5835TIP3   OH238995   3.649   4.871  11.810  0.6145  0.3369  0.8965
 5835TIP3    H138996   3.554   4.875  11.799  0.5179 -2.3378 -0.0324
 5835TIP3    H238997   3.666   4.915  11.894 -1.1342  2.7324  0.0915
 5836TIP3   OH238998   0.405   6.259  12.437 -0.6104  0.0274 -0.3275
 5836TIP3    H138999   0.332   6.271  12.376  0.0780  0.4300 -1.0903
 5836TIP3    H239000   0.480   6.239  12.381 -0.1390 -0.4263  0.4490
 5837TIP3   OH239001   0.996   3.208  14.614  0.0012  0.7187 -0.6746
 5837TIP3    H139002   1.087   3.198  14.639 -0.4285  0.3213  0.8102
 5837TIP3    H239003   0.984   3.144  14.543  0.5995 -0.0422 -0.1102
 5838TIP3   OH239004   1.023   3.882  13.190  0.6732 -0.4916 -0.1093
 5838TIP3    H139005   1.058   3.969  13.171  0.2682  0.1318  1.7876
 5838TIP3    H239006   0.930   3.896  13.206  0.9787 -0.8801  2.3283
 5839TIP3   OH239007   0.964   6.269  12.417 -0.2915  0.5479 -0.2877
 5839TIP3    H139008   0.960   6.237  12.327  0.0886  0.2177 -0.1919
 5839TIP3    H239009   0.976   6.364  12.408  2.9877  0.2396 -0.6843
 5840TIP3   OH239010   6.472   6.681   3.783  0.3389 -0.2399 -0.4879
 5840TIP3    H139011   6.402   6.677   3.848  0.7830 -0.3356 -0.0086
 5840TIP3    H239012   6.471   6.771   3.751  0.1147 -0.1932 -0.3502
 5841TIP3   OH239013   3.397   2.780  10.251 -0.0800  0.3664  0.1579
 5841TIP3    H139014   3.433   2.852  10.200 -0.9416  1.7988  1.5090
 5841TIP3    H239015   3.302   2.797  10.254 -0.3857 -1.1447  0.0223
 5842TIP3   OH239016   5.089   1.137   4.470 -0.2363  0.0436 -1.0036
 5842TIP3    H139017   5.009   1.113   4.424  0.3527  0.2408 -2.1579
 5842TIP3    H239018   5.079   1.231   4.487 -0.9361 -0.2388  0.2867
 5843TIP3   OH239019   5.908   5.680  14.038  0.5822 -1.2029  0.3434
 5843TIP3    H139020   5.950   5.701  13.955  3.4572  0.1406  1.9907
 5843TIP3    H239021   5.816   5.701  14.024  1.0707 -0.4347 -2.2850
 5844TIP3   OH239022   3.614   1.505  14.008  0.1521  0.3692 -0.0469
 5844TIP3    H139023   3.541   1.469  14.058 -0.6003  0.2848 -1.1549
 5844TIP3    H239024   3.574   1.568  13.949  0.8459 -0.2705 -1.2575
 5845TIP3   OH239025   5.453   3.245  17.250 -0.1795  0.3572  0.0239
 5845TIP3    H139026   5.516   3.265  17.319 -0.6618  2.2411 -0.0232
 5845TIP3    H239027   5.411   3.329  17.231 -2.6017 -0.7657 -0.0498
 5846TIP3   OH239028   1.165   1.329  14.775  0.4157 -0.4532  0.1126
 5846TIP3    H139029   1.195   1.239  14.789  0.2817 -0.3183  1.3845
 5846TIP3    H239030   1.088   1.320  14.720 -1.1219 -1.3672  2.2689
 5847TIP3   OH239031   6.694   5.885   5.749  0.1177 -0.0890  0.4689
 5847TIP3    H139032   6.620   5.935   5.783 -0.5756 -1.7910  1.6035
 5847TIP3    H239033   6.665   5.794   5.752  1.3108 -0.6176 -1.5437
 5848TIP3   OH239034   2.467   3.725  14.188  0.3899 -0.3178 -0.2114
 5848TIP3    H139035   2.514   3.681  14.116  1.4034  0.4029 -0.0163
 5848TIP3    H239036   2.396   3.665  14.210  0.6200 -0.9863 -1.1943
 5849TIP3   OH239037   6.447   3.317   3.962  0.2453  0.1780  0.2139
 5849TIP3    H139038   6.433   3.242   3.903  1.0486 -0.1975  0.4820
 5849TIP3    H239039   6.361   3.356   3.972 -0.7854 -2.3259  2.2420
 5850TIP3   OH239040   1.438   3.006   2.013 -0.0391 -0.2296  0.2130
 5850TIP3    H139041   1.531   3.014   1.991 -0.1592 -2.9084 -1.7400
 5850TIP3    H239042   1.400   2.959   1.940 -2.3813 -1.7226  2.2396
 5851TIP3   OH239043   3.202   5.963   3.400 -0.2610 -0.4880  0.1832
 5851TIP3    H139044   3.264   5.891   3.395 -1.0398 -1.4624  2.8328
 5851TIP3    H239045   3.250   6.034   3.442 -0.7946 -1.1503  1.9846
 5852TIP3   OH239046   4.429   3.465   5.202 -0.3203  0.0303 -0.1612
 5852TIP3    H139047   4.368   3.398   5.230  0.1900 -0.0013  0.9391
 5852TIP3    H239048   4.482   3.423   5.134 -0.1716 -0.6108  0.3390
 5853TIP3   OH239049   0.304   6.039   4.522 -0.0991  0.1708 -0.4659
 5853TIP3    H139050   0.321   5.990   4.441  0.4665 -0.3984 -0.0132
 5853TIP3    H239051   0.250   5.981   4.574  0.4036  0.1078 -0.0084
 5854TIP3   OH239052   2.191   1.071   5.201  0.0320  0.1645  0.0471
 5854TIP3    H139053   2.244   1.067   5.281  0.5304 -0.4383 -0.2998
 5854TIP3    H239054   2.217   1.153   5.159  1.6787 -0.6986 -0.7537
 5855TIP3   OH239055   2.329   6.094  15.177  0.1967  1.1653 -0.2574
 5855TIP3    H139056   2.250   6.083  15.124  2.3419  0.7646 -3.7330
 5855TIP3    H239057   2.304   6.159  15.243 -3.2274  0.3772 -0.5563
 5856TIP3   OH239058   0.131   6.586  16.830  0.4437  0.3355  0.2815
 5856TIP3    H139059   0.095   6.675  16.829  1.0944  0.6061  0.2106
 5856TIP3    H239060   0.096   6.545  16.751 -0.2960  0.3505  0.5986
 5857TIP3   OH239061   4.376   1.022  17.103  0.5179 -0.2469  0.1377
 5857TIP3    H139062   4.443   1.008  17.036  0.7478 -0.7756  0.4643
 5857TIP3    H239063   4.326   0.940  17.104 -0.2613  0.2120 -0.2349
 5858TIP3   OH239064   3.753   5.651   2.770 -0.7155  0.1896 -0.1293
 5858TIP3    H139065   3.827   5.658   2.831 -0.7460 -2.1002  0.2736
 5858TIP3    H239066   3.794   5.643   2.684 -0.6263  1.9364 -0.2767
 5859TIP3   OH239067   5.385   1.676   3.705  0.0483 -0.0394 -0.3833
 5859TIP3    H139068   5.454   1.621   3.667  0.8942 -0.2974  1.4275
 5859TIP3    H239069   5.407   1.765   3.678  2.0428  0.0906  1.4281
 5860TIP3   OH239070   3.058   6.273   5.813 -0.2418  0.6313  0.0078
 5860TIP3    H139071   3.013   6.256   5.896 -0.3072  1.9224  0.2506
 5860TIP3    H239072   2.991   6.264   5.746 -0.6557  1.5693  0.2826
 5861TIP3   OH239073   2.725   5.236   3.508 -0.5156  0.0188 -0.3570
 5861TIP3    H139074   2.773   5.269   3.431 -1.6708  1.6077 -0.4552
 5861TIP3    H239075   2.639   5.277   3.501 -0.5841  0.3702  1.8855
 5862TIP3   OH239076   4.045   4.593  10.407 -0.2125  0.1117 -0.7962
 5862TIP3    H139077   4.123   4.569  10.356 -0.1016  1.0029 -1.0686
 5862TIP3    H239078   4.055   4.687  10.421 -0.7341  0.0422  0.0496
 5863TIP3   OH239079   5.901   3.365  11.360 -0.3020 -0.3191 -0.2946
 5863TIP3    H139080   5.818   3.317  11.361 -0.6802  0.2083  2.3293
 5863TIP3    H239081   5.931   3.360  11.269 -1.8976 -2.7391 -0.7868
 5864TIP3   OH239082   2.808   5.000  12.873  0.1793 -0.6155  0.0628
 5864TIP3    H139083   2.720   5.007  12.836 -0.2573 -0.7903  1.0465
 5864TIP3    H239084   2.824   4.906  12.882 -0.2728 -0.5714  1.5702
 5865TIP3   OH239085   2.094   6.568  10.578  0.4311  0.5400  1.0021
 5865TIP3    H139086   2.189   6.575  10.583  0.8285 -3.1950  1.6794
 5865TIP3    H239087   2.078   6.508  10.505 -1.4929  1.6751  0.4137
 5866TIP3   OH239088   2.755   4.126  13.872  0.0047 -0.1176 -0.0302
 5866TIP3    H139089   2.690   4.076  13.822 -0.8074  0.8366  0.0381
 5866TIP3    H239090   2.742   4.217  13.845 -0.6895  0.4854  2.1042
 5867TIP3   OH239091   6.442   2.225  14.685 -0.0828 -0.1891  0.0993
 5867TIP3    H139092   6.368   2.263  14.637 -0.1075  2.2159  1.8134
 5867TIP3    H239093   6.402   2.167  14.749 -0.5638  1.2112  1.1159
 5868TIP3   OH239094   1.463   1.017  15.450 -0.0389 -0.3259 -0.1171
 5868TIP3    H139095   1.555   1.042  15.446  0.2920 -1.2464  0.9799
 5868TIP3    H239096   1.418   1.094  15.484  0.7976 -0.7771  2.2103
 5869TIP3   OH239097   2.030   4.751  13.851  0.3943 -0.0180  0.0447
 5869TIP3    H139098   2.030   4.759  13.947  1.1141  0.5922  0.0053
 5869TIP3    H239099   2.006   4.838  13.820 -2.8825 -0.9420 -0.3378
 5870TIP3   OH239100   1.392   1.050  13.881 -0.4319  0.2707  0.0905
 5870TIP3    H139101   1.446   1.106  13.936 -0.7005 -0.5243  1.2203
 5870TIP3    H239102   1.311   1.100  13.868 -0.2524  0.5852  0.1782
 5871TIP3   OH239103   3.412   4.051   3.969  0.0913  0.0078 -0.2722
 5871TIP3    H139104   3.331   4.101   3.979  0.0087  0.0612 -1.1024
 5871TIP3    H239105   3.458   4.061   4.052 -0.6903  0.0943  0.1536
 5872TIP3   OH239106   1.908   2.828   3.905 -0.4926 -0.2814 -0.0359
 5872TIP3    H139107   1.964   2.783   3.968 -1.2373 -0.8816  0.2097
 5872TIP3    H239108   1.873   2.759   3.850  0.6828  0.2846 -1.5971
 5873TIP3   OH239109   5.389   0.744   4.657  0.0439  0.1162  0.4038
 5873TIP3    H139110   5.371   0.838   4.648 -1.3254 -0.0628  0.9023
 5873TIP3    H239111   5.307   0.702   4.630  1.3323 -1.0691 -1.9177
 5874TIP3   OH239112   6.443   0.304   0.284 -0.3319 -0.2461 -0.2058
 5874TIP3    H139113   6.412   0.286   0.195 -0.6280  0.6201 -0.2871
 5874TIP3    H239114   6.365   0.332   0.332 -0.1743 -0.7150  0.3340
 5875TIP3   OH239115   4.777   4.752  14.164  0.3113 -0.1138  0.5918
 5875TIP3    H139116   4.821   4.716  14.087 -0.8338 -1.0573  0.3447
 5875TIP3    H239117   4.699   4.794  14.129 -0.9551 -1.7499  1.3146
 5876TIP3   OH239118   4.965   1.761  16.225 -0.6942  0.2499  0.0758
 5876TIP3    H139119   4.906   1.835  16.212 -1.7209 -0.6025 -0.2491
 5876TIP3    H239120   4.909   1.684  16.217  0.3614 -0.5712  0.3591
 5877TIP3   OH239121   4.891   3.499   0.418 -0.4064  0.3602  0.0719
 5877TIP3    H139122   4.954   3.446   0.468  0.2327  0.9078 -0.1374
 5877TIP3    H239123   4.824   3.523   0.481  0.7244  1.5974  0.8573
 5878TIP3   OH239124   3.763   1.845  13.842  0.4505 -0.6021  0.5609
 5878TIP3    H139125   3.783   1.781  13.910  0.6992 -0.7427  0.3559
 5878TIP3    H239126   3.799   1.927  13.876  0.1316 -0.5670  0.8231
 5879TIP3   OH239127   3.136   4.984  16.964  0.3247  0.1557 -0.5334
 5879TIP3    H139128   3.221   4.950  16.936  0.0597 -1.1626  0.1592
 5879TIP3    H239129   3.135   5.074  16.933  1.7889  0.0616 -0.9514
 5880TIP3   OH239130   4.969   3.213  10.376  0.3134 -0.3401 -0.6362
 5880TIP3    H139131   4.983   3.307  10.360  0.7777 -0.2208  0.3744
 5880TIP3    H239132   4.904   3.187  10.311  1.1269  0.3926 -1.7877
 5881TIP3   OH239133   1.246   3.213   5.790 -0.1037 -0.1825  0.0192
 5881TIP3    H139134   1.185   3.162   5.844 -0.1901 -2.6305 -2.1871
 5881TIP3    H239135   1.325   3.159   5.786  0.0104  0.0653 -1.9633
 5882TIP3   OH239136   1.342   6.668   6.271 -0.0514  1.0589 -0.3519
 5882TIP3    H139137   1.324   6.699   6.360  1.2940  0.5853  0.1095
 5882TIP3    H239138   1.355   6.748   6.220 -0.2166  1.3270  0.0215
 5883TIP3   OH239139   5.563   1.925  11.853 -0.4252 -0.1643 -0.2002
 5883TIP3    H139140   5.521   1.996  11.804  2.6403  0.9852 -1.4088
 5883TIP3    H239141   5.567   1.852  11.791 -1.7382 -0.7255  0.3525
 5884TIP3   OH239142   6.465   3.136  15.891  0.3612  0.0570  0.2026
 5884TIP3    H139143   6.452   3.049  15.852  0.4605  0.3601 -0.5277
 5884TIP3    H239144   6.560   3.147  15.895  0.3484  0.1809  0.1730
 5885TIP3   OH239145   3.588   2.451  15.285  0.3053 -0.2461 -0.7413
 5885TIP3    H139146   3.612   2.414  15.200  0.4745 -0.0271 -0.7920
 5885TIP3    H239147   3.547   2.379  15.333 -1.1353 -0.0111 -1.5457
 5886TIP3   OH239148   0.445   5.645  14.531  0.2097  0.5290 -0.0451
 5886TIP3    H139149   0.500   5.571  14.558  1.0271  1.8328  2.1599
 5886TIP3    H239150   0.371   5.644  14.593 -0.2364  1.0394 -0.5563
 5887TIP3   OH239151   4.448   5.128  12.686  0.2651  0.3578  0.0232
 5887TIP3    H139152   4.485   5.216  12.695  0.2112  0.3346  0.5164
 5887TIP3    H239153   4.368   5.140  12.635  0.9927  0.3991 -1.1416
 5888TIP3   OH239154   3.915   0.781  14.941  0.4100  0.7872  0.2240
 5888TIP3    H139155   3.919   0.712  14.874  0.1504  1.3726 -0.4193
 5888TIP3    H239156   3.952   0.741  15.019  1.1883  0.2379 -0.4063
 5889TIP3   OH239157   2.525   5.083  16.390  0.5422  0.1139  0.0563
 5889TIP3    H139158   2.491   5.020  16.326 -0.2498 -0.1445  0.7277
 5889TIP3    H239159   2.523   5.037  16.473  1.0500  0.6443  0.3678
 5890TIP3   OH239160   5.815   3.177   1.839  0.3181  0.0502  0.1078
 5890TIP3    H139161   5.821   3.098   1.785  3.5556 -0.8457  1.4902
 5890TIP3    H239162   5.881   3.235   1.803 -0.3690  1.1488  0.5836
 5891TIP3   OH239163   0.876   5.471   5.777  0.8260  0.0629 -0.0939
 5891TIP3    H139164   0.894   5.565   5.776  2.0477 -0.1562 -0.7980
 5891TIP3    H239165   0.869   5.449   5.870 -0.6468  1.0439  0.0533
 5892TIP3   OH239166   5.626   1.896  16.818 -0.2708  0.4285 -0.4630
 5892TIP3    H139167   5.557   1.951  16.854  1.0301  0.8673  1.5500
 5892TIP3    H239168   5.694   1.958  16.791  1.1482 -0.0699  1.6904
 5893TIP3   OH239169   0.099   3.755   2.754  0.7100  0.4975 -0.4885
 5893TIP3    H139170   0.018   3.717   2.720  1.1486  1.0393 -2.2539
 5893TIP3    H239171   0.155   3.680   2.774 -0.0797  0.1311  0.4319
 5894TIP3   OH239172   4.388   5.853   5.817  0.1840  0.5650 -0.5590
 5894TIP3    H139173   4.325   5.923   5.799 -0.4686  0.2221  0.3400
 5894TIP3    H239174   4.340   5.790   5.870  1.5765  0.8351  1.1393
 5895TIP3   OH239175   0.291   6.261  12.903 -0.1544 -0.0161  0.0293
 5895TIP3    H139176   0.316   6.273  12.812  0.4594 -1.5227 -0.0406
 5895TIP3    H239177   0.344   6.187  12.933 -1.5037 -0.6021  1.1281
 5896TIP3   OH239178   4.103   5.575   1.139  0.3147 -0.5244  0.5961
 5896TIP3    H139179   4.155   5.501   1.110  0.8703  0.6895 -1.8269
 5896TIP3    H239180   4.146   5.651   1.100 -1.6207  0.8084  0.8951
 5897TIP3   OH239181   3.316   1.342   4.318 -0.0738 -0.2252 -0.1833
 5897TIP3    H139182   3.375   1.399   4.268  0.6746 -0.4854  0.3782
 5897TIP3    H239183   3.359   1.332   4.403 -0.5523 -1.0557 -0.0258
 5898TIP3   OH239184   0.744   5.627  14.526  0.2049  0.0308 -0.0583
 5898TIP3    H139185   0.798   5.621  14.604  0.4474 -0.0905 -0.2349
 5898TIP3    H239186   0.732   5.721  14.511  1.2772  0.0889 -0.6447
 5899TIP3   OH239187   0.409   2.271   3.290  0.4547 -0.5771 -0.0524
 5899TIP3    H139188   0.444   2.223   3.214  1.2482 -1.3167  0.7603
 5899TIP3    H239189   0.483   2.320   3.325  0.4531 -1.3296  1.0573
 5900TIP3   OH239190   0.046   6.079   3.555 -0.4761  0.3736  0.4919
 5900TIP3    H139191   0.101   6.042   3.624 -0.7908 -0.2983  0.3899
 5900TIP3    H239192   0.105   6.092   3.481 -0.1312  1.1188  0.8830
 5901TIP3   OH239193   4.630   4.169   4.862 -0.1344  0.0091 -0.1474
 5901TIP3    H139194   4.628   4.091   4.918 -0.0945  0.7975  0.9936
 5901TIP3    H239195   4.620   4.135   4.773 -0.6454 -1.2468  0.3661
 5902TIP3   OH239196   1.367   6.484   0.354  0.5718  0.6288  0.8981
 5902TIP3    H139197   1.356   6.547   0.425  1.8330  0.8981  0.8706
 5902TIP3    H239198   1.297   6.420   0.369 -0.9919  2.2062  0.6937
 5903TIP3   OH239199   4.650   0.949   2.829 -0.0578 -0.1850  0.4994
 5903TIP3    H139200   4.691   1.012   2.889  0.1115 -0.7576  1.0076
 5903TIP3    H239201   4.610   1.002   2.761  1.5103  0.4059  0.0063
 5904TIP3   OH239202   1.961   4.778  10.971  0.7020  0.0198 -0.0017
 5904TIP3    H139203   1.932   4.722  10.899  1.3385 -2.0537  1.2760
 5904TIP3    H239204   1.965   4.866  10.932 -2.8106 -0.2786 -1.4259
 5905TIP3   OH239205   5.757   6.319   0.725  0.5363  0.1289 -0.1106
 5905TIP3    H139206   5.707   6.304   0.805 -0.0371 -1.2603 -0.7021
 5905TIP3    H239207   5.846   6.338   0.755  0.5654 -1.3947  0.8272
 5906TIP3   OH239208   1.208   1.923   2.434  0.2461  0.1394 -0.2301
 5906TIP3    H139209   1.292   1.893   2.469  1.1653  3.3564  0.7076
 5906TIP3    H239210   1.223   1.929   2.340  2.1637  3.1084  0.0933
 5907TIP3   OH239211   2.882   4.044  15.541  0.2822  0.6537 -0.0055
 5907TIP3    H139212   2.952   4.057  15.477  2.1022  1.9760  2.0938
 5907TIP3    H239213   2.860   4.133  15.570  0.4612  0.0418  2.1283
 5908TIP3   OH239214   2.178   1.084   2.211 -0.0773  0.2853  0.1278
 5908TIP3    H139215   2.133   1.168   2.203  0.4410  0.5898  0.3145
 5908TIP3    H239216   2.149   1.033   2.136 -2.4433 -0.3569  1.3789
 5909TIP3   OH239217   6.716   4.427  11.373  0.0599  0.2838 -0.0436
 5909TIP3    H139218   6.653   4.499  11.377  0.7644  0.9079  0.2667
 5909TIP3    H239219   6.793   4.466  11.331  0.6922 -0.0947  0.7439
 5910TIP3   OH239220   1.175   2.302  16.936  0.3702 -1.1410  0.0153
 5910TIP3    H139221   1.221   2.276  16.856  0.2436  0.9220 -0.8029
 5910TIP3    H239222   1.243   2.336  16.994  0.2062 -0.5147 -0.1490
 5911TIP3   OH239223   4.938   5.493  11.762 -0.2107 -0.2368  0.0312
 5911TIP3    H139224   4.969   5.510  11.851  0.2797  0.7525 -0.3201
 5911TIP3    H239225   4.959   5.572  11.713  1.2792 -1.4464 -1.4357
 5912TIP3   OH239226   0.656   2.049   6.212  0.9934 -0.4148 -0.2771
 5912TIP3    H139227   0.730   2.042   6.152  2.2462 -2.9229  1.3775
 5912TIP3    H239228   0.582   2.014   6.162  1.9895 -2.3574 -0.4809
 5913TIP3   OH239229   0.101   2.474   1.187 -0.1926  0.0349  0.0830
 5913TIP3    H139230   0.042   2.521   1.245 -0.1542  0.3283 -0.1131
 5913TIP3    H239231   0.107   2.528   1.108 -0.4669 -0.4989 -0.3144
 5914TIP3   OH239232   4.850   1.103  10.464 -0.9152 -0.0833 -0.0409
 5914TIP3    H139233   4.843   1.032  10.401 -0.6043 -0.6028  0.4941
 5914TIP3    H239234   4.874   1.180  10.411  2.3236 -1.0959 -0.2993
 5915TIP3   OH239235   5.704   4.010   0.947  0.7988 -0.5043 -0.3054
 5915TIP3    H139236   5.646   3.953   0.997  2.0471 -3.2231 -1.7301
 5915TIP3    H239237   5.645   4.068   0.900 -0.6606 -1.6508  0.0150
 5916TIP3   OH239238   6.537   4.898  16.022 -0.1075 -0.1390 -0.0947
 5916TIP3    H139239   6.623   4.929  15.993 -0.2372  1.2801  0.9513
 5916TIP3    H239240   6.557   4.823  16.078  0.3631 -0.5393 -0.7805
 5917TIP3   OH239241   1.453   0.864   4.952  0.0371 -0.2794 -0.1376
 5917TIP3    H139242   1.368   0.892   4.917  0.6095  0.0594 -1.2832
 5917TIP3    H239243   1.505   0.944   4.955  0.4015 -0.5322  0.3223
 5918TIP3   OH239244   2.748   5.249  11.431 -0.0057  0.4749 -0.5258
 5918TIP3    H139245   2.710   5.215  11.512 -0.0012 -1.3329 -1.2444
 5918TIP3    H239246   2.684   5.227  11.363 -0.1911  2.3079 -0.9893
 5919TIP3   OH239247   6.344   1.094   3.879  0.4755  0.1481 -0.1178
 5919TIP3    H139248   6.433   1.058   3.880  1.0043  1.3905  0.8532
 5919TIP3    H239249   6.350   1.172   3.825  0.0842  0.4932  0.3238
 5920TIP3   OH239250   5.940   5.539  14.865  0.1977 -0.1267 -0.3799
 5920TIP3    H139251   5.861   5.535  14.810  0.4909  1.2530 -0.9405
 5920TIP3    H239252   6.011   5.555  14.803  0.4578  2.0720  0.3906
 5921TIP3   OH239253   1.260   5.327  12.679  0.5266  0.1829  0.0612
 5921TIP3    H139254   1.166   5.334  12.698  0.0002 -0.0236 -2.1472
 5921TIP3    H239255   1.273   5.385  12.604  1.7887 -1.1260 -0.7820
 5922TIP3   OH239256   4.977   5.531  12.047  0.5065  0.0951  0.3827
 5922TIP3    H139257   5.067   5.496  12.048  0.1953 -0.7364  1.8239
 5922TIP3    H239258   4.946   5.519  12.137 -1.4994 -0.8251 -0.3847
 5923TIP3   OH239259   4.207   5.959   2.924 -0.2823  0.1102 -0.0622
 5923TIP3    H139260   4.152   5.935   2.998  1.5530  1.0831  1.7055
 5923TIP3    H239261   4.151   6.014   2.870 -0.8532  1.7915  2.1169
 5924TIP3   OH239262   0.149   1.587  12.965 -0.1001  0.2090  0.4316
 5924TIP3    H139263   0.077   1.650  12.958 -0.3775  0.2013  2.5538
 5924TIP3    H239264   0.129   1.521  12.899 -0.3310  1.8050 -1.1711
 5925TIP3   OH239265   2.816   3.427  15.719  0.5971  0.2244 -0.4275
 5925TIP3    H139266   2.895   3.480  15.730  3.3002 -3.6355  1.3728
 5925TIP3    H239267   2.837   3.366  15.649 -0.9678 -0.6495 -0.1972
 5926TIP3   OH239268   5.247   0.171  10.571 -0.9959  0.0288 -0.0745
 5926TIP3    H139269   5.170   0.216  10.536 -0.5349  0.8028 -0.1037
 5926TIP3    H239270   5.219   0.138  10.656 -1.3256  0.3986 -0.0373
 5927TIP3   OH239271   4.950   6.316  11.064 -0.0330  0.3121  0.3526
 5927TIP3    H139272   4.896   6.241  11.040  1.0373 -0.3527 -0.0673
 5927TIP3    H239273   4.959   6.366  10.982 -1.7837  1.6289  0.8992
 5928TIP3   OH239274   1.784   4.503  12.584 -0.2303  0.0072 -0.5340
 5928TIP3    H139275   1.695   4.478  12.609  0.3940 -0.6619  1.1685
 5928TIP3    H239276   1.838   4.480  12.660  1.2202  1.5291 -1.0272
 5929TIP3   OH239277   5.413   2.419   2.693 -0.0907 -0.8174  0.0218
 5929TIP3    H139278   5.372   2.395   2.611  0.8676 -2.9715  0.0981
 5929TIP3    H239279   5.348   2.473   2.738 -0.5907  0.4965 -2.1500
 5930TIP3   OH239280   1.883   0.941  16.088 -0.8527 -0.3029  0.7139
 5930TIP3    H139281   1.974   0.969  16.077 -1.1325  0.6254  0.7128
 5930TIP3    H239282   1.835   0.987  16.018 -0.9282 -2.8884 -1.0911
 5931TIP3   OH239283   1.725   3.900  14.107  0.1218 -0.8200 -0.0018
 5931TIP3    H139284   1.744   3.906  14.014  0.5054 -2.3847 -0.0545
 5931TIP3    H239285   1.807   3.925  14.150 -0.1000  0.0516 -0.0566
 5932TIP3   OH239286   0.002   2.311  16.541  0.3124 -0.1306  1.2369
 5932TIP3    H139287  -0.052   2.270  16.608  1.4608  0.5685  2.6322
 5932TIP3    H239288  -0.029   2.401  16.536 -1.0418 -0.6314 -0.5854
 5933TIP3   OH239289   4.064   2.867  15.100 -0.2432  0.1419  0.1097
 5933TIP3    H139290   4.127   2.821  15.156  2.6355  0.9616 -2.2172
 5933TIP3    H239291   4.044   2.805  15.030 -1.8690  0.0316  0.6127
 5934TIP3   OH239292   4.312   0.632  13.154 -0.1140 -0.3712 -0.4565
 5934TIP3    H139293   4.323   0.647  13.060 -1.9028  0.3929 -0.5865
 5934TIP3    H239294   4.364   0.701  13.196  1.2523 -1.1380 -0.8442
 5935TIP3   OH239295   0.833   4.793   1.696  0.2005 -0.1855  0.0011
 5935TIP3    H139296   0.870   4.735   1.629 -0.4020  0.8262 -1.2413
 5935TIP3    H239297   0.910   4.829   1.741  0.6061 -1.1281  0.0841
 5936TIP3   OH239298   0.483   3.158   4.359 -0.2443 -0.1289  1.0282
 5936TIP3    H139299   0.393   3.163   4.390 -0.5817  0.8840 -0.0673
 5936TIP3    H239300   0.535   3.193   4.432 -0.8104  0.1818  1.2868
 5937TIP3   OH239301   4.221   1.292   5.288  0.0313 -0.3850  0.1234
 5937TIP3    H139302   4.276   1.370   5.280 -0.4352  0.1836  1.8978
 5937TIP3    H239303   4.131   1.326   5.281 -0.1645 -1.0673 -1.0475
 5938TIP3   OH239304   2.977   2.184  14.691 -0.9641 -0.3337  0.0340
 5938TIP3    H139305   2.937   2.147  14.769  0.0174 -0.6706  0.3892
 5938TIP3    H239306   2.903   2.211  14.637 -1.6589 -0.5036  0.8792
 5939TIP3   OH239307   0.354   1.200   1.939 -0.2410 -0.0784 -0.5646
 5939TIP3    H139308   0.304   1.226   1.862 -1.4922 -0.8586 -0.0597
 5939TIP3    H239309   0.345   1.105   1.943  3.4965 -0.6461 -1.8987
 5940TIP3   OH239310   3.280   0.711  11.095  0.5580  0.6024 -0.1617
 5940TIP3    H139311   3.345   0.668  11.039 -0.0653  0.6474 -0.9378
 5940TIP3    H239312   3.239   0.640  11.144  1.6268  0.6377  0.8156
 5941TIP3   OH239313   2.744   6.165   6.279 -0.2541 -0.1241 -0.3137
 5941TIP3    H139314   2.826   6.182   6.325 -0.3206 -0.5563 -0.0247
 5941TIP3    H239315   2.680   6.151   6.349 -0.1284 -1.8822 -0.4973
 5942TIP3   OH239316   0.767   4.384  14.984  0.3393  0.4598 -0.7792
 5942TIP3    H139317   0.859   4.380  15.010  0.4576  0.8685 -1.1148
 5942TIP3    H239318   0.755   4.475  14.955 -0.6125  0.9090  0.8924
 5943TIP3   OH239319   4.746   4.837   5.742 -0.1564  0.3247 -0.0461
 5943TIP3    H139320   4.736   4.745   5.766 -0.2191  0.0065 -1.2137
 5943TIP3    H239321   4.696   4.885   5.808 -1.2859 -0.5735 -0.2138
 5944TIP3   OH239322   5.721   5.729  13.199  0.7348  0.1094 -0.0629
 5944TIP3    H139323   5.666   5.805  13.181 -0.5414 -1.4234 -3.4758
 5944TIP3    H239324   5.788   5.730  13.131  1.9214 -0.7544  1.0431
 5945TIP3   OH239325   0.109   5.214  11.751 -0.1825  0.2569  0.0276
 5945TIP3    H139326   0.030   5.240  11.798 -0.0588  1.5022 -0.4079
 5945TIP3    H239327   0.107   5.266  11.670  1.1916  0.4866  0.1177
 5946TIP3   OH239328   4.157   2.888   1.936  0.1957 -0.6011 -0.3352
 5946TIP3    H139329   4.148   2.802   1.977 -2.0465 -0.4054 -0.3369
 5946TIP3    H239330   4.225   2.876   1.870  1.7556 -1.6903  1.3702
 5947TIP3   OH239331   5.687   2.637   2.195 -0.3437 -0.7746 -0.1863
 5947TIP3    H139332   5.708   2.625   2.102  1.0627 -1.5882  0.2074
 5947TIP3    H239333   5.669   2.549   2.227 -0.1895 -0.5833  0.4419
 5948TIP3   OH239334   3.948   0.922   5.878 -0.0255  0.5851  0.0715
 5948TIP3    H139335   4.006   0.971   5.938 -0.2597  1.7317 -0.5977
 5948TIP3    H239336   3.982   0.942   5.791 -0.7782  0.3987 -0.2709
 5949TIP3   OH239337   5.248   2.454  15.561  0.2536 -0.8120  0.2970
 5949TIP3    H139338   5.332   2.417  15.587 -0.1459 -0.9424  1.4994
 5949TIP3    H239339   5.269   2.517  15.492  1.5310  0.2326  1.5566
 5950TIP3   OH239340   6.627   5.168   0.912 -0.0455  0.1249  0.0003
 5950TIP3    H139341   6.693   5.133   0.852  0.0704 -0.1805  0.2997
 5950TIP3    H239342   6.630   5.262   0.898  1.5026  0.2693  1.0404
 5951TIP3   OH239343   5.623   4.503  11.824 -0.0525  0.0583 -0.1691
 5951TIP3    H139344   5.718   4.492  11.819 -0.1028 -1.1665  0.8717
 5951TIP3    H239345   5.588   4.444  11.757 -0.0948 -0.0493 -0.0527
 5952TIP3   OH239346   4.481   2.919   3.393  0.3417 -0.2468  0.4545
 5952TIP3    H139347   4.404   2.900   3.446 -0.8003  0.4707 -0.9067
 5952TIP3    H239348   4.461   3.000   3.348  1.6243 -0.3957 -0.4452
 5953TIP3   OH239349   0.564   4.708   2.218 -0.6898 -0.2776 -0.5232
 5953TIP3    H139350   0.535   4.788   2.174  0.1168  1.1073  1.3156
 5953TIP3    H239351   0.585   4.648   2.147  0.8736  1.9428 -2.0906
 5954TIP3   OH239352   5.308   5.114   4.821 -0.3357  0.3733 -0.7473
 5954TIP3    H139353   5.235   5.175   4.831 -0.7329  0.0981 -1.9191
 5954TIP3    H239354   5.289   5.043   4.883 -2.4335 -0.9888 -2.7933
 5955TIP3   OH239355   4.722   2.159   3.850 -0.2384  0.5479 -0.0164
 5955TIP3    H139356   4.805   2.201   3.873 -0.6581  2.0222 -1.0177
 5955TIP3    H239357   4.658   2.230   3.852 -0.9091  0.0859 -2.1695
 5956TIP3   OH239358   4.537   4.361  13.082 -0.0146 -0.2793 -0.4280
 5956TIP3    H139359   4.492   4.338  13.000  1.4263 -0.5108 -1.1845
 5956TIP3    H239360   4.541   4.457  13.081  0.0933 -0.2850 -0.6942
 5957TIP3   OH239361   0.046   6.552  11.848 -0.1031 -0.1056  0.4745
 5957TIP3    H139362  -0.002   6.553  11.765 -0.7855 -1.0788  0.8338
 5957TIP3    H239363   0.116   6.616  11.836  1.7303 -2.3229 -2.0244
 5958TIP3   OH239364   4.787   4.490   0.542  0.1252  0.2949  0.3435
 5958TIP3    H139365   4.813   4.472   0.452  3.8968 -2.8473  1.7598
 5958TIP3    H239366   4.718   4.427   0.560  0.9766 -0.6738  0.2691
 5959TIP3   OH239367   3.694   6.138   4.612 -0.4630  0.0060 -0.2210
 5959TIP3    H139368   3.760   6.171   4.673  0.4439 -2.1616  0.0310
 5959TIP3    H239369   3.637   6.082   4.665 -2.0341  1.1306 -0.6172
 5960TIP3   OH239370   2.502   3.521   0.874 -0.0610  0.0562  0.5116
 5960TIP3    H139371   2.493   3.426   0.882 -0.2772 -0.0220 -0.4683
 5960TIP3    H239372   2.452   3.544   0.795  0.9957  0.8023  0.0225
 5961TIP3   OH239373   0.185   2.976  16.947 -0.6807 -0.1138  0.4187
 5961TIP3    H139374   0.167   2.892  16.903  1.4669 -0.1553 -0.5198
 5961TIP3    H239375   0.158   2.962  17.038 -2.1142 -1.1690 -0.1328
 5962TIP3   OH239376   1.789   6.034   2.759 -0.1938  0.2189 -0.2514
 5962TIP3    H139377   1.786   5.953   2.709  0.9247  0.9084 -1.5181
 5962TIP3    H239378   1.699   6.065   2.761 -1.0248 -1.9965  1.9805
 5963TIP3   OH239379   1.886   4.008  13.112  0.0410 -0.1082 -0.9237
 5963TIP3    H139380   1.816   4.072  13.118 -0.1972 -0.4079 -0.4562
 5963TIP3    H239381   1.852   3.939  13.055 -0.4999 -0.8129  0.2122
 5964TIP3   OH239382   0.963   2.397   6.512  0.4396  0.4158 -0.2069
 5964TIP3    H139383   1.036   2.425   6.568 -0.5136  0.7612  0.8981
 5964TIP3    H239384   0.922   2.325   6.559  0.1447  0.1339 -0.8823
 5965TIP3   OH239385   6.754   0.111   2.054 -0.0196 -0.1018  0.8425
 5965TIP3    H139386   6.731   0.203   2.042 -0.0138  0.0994  2.1419
 5965TIP3    H239387   6.841   0.103   2.016  0.1925  0.5719  1.1635
 5966TIP3   OH239388   1.452   1.698   6.713 -0.0316 -0.6379  0.0929
 5966TIP3    H139389   1.534   1.744   6.733 -0.2491  0.7441 -1.8769
 5966TIP3    H239390   1.473   1.605   6.722  1.1899 -0.2628  1.5291
 5967TIP3   OH239391   2.790   1.395   2.276  0.1735 -0.1497 -0.0610
 5967TIP3    H139392   2.773   1.489   2.279 -4.1726 -0.5490 -2.9045
 5967TIP3    H239393   2.751   1.361   2.356 -1.1891  0.2292 -0.5406
 5968TIP3   OH239394   4.510   1.634   2.912  0.1723  0.3841  0.2668
 5968TIP3    H139395   4.538   1.596   2.995  0.8540  0.9479  0.3053
 5968TIP3    H239396   4.455   1.567   2.872 -2.4061  1.0793  2.3646
 5969TIP3   OH239397   1.395   6.492   0.834  0.6110  0.2739 -0.2285
 5969TIP3    H139398   1.488   6.505   0.854  0.7043 -0.6170 -0.0384
 5969TIP3    H239399   1.391   6.404   0.797 -0.3356 -0.2240  0.9924
 5970TIP3   OH239400   5.501   6.245   3.485 -0.2788  0.0290 -0.1216
 5970TIP3    H139401   5.533   6.195   3.409 -0.4341  0.6843 -0.6273
 5970TIP3    H239402   5.420   6.201   3.510 -0.3436 -0.0618 -0.4767
 5971TIP3   OH239403   2.299   3.020   1.611 -0.3304  0.1606  0.3525
 5971TIP3    H139404   2.330   3.079   1.542  0.2021 -1.7243 -1.1348
 5971TIP3    H239405   2.244   2.956   1.565 -0.2915 -0.9239  1.7435
 5972TIP3   OH239406   5.039   0.292   2.343  0.2534  0.0422 -0.8023
 5972TIP3    H139407   4.990   0.294   2.260 -0.4180 -3.6765 -0.6465
 5972TIP3    H239408   4.971   0.288   2.411  0.7484 -1.1406 -0.3531
 5973TIP3   OH239409   0.504   3.913  13.559 -0.6186 -0.1976  0.0828
 5973TIP3    H139410   0.579   3.970  13.541  0.8189 -1.8091  0.7346
 5973TIP3    H239411   0.501   3.907  13.655 -1.1797 -0.6758  0.0419
 5974TIP3   OH239412   1.182   0.268   5.179  0.4971  0.0231 -0.2014
 5974TIP3    H139413   1.202   0.308   5.264  0.5275 -0.0740 -0.1630
 5974TIP3    H239414   1.185   0.341   5.117 -1.1385  0.4042  0.1180
 5975TIP3   OH239415   3.618   0.064   3.216  0.2562 -0.0891 -0.3210
 5975TIP3    H139416   3.655   0.045   3.130  0.9561 -0.6429  0.0991
 5975TIP3    H239417   3.590  -0.021   3.250  0.8208  0.0010  0.3835
 5976TIP3   OH239418   6.594   1.084   4.596  0.3271 -0.0885  0.0589
 5976TIP3    H139419   6.550   1.012   4.641 -0.4367  0.4661  0.2371
 5976TIP3    H239420   6.633   1.044   4.518 -0.9265 -0.5425 -0.3708
 5977TIP3   OH239421   2.801   1.045  14.197 -0.2362  0.3581 -0.6635
 5977TIP3    H139422   2.725   1.090  14.234  0.5167  1.2716 -0.1850
 5977TIP3    H239423   2.767   0.998  14.121 -2.1771 -2.8758  1.9720
 5978TIP3   OH239424   4.616   6.018  16.598 -0.1062 -0.0164 -0.6301
 5978TIP3    H139425   4.582   5.963  16.528 -1.2013 -0.5113  0.2646
 5978TIP3    H239426   4.711   6.019  16.584 -0.2486 -0.6169 -1.7313
 5979TIP3   OH239427   3.587   4.271   5.013 -0.2653  0.5643  0.4859
 5979TIP3    H139428   3.502   4.302   5.044 -0.5622  1.5348 -1.1398
 5979TIP3    H239429   3.587   4.177   5.031 -2.5215  0.1520 -1.1538
 5980TIP3   OH239430   2.273   2.381  15.908 -1.2473 -0.1507 -0.1672
 5980TIP3    H139431   2.258   2.316  15.977  0.1620 -0.0397  0.2635
 5980TIP3    H239432   2.281   2.329  15.827 -2.7854 -0.2874 -0.2623
 5981TIP3   OH239433   5.638   0.424   4.596  0.0694 -0.5378  0.3845
 5981TIP3    H139434   5.594   0.389   4.673  0.1777 -0.9911  0.2452
 5981TIP3    H239435   5.729   0.433   4.622  0.3576 -1.8710 -0.0581
 5982TIP3   OH239436   0.934   2.003  16.779 -0.1301 -0.1588 -0.0418
 5982TIP3    H139437   0.991   1.992  16.855  1.5133  0.6556 -1.1043
 5982TIP3    H239438   0.991   2.039  16.711 -1.6724 -0.3546 -1.5052
 5983TIP3   OH239439   4.758   2.398   1.474 -0.7287 -0.1442  0.4858
 5983TIP3    H139440   4.824   2.410   1.542  0.1031 -0.0170 -0.3260
 5983TIP3    H239441   4.734   2.487   1.447 -0.6501 -0.1996  0.2290
 5984TIP3   OH239442   0.011   5.226  10.859  0.3579  0.1844 -0.3583
 5984TIP3    H139443  -0.005   5.151  10.917  2.1305  0.1661  0.1778
 5984TIP3    H239444   0.001   5.190  10.770  1.4306 -0.7778 -0.1168
 5985TIP3   OH239445   2.604   1.524  14.683  1.2981  0.2151  0.5932
 5985TIP3    H139446   2.601   1.607  14.730  1.1955  0.9695 -0.6843
 5985TIP3    H239447   2.513   1.510  14.654  1.7503  1.0387 -1.4264
 5986TIP3   OH239448   5.014   0.803  12.025  0.2175 -0.0382 -0.0716
 5986TIP3    H139449   5.028   0.772  11.936  0.1300  3.1546 -1.3243
 5986TIP3    H239450   4.919   0.813  12.032  0.2305 -0.1823  0.3700
 5987TIP3   OH239451   1.795   1.068  15.054  0.0915 -0.4761 -0.8940
 5987TIP3    H139452   1.824   1.076  14.963  0.9720 -0.0200 -0.5831
 5987TIP3    H239453   1.829   0.984  15.084 -0.3855 -0.7269 -1.0466
 5988TIP3   OH239454   6.383   0.549  17.250 -0.2706 -0.1446 -0.3277
 5988TIP3    H139455   6.346   0.608  17.315 -0.2881 -1.2304  0.6696
 5988TIP3    H239456   6.383   0.464  17.292  0.8306 -0.6576 -1.3243
 5989TIP3   OH239457   0.446   2.746  13.071 -0.4254  0.2323  0.1578
 5989TIP3    H139458   0.412   2.811  13.009  1.7749 -1.1475 -2.7180
 5989TIP3    H239459   0.387   2.671  13.061  0.2315 -0.1773 -0.6753
 5990TIP3   OH239460   1.099   4.874  15.008  0.0853 -0.0276  0.3304
 5990TIP3    H139461   1.051   4.791  15.013  0.5879 -0.3182  0.5230
 5990TIP3    H239462   1.183   4.854  15.050  1.5999 -0.4159 -2.5989
 5991TIP3   OH239463   0.395   3.155  13.521 -0.0160 -0.6989 -0.1110
 5991TIP3    H139464   0.319   3.160  13.463  1.0747 -0.8371 -1.6314
 5991TIP3    H239465   0.412   3.061  13.530 -0.8971 -0.7417  1.4824
 5992TIP3   OH239466   3.312   0.927   3.537 -0.4275 -0.1754 -0.4964
 5992TIP3    H139467   3.335   1.013   3.572 -2.6917 -0.1304  1.0904
 5992TIP3    H239468   3.372   0.914   3.464  2.9306  0.8404  1.8414
 5993TIP3   OH239469   5.684   1.566   3.634  0.1202 -1.0270  0.3458
 5993TIP3    H139470   5.753   1.506   3.664  1.0831 -1.3871 -2.2626
 5993TIP3    H239471   5.718   1.654   3.654  0.8931 -1.2419  0.0165
 5994TIP3   OH239472   6.477   1.186   3.484  0.2778 -0.2751 -0.1172
 5994TIP3    H139473   6.498   1.237   3.406 -1.3707  0.8451  0.1273
 5994TIP3    H239474   6.457   1.098   3.451 -0.3036  0.1621 -0.9579
 5995TIP3   OH239475   2.292   2.946  16.672  0.7846 -0.0342 -0.4525
 5995TIP3    H139476   2.266   2.998  16.597  1.3516  0.4608 -0.3124
 5995TIP3    H239477   2.388   2.940  16.665  0.7092 -1.3427 -0.6603
 5996TIP3   OH239478   6.394   0.356  14.912  0.6104 -0.6372  0.0722
 5996TIP3    H139479   6.379   0.325  15.001 -1.9770 -0.6672 -0.2890
 5996TIP3    H239480   6.422   0.447  14.923  1.5849 -1.0171  0.9206
 5997TIP3   OH239481   2.039   6.582  14.879  0.3410  0.0569 -0.0775
 5997TIP3    H139482   1.971   6.601  14.815  0.4369 -2.3256 -0.9845
 5997TIP3    H239483   2.120   6.616  14.838  0.6026 -2.4520 -1.9032
 5998TIP3   OH239484   0.528   2.548   2.606  0.2122  0.1792  0.0262
 5998TIP3    H139485   0.558   2.526   2.694 -0.9752 -0.9564  0.1840
 5998TIP3    H239486   0.485   2.468   2.575  1.0837  0.3632 -1.8147
 5999TIP3   OH239487   2.110   0.772   4.209  0.3257 -0.1753  0.1359
 5999TIP3    H139488   2.083   0.859   4.240 -0.2982 -0.7147  1.1150
 5999TIP3    H239489   2.112   0.781   4.113  0.4458  0.9643  0.2239
 6000TIP3   OH239490   1.684   1.121   2.625  0.0889  0.4729  0.1785
 6000TIP3    H139491   1.728   1.158   2.549 -1.4421  0.3144 -0.8216
 6000TIP3    H239492   1.755   1.085   2.678  1.2078  0.7042 -1.0967
 6001TIP3   OH239493   1.139   3.944   3.072 -0.2194 -0.0588 -0.2719
 6001TIP3    H139494   1.044   3.958   3.064 -0.3201 -0.7009 -0.2106
 6001TIP3    H239495   1.149   3.849   3.076  0.4150  0.0147 -0.0947
 6002TIP3   OH239496   5.911   2.236  13.145  0.5008 -0.5932  0.8229
 6002TIP3    H139497   5.862   2.158  13.118 -0.0127 -0.4690  1.3660
 6002TIP3    H239498   5.868   2.309  13.101 -1.0546 -0.2526  2.7500
 6003TIP3   OH239499   4.959   3.972   1.903  0.1456 -0.0772  0.1413
 6003TIP3    H139500   4.914   3.890   1.885  0.1793 -0.3092  1.0872
 6003TIP3    H239501   5.048   3.959   1.868 -0.2184  0.0442 -0.8783
 6004TIP3   OH239502   4.526   4.681  16.922 -0.1828 -0.4921 -0.1421
 6004TIP3    H139503   4.501   4.656  17.010  0.2812 -0.4717 -0.0016
 6004TIP3    H239504   4.464   4.749  16.897 -0.2653 -0.4441  0.1964
 6005TIP3   OH239505   4.861   0.207   2.012  0.5249  0.6011 -0.1186
 6005TIP3    H139506   4.819   0.155   1.943 -0.0860  2.2895 -1.0813
 6005TIP3    H239507   4.941   0.241   1.972  0.2258  1.5005  0.0282
 6006TIP3   OH239508   3.524   6.652  11.417  0.2591  0.0649 -0.2406
 6006TIP3    H139509   3.570   6.585  11.467 -1.2943 -1.4102 -0.7020
 6006TIP3    H239510   3.437   6.657  11.458 -0.8450 -0.7393 -2.3178
 6007TIP3   OH239511   1.857   6.688   1.072 -0.3524 -0.2003  0.1462
 6007TIP3    H139512   1.870   6.670   1.165 -1.5082  0.8387  0.5314
 6007TIP3    H239513   1.917   6.761   1.053  0.0541 -0.5666  0.0140
 6008TIP3   OH239514   5.416   4.926  16.662 -0.4677  0.2053 -0.1085
 6008TIP3    H139515   5.433   4.857  16.727  1.7178  0.3097 -0.4774
 6008TIP3    H239516   5.429   4.883  16.577  1.7026  1.1648 -0.3366
 6009TIP3   OH239517   2.839   3.228   3.004 -0.3705 -0.4478  0.2557
 6009TIP3    H139518   2.933   3.213   3.011 -0.3744 -0.1331  1.2007
 6009TIP3    H239519   2.807   3.158   2.947  0.3765 -0.8077  0.2737
 6010TIP3   OH239520   1.773   4.503   2.103 -0.1981 -0.1942 -0.0450
 6010TIP3    H139521   1.758   4.415   2.069 -1.3055  0.1507 -0.5046
 6010TIP3    H239522   1.867   4.508   2.118 -0.0846 -1.3515 -0.2877
 6011TIP3   OH239523   1.893   0.595   0.855 -0.2888  0.2702  0.4732
 6011TIP3    H139524   1.858   0.523   0.908 -0.8483  0.4026  0.2873
 6011TIP3    H239525   1.830   0.606   0.784 -0.5585  1.3742  0.8622
 6012TIP3   OH239526   2.028   0.030   0.820  0.1974 -0.1755 -0.2635
 6012TIP3    H139527   1.979   0.064   0.746 -2.2524  1.7266  2.0578
 6012TIP3    H239528   2.107   0.084   0.823 -0.8176  1.3530 -0.1448
 6013TIP3   OH239529   1.318   3.841   0.916 -0.2395  0.4537  0.4319
 6013TIP3    H139530   1.293   3.921   0.963  1.1124  0.9163  0.4034
 6013TIP3    H239531   1.374   3.872   0.845  0.9612 -0.5750  0.8966
 6014TIP3   OH239532   1.020   4.065  14.315 -0.6808 -0.4366  0.4347
 6014TIP3    H139533   1.030   4.069  14.220  0.1781  0.4599  0.5533
 6014TIP3    H239534   0.926   4.060  14.329 -0.9683  1.5919 -0.4105
 6015TIP3   OH239535   0.328   6.645   1.753  0.1802 -0.1154  0.3157
 6015TIP3    H139536   0.321   6.612   1.663  0.3779  0.3743  0.1137
 6015TIP3    H239537   0.419   6.627   1.778 -0.0669 -0.8774  0.6719
 6016TIP3   OH239538   4.327   2.991   3.778  0.1691  0.0519 -0.6733
 6016TIP3    H139539   4.244   3.014   3.737 -0.5873  0.0304  0.7768
 6016TIP3    H239540   4.353   2.909   3.736 -0.4645  0.1283 -1.2342
 6017TIP3   OH239541   4.888   2.702   4.073 -0.2212  0.2336 -0.5215
 6017TIP3    H139542   4.852   2.776   4.122  0.1385 -0.1187  0.3136
 6017TIP3    H239543   4.885   2.629   4.136 -0.3419 -0.3932 -1.2481
 6018TIP3   OH239544   6.177   6.690  12.138 -0.2496  0.4211  0.0348
 6018TIP3    H139545   6.117   6.632  12.090  0.7422 -0.5494 -0.0632
 6018TIP3    H239546   6.258   6.687  12.088  0.0911  1.2026  0.5305
 6019TIP3   OH239547   3.687   3.200  14.991 -0.2169  0.2768  0.6048
 6019TIP3    H139548   3.639   3.225  14.912  0.3815 -0.5228 -0.0237
 6019TIP3    H239549   3.678   3.105  14.996 -1.8887  0.4667  2.5906
 6020TIP3   OH239550   5.853   3.103  14.223 -0.3589  0.0570  0.2291
 6020TIP3    H139551   5.912   3.111  14.148 -0.8521  1.0231 -0.0685
 6020TIP3    H239552   5.894   3.037  14.279  0.3935 -0.1366 -0.5305
 6021TIP3   OH239553   2.708   3.162  16.065 -0.0489  0.1237  0.5545
 6021TIP3    H139554   2.645   3.189  15.999 -0.5615  2.3113  1.8254
 6021TIP3    H239555   2.759   3.092  16.023  0.4856  2.2157 -2.6316
 6022TIP3   OH239556   6.756   1.732  12.873 -0.5928 -0.2118  0.3091
 6022TIP3    H139557   6.753   1.764  12.963 -3.2331 -4.1230  1.8415
 6022TIP3    H239558   6.665   1.731  12.845 -0.1973 -2.3111 -1.0988
 6023TIP3   OH239559   2.820   3.243   5.686  0.0778 -0.3697 -0.1481
 6023TIP3    H139560   2.778   3.208   5.765  2.1687 -0.3825  1.0615
 6023TIP3    H239561   2.901   3.282   5.719  1.0343 -0.4172 -2.3100
 6024TIP3   OH239562   6.754   1.732  17.156  0.2047 -0.7938  0.0779
 6024TIP3    H139563   6.749   1.679  17.076  0.8460  0.6123 -0.9440
 6024TIP3    H239564   6.847   1.731  17.179  0.1603 -0.4333  0.2761
 6025TIP3   OH239565   6.625   4.343  12.435 -0.4150  0.0162 -0.1146
 6025TIP3    H139566   6.578   4.378  12.359  0.2755  0.1074 -0.5164
 6025TIP3    H239567   6.680   4.416  12.464  0.4390 -0.4749 -0.4596
 6026TIP3   OH239568   2.256   6.789  15.831  0.3402 -0.1661 -0.3972
 6026TIP3    H139569   2.340   6.819  15.865 -1.1120  1.4645  2.1002
 6026TIP3    H239570   2.248   6.831  15.746  2.4368 -1.2145 -1.1984
 6027TIP3   OH239571   2.758   5.082  12.574 -0.5938 -0.5633 -0.5271
 6027TIP3    H139572   2.792   5.169  12.552 -1.3411 -0.1830 -0.2120
 6027TIP3    H239573   2.811   5.022  12.522 -1.2434  0.1910 -2.1338
 6028TIP3   OH239574   0.598   1.694  14.757 -0.4464  0.0914  0.1967
 6028TIP3    H139575   0.584   1.691  14.852 -0.7882 -0.6758  0.1219
 6028TIP3    H239576   0.628   1.606  14.734 -1.4595 -0.0650 -0.5808
 6029TIP3   OH239577   6.125   4.248   3.227  0.1383 -0.5065 -1.0781
 6029TIP3    H139578   6.164   4.256   3.314 -0.8650 -1.3756 -0.5280
 6029TIP3    H239579   6.038   4.287   3.235 -0.5277 -1.8687 -1.2682
 6030TIP3   OH239580   3.939   2.549   2.441 -0.3413 -0.2711  0.1723
 6030TIP3    H139581   3.952   2.503   2.357  0.2860 -1.5520  0.9316
 6030TIP3    H239582   3.858   2.511   2.477 -0.7774  0.4947  0.0251
 6031TIP3   OH239583   1.415   5.922  12.771  0.4133  0.0267 -0.4574
 6031TIP3    H139584   1.332   5.893  12.732  0.1281  0.3516 -0.1049
 6031TIP3    H239585   1.397   5.924  12.865  1.0176 -0.5068 -0.3225
 6032TIP3   OH239586   5.843   5.598   1.481 -0.3086 -0.0644 -0.0153
 6032TIP3    H139587   5.844   5.640   1.568 -0.2585 -0.0051 -0.0442
 6032TIP3    H239588   5.762   5.628   1.441  0.7585  1.8409 -0.9207
 6033TIP3   OH239589   6.184   1.765  16.044  0.3863  0.1547  0.3775
 6033TIP3    H139590   6.251   1.834  16.041  1.3248 -0.7229  0.5210
 6033TIP3    H239591   6.233   1.686  16.067 -0.6738 -0.5581  0.2257
 6034TIP3   OH239592   6.676   2.514  12.792 -0.0378 -0.5911 -0.4748
 6034TIP3    H139593   6.713   2.441  12.840 -0.0817 -0.8442 -0.8210
 6034TIP3    H239594   6.639   2.475  12.713 -0.6451 -0.2833 -0.3479
 6035TIP3   OH239595   2.874   3.589  12.002 -0.9200 -0.2472 -0.1199
 6035TIP3    H139596   2.875   3.538  12.083  0.8206 -0.2070 -0.0881
 6035TIP3    H239597   2.890   3.525  11.933  4.1487  0.3443  0.1012
 6036TIP3   OH239598   5.148   4.440  11.948 -0.0309  0.2635 -0.0433
 6036TIP3    H139599   5.166   4.452  12.042  0.8671 -0.2703 -0.1356
 6036TIP3    H239600   5.090   4.364  11.944  2.1270 -1.4835 -0.0568
 6037TIP3   OH239601   3.741   2.743   2.706  0.4916 -0.7296 -0.4202
 6037TIP3    H139602   3.731   2.669   2.766 -1.3679 -0.1068  0.1031
 6037TIP3    H239603   3.678   2.726   2.636  1.5079 -0.6386 -1.3874
 6038TIP3   OH239604   0.327   1.399  14.514 -0.2235  0.8004 -0.2037
 6038TIP3    H139605   0.312   1.476  14.569 -0.4620  0.7720 -0.2318
 6038TIP3    H239606   0.389   1.430  14.447  0.2177  0.7823  0.1900
 6039TIP3   OH239607   5.116   2.112  16.073  0.3380  0.3462  0.0914
 6039TIP3    H139608   5.103   2.182  16.009  0.7058 -0.8552 -1.3489
 6039TIP3    H239609   5.033   2.065  16.076  0.9580 -0.9066 -1.1712
 6040TIP3   OH239610   1.366   1.316  14.378  0.1187 -0.5176 -0.2065
 6040TIP3    H139611   1.422   1.312  14.300 -0.4916  0.5938 -0.7309
 6040TIP3    H239612   1.414   1.372  14.439 -1.4254  2.5927 -1.6099
 6041TIP3   OH239613   4.831   3.727  15.600 -0.1995  0.3250  0.2087
 6041TIP3    H139614   4.901   3.716  15.665 -0.5018 -1.1200  0.3191
 6041TIP3    H239615   4.870   3.700  15.517 -1.3901 -3.6069  0.7234
 6042TIP3   OH239616   2.619   6.414   2.191 -1.0493 -0.1027  0.1577
 6042TIP3    H139617   2.644   6.396   2.100 -1.1912 -0.6593  0.2227
 6042TIP3    H239618   2.571   6.496   2.186 -0.6262  0.1293 -0.2004
 6043TIP3   OH239619   5.753   2.419  15.615 -0.2742  0.0848 -0.0864
 6043TIP3    H139620   5.666   2.426  15.655 -0.1295 -1.0861  0.4706
 6043TIP3    H239621   5.807   2.382  15.684 -0.3334 -3.4738 -1.7726
 6044TIP3   OH239622   2.453   4.581   1.758  0.0713 -0.2660  0.3495
 6044TIP3    H139623   2.530   4.546   1.712  0.1230  0.3651 -0.0507
 6044TIP3    H239624   2.388   4.511   1.753  0.6508 -0.8466  0.7808
 6045TIP3   OH239625   6.535   2.527   3.982  0.0350 -0.9285 -0.1444
 6045TIP3    H139626   6.620   2.555   3.948 -0.7792  0.8669 -0.8063
 6045TIP3    H239627   6.490   2.490   3.906  0.0607 -1.5171  0.1201
 6046TIP3   OH239628   6.428   0.770  15.858 -0.7219 -0.4162 -0.3324
 6046TIP3    H139629   6.422   0.675  15.869 -0.7968 -0.4484 -0.6518
 6046TIP3    H239630   6.522   0.786  15.844 -0.7912 -0.5143 -0.9261
 6047TIP3   OH239631   3.210   3.003  16.188 -0.0298  0.1299  0.1665
 6047TIP3    H139632   3.210   2.908  16.200 -1.7861  0.0130 -0.4510
 6047TIP3    H239633   3.220   3.038  16.277  0.1941 -0.6374  0.4533
 6048TIP3   OH239634   6.238   6.696  13.625 -0.0595  0.0557 -0.0700
 6048TIP3    H139635   6.333   6.698  13.635 -0.0393 -0.2240 -0.1972
 6048TIP3    H239636   6.224   6.684  13.531 -0.2223  0.2524 -0.0728
 6049TIP3   OH239637   4.317   3.593   0.132 -0.2878  0.1070  0.1552
 6049TIP3    H139638   4.346   3.510   0.171  0.1133 -0.5792 -1.5136
 6049TIP3    H239639   4.317   3.576   0.038  1.5477  2.5286 -0.3960
 6050TIP3   OH239640   4.526   1.402  17.246  0.0174  0.0930 -0.5029
 6050TIP3    H139641   4.567   1.390  17.160 -0.7637 -2.3111 -0.6166
 6050TIP3    H239642   4.446   1.349  17.242 -0.3526  0.4074  1.5239
 6051TIP3   OH239643   6.725   5.367  12.955 -0.6070  1.1028 -0.2491
 6051TIP3    H139644   6.721   5.393  12.863 -1.4213  2.0485  0.0341
 6051TIP3    H239645   6.675   5.286  12.959 -0.3109  0.8940 -0.6887
 6052TIP3   OH239646   5.131   5.663   2.140 -0.6894 -0.0212  0.0037
 6052TIP3    H139647   5.122   5.592   2.076  3.3277  0.1596 -1.0513
 6052TIP3    H239648   5.138   5.619   2.224 -0.3906 -0.7316 -0.3816
 6053TIP3   OH239649   0.432   1.074  13.103  0.0406 -0.5212 -0.0182
 6053TIP3    H139650   0.496   1.012  13.136  2.3385  1.5169 -0.3774
 6053TIP3    H239651   0.390   1.110  13.182  1.7273  0.4842  0.4688
 6054TIP3   OH239652   6.475   5.600  11.864  0.6229  0.1811  0.3019
 6054TIP3    H139653   6.382   5.589  11.885  0.8819 -1.4789  0.7659
 6054TIP3    H239654   6.478   5.607  11.769 -0.0694  1.5979  0.3635
 6055TIP3   OH239655   1.467   2.409  12.320  0.6908 -0.0323  0.0160
 6055TIP3    H139656   1.461   2.498  12.354 -1.7052  0.9122 -2.5089
 6055TIP3    H239657   1.394   2.362  12.361  0.9422 -0.3639  0.0873
 6056TIP3   OH239658   3.577   4.202   2.732  0.1840 -0.1184  0.3974
 6056TIP3    H139659   3.529   4.282   2.753  3.9159  2.1099  1.3806
 6056TIP3    H239660   3.543   4.136   2.792 -1.4215  1.3686  1.1792
 6057TIP3   OH239661   3.032   4.061  13.690 -0.0361  0.3426 -0.0070
 6057TIP3    H139662   3.047   4.073  13.784 -1.7048  3.5589  0.0047
 6057TIP3    H239663   2.952   4.111  13.672 -1.1739 -2.1471 -2.7767
 6058TIP3   OH239664   3.011   1.493   5.848  0.0097 -0.5050  0.2876
 6058TIP3    H139665   2.988   1.497   5.755  1.3130  2.5437 -0.0315
 6058TIP3    H239666   3.078   1.425   5.854  0.7809  0.0775 -1.2515
 6059TIP3   OH239667   4.450   3.850   1.632  0.1361 -0.6612 -0.3185
 6059TIP3    H139668   4.474   3.770   1.585  2.1183 -1.2155  1.4847
 6059TIP3    H239669   4.533   3.892   1.653 -0.8016  1.1377  0.0803
 6060TIP3   OH239670   0.168   5.696   6.676 -0.2492 -0.1207 -0.1205
 6060TIP3    H139671   0.158   5.677   6.582 -2.1040  2.4765 -0.5764
 6060TIP3    H239672   0.222   5.624   6.710 -0.3386 -1.6767 -2.9611
 6061TIP3   OH239673   0.611   1.798  10.707  0.6462  0.5446  0.0690
 6061TIP3    H139674   0.684   1.744  10.677  0.1714  1.0287 -2.1054
 6061TIP3    H239675   0.557   1.739  10.759  1.6719 -0.2748  0.2335
 6062TIP3   OH239676   1.814   2.682   5.506  0.0818 -0.2500 -0.1338
 6062TIP3    H139677   1.741   2.739   5.482  1.3247  1.1611 -0.6996
 6062TIP3    H239678   1.891   2.739   5.503  1.5788 -2.2367 -2.0712
 6063TIP3   OH239679   3.879   5.836   0.848 -0.2986  0.0319 -0.0871
 6063TIP3    H139680   3.785   5.815   0.847 -0.2080 -0.3720 -0.5522
 6063TIP3    H239681   3.921   5.756   0.818  0.1955  0.2392  0.0478
 6064TIP3   OH239682   1.533   6.704  15.030  0.1546 -0.6181 -0.3451
 6064TIP3    H139683   1.610   6.669  15.074  0.9468  1.0028 -0.3559
 6064TIP3    H239684   1.565   6.729  14.943 -0.4862 -0.3403 -0.5064
 6065TIP3   OH239685   6.141   5.484  15.066  0.5922 -0.1322 -0.2865
 6065TIP3    H139686   6.073   5.457  15.128 -0.3636  1.9544 -0.3415
 6065TIP3    H239687   6.093   5.518  14.991  1.6024  2.6468  0.2160
 6066TIP3   OH239688   6.027   1.068  11.230 -0.0683 -0.0009 -0.2232
 6066TIP3    H139689   5.956   1.047  11.291 -2.0139  1.1604 -1.9910
 6066TIP3    H239690   5.986   1.070  11.144  1.9418  1.5560 -1.2269
 6067TIP3   OH239691   2.597   6.087  12.276  0.7283  0.0505  0.4785
 6067TIP3    H139692   2.657   6.014  12.260 -0.8117 -0.9110 -1.2808
 6067TIP3    H239693   2.559   6.069  12.362  0.4476 -1.2103  0.1073
 6068TIP3   OH239694   5.139   2.646  16.574 -0.0554 -0.1008 -0.2130
 6068TIP3    H139695   5.098   2.600  16.648  1.7737 -0.3265  0.7226
 6068TIP3    H239696   5.107   2.736  16.581  0.7819  0.1167  1.4671
 6069TIP3   OH239697   6.013   5.443   3.448 -0.1587  0.0948 -0.0792
 6069TIP3    H139698   6.079   5.390   3.492 -0.2980  1.1422  1.4887
 6069TIP3    H239699   6.063   5.512   3.404 -0.1696  0.7343  0.8875
 6070TIP3   OH239700   6.633   4.474   2.299 -0.1082 -0.0521 -0.6626
 6070TIP3    H139701   6.725   4.461   2.319 -0.6870 -0.2577  2.3796
 6070TIP3    H239702   6.626   4.567   2.276  0.8061 -0.0178 -0.8438
 6071TIP3   OH239703   6.498   1.693  12.790 -0.3952 -0.6584  0.5293
 6071TIP3    H139704   6.489   1.642  12.709 -0.9763 -0.7201  0.6242
 6071TIP3    H239705   6.438   1.650  12.851 -1.6686  0.7205  0.3101
 6072TIP3   OH239706   1.837   6.406   5.810 -0.2330 -0.1528  0.1989
 6072TIP3    H139707   1.872   6.346   5.876  2.2072 -1.2646 -1.9115
 6072TIP3    H239708   1.775   6.353   5.760 -0.2822 -0.0288  0.1270
 6073TIP3   OH239709   2.357   4.360  17.080 -0.3343  0.5922  0.0911
 6073TIP3    H139710   2.415   4.418  17.030 -2.6976  1.4650 -1.8394
 6073TIP3    H239711   2.306   4.420  17.135 -1.0379  0.0996 -0.0143
 6074TIP3   OH239712   3.199   3.447  16.764  0.5833  0.1985 -0.3638
 6074TIP3    H139713   3.236   3.517  16.711 -1.2928  0.2629 -1.6717
 6074TIP3    H239714   3.262   3.375  16.757  1.4311  0.9800 -0.8636
 6075TIP3   OH239715   2.644   2.523  14.002  0.5247 -0.6852  0.3357
 6075TIP3    H139716   2.653   2.477  13.918  0.0626  3.5150 -2.3071
 6075TIP3    H239717   2.674   2.460  14.067 -0.5822 -4.8039 -2.7387
 6076TIP3   OH239718   5.830   3.611   6.785  0.7516 -0.2290 -0.1312
 6076TIP3    H139719   5.773   3.681   6.815  0.0746  1.2813 -4.2653
 6076TIP3    H239720   5.777   3.531   6.794 -0.3945  0.5281  0.0512
 6077TIP3   OH239721   3.532   6.745  12.270  0.4564 -0.5765 -0.1744
 6077TIP3    H139722   3.464   6.781  12.213  0.0554 -2.2973 -0.8453
 6077TIP3    H239723   3.613   6.786  12.239 -0.2029  1.5136  0.6472
 6078TIP3   OH239724   0.669   3.743   1.090  0.8763  0.3086 -0.0212
 6078TIP3    H139725   0.611   3.690   1.035 -0.7497  2.6154 -0.6961
 6078TIP3    H239726   0.747   3.757   1.037  1.0376 -0.7937 -0.0976
 6079TIP3   OH239727   3.263   6.327  14.636  0.6415  0.7021 -0.3342
 6079TIP3    H139728   3.175   6.294  14.652  1.5121 -1.7259 -0.0293
 6079TIP3    H239729   3.272   6.401  14.695 -0.1244 -1.0672  2.1801
 6080TIP3   OH239730   2.840   0.632  16.838  0.3566  0.3958 -0.4843
 6080TIP3    H139731   2.919   0.624  16.784  0.4134  1.0237 -0.5016
 6080TIP3    H239732   2.769   0.604  16.780  0.5103  0.2716 -0.6168
 6081TIP3   OH239733   3.821   5.778   4.736  0.0413 -0.2101 -0.3956
 6081TIP3    H139734   3.730   5.803   4.750  0.2710  0.1255  0.5602
 6081TIP3    H239735   3.870   5.824   4.804  0.9189 -0.4659 -0.8289
 6082TIP3   OH239736   5.894   5.431  17.127 -0.5074 -0.0588  0.3576
 6082TIP3    H139737   5.876   5.517  17.090 -4.3789 -0.3416  1.0930
 6082TIP3    H239738   5.813   5.381  17.112  1.5622 -3.6481 -0.0767
 6083TIP3   OH239739   6.184   0.009  14.578 -0.1732 -0.2045  0.2938
 6083TIP3    H139740   6.121   0.078  14.598 -1.0838 -0.8362 -0.3004
 6083TIP3    H239741   6.165  -0.015  14.487  1.9288  0.6161 -0.4253
 6084TIP3   OH239742   2.605   2.836   1.526 -0.0417 -0.2444  0.0682
 6084TIP3    H139743   2.671   2.766   1.528 -0.0401 -0.2508 -0.2223
 6084TIP3    H239744   2.565   2.832   1.612  0.9937  0.3834  0.6002
 6085TIP3   OH239745   0.353   3.138   4.104  0.2191 -0.8468  0.1536
 6085TIP3    H139746   0.398   3.152   4.188 -1.6577  2.3675  0.7783
 6085TIP3    H239747   0.273   3.091   4.127 -0.0847 -0.3551  0.1101
 6086TIP3   OH239748   3.862   1.304   6.269  0.1018 -0.3562 -0.1288
 6086TIP3    H139749   3.890   1.396   6.264 -0.0361 -0.3579 -1.1936
 6086TIP3    H239750   3.942   1.255   6.285  0.1548 -0.0377  0.6004
 6087TIP3   OH239751   3.574   3.413   4.627  0.1543 -0.3148  0.0875
 6087TIP3    H139752   3.578   3.342   4.691 -0.6212  0.5349  1.1032
 6087TIP3    H239753   3.638   3.477   4.659  0.0330 -0.0508 -0.1995
 6088TIP3   OH239754   2.834   6.394  11.759  0.5572  0.1665  0.3822
 6088TIP3    H139755   2.744   6.362  11.763  0.1845  1.1968  0.6252
 6088TIP3    H239756   2.853   6.402  11.666 -0.1002  1.2384  0.3223
 6089TIP3   OH239757   5.935   1.075   6.429 -0.4783  0.4646  0.7336
 6089TIP3    H139758   5.888   1.157   6.413 -0.8816  0.0562 -0.2640
 6089TIP3    H239759   5.894   1.038   6.507 -0.2243  1.2517  1.2500
 6090TIP3   OH239760   6.544   4.715  12.388 -0.2094  0.4753  0.2493
 6090TIP3    H139761   6.575   4.751  12.305 -1.6655 -1.0705 -1.0426
 6090TIP3    H239762   6.608   4.648  12.410 -0.1267  0.4918  0.0608
 6091TIP3   OH239763   1.666   0.179   0.048  0.1056  0.2905 -0.5667
 6091TIP3    H139764   1.641   0.099   0.095  0.2043  0.5919  0.0119
 6091TIP3    H239765   1.586   0.231   0.044 -0.4459 -0.6183 -2.6037
 6092TIP3   OH239766   0.745   6.473  12.461 -0.2770  0.4572 -0.0652
 6092TIP3    H139767   0.712   6.393  12.419  0.9892  0.0710 -0.4020
 6092TIP3    H239768   0.773   6.528  12.388 -1.2279  1.2609  0.1643
 6093TIP3   OH239769   2.356   3.423   0.365  0.4299  0.1432 -0.1462
 6093TIP3    H139770   2.326   3.432   0.274 -0.1447 -0.0112  0.0267
 6093TIP3    H239771   2.438   3.374   0.358  0.0764 -0.4109 -0.5377
 6094TIP3   OH239772   5.300   5.982   6.772  0.4602 -0.3821 -0.7024
 6094TIP3    H139773   5.389   5.983   6.735  0.3976  1.0148 -0.8828
 6094TIP3    H239774   5.256   6.055   6.728 -1.0230 -1.4998 -1.1664
 6095TIP3   OH239775   3.418   0.456  11.554 -0.0057 -0.2467  0.5086
 6095TIP3    H139776   3.446   0.419  11.471 -2.1409 -0.5814 -0.1165
 6095TIP3    H239777   3.323   0.464  11.546 -0.2905 -0.4800  3.0000
 6096TIP3   OH239778   0.156   3.906  17.080  0.1213 -0.2276  0.6465
 6096TIP3    H139779   0.234   3.936  17.034  0.5921 -0.7802  1.0756
 6096TIP3    H239780   0.165   3.941  17.169 -0.8883  1.0180  0.2900
 6097TIP3   OH239781   3.558   1.309   0.156 -0.3872 -0.3003  0.1576
 6097TIP3    H139782   3.596   1.270   0.078 -1.3459  0.6140 -0.8025
 6097TIP3    H239783   3.545   1.236   0.216 -1.5124 -1.3726 -1.3199
 6098TIP3   OH239784   0.301   3.346  16.556 -0.1947 -0.4110 -0.1079
 6098TIP3    H139785   0.340   3.433  16.560  0.3684 -0.6110 -1.0427
 6098TIP3    H239786   0.365   3.293  16.511 -0.1333 -1.5553  1.2465
 6099TIP3   OH239787   3.206   6.339  13.201  0.4415  0.2866  0.7257
 6099TIP3    H139788   3.112   6.328  13.184 -0.0142  4.5180 -0.7906
 6099TIP3    H239789   3.214   6.326  13.296 -1.0823 -2.6355  0.5882
 6100TIP3   OH239790   4.914   1.177  11.421  0.6328  0.0752  0.2389
 6100TIP3    H139791   4.871   1.095  11.398  1.9301 -0.8418  0.9485
 6100TIP3    H239792   4.845   1.243  11.413 -0.8896 -1.2988  1.2254
 6101TIP3   OH239793   5.305   4.065  15.089 -0.1899  0.3658  0.4170
 6101TIP3    H139794   5.348   4.125  15.150  0.2524 -1.8789  2.4508
 6101TIP3    H239795   5.215   4.098  15.083  0.7208  2.8616 -0.8622
 6102TIP3   OH239796   1.974   1.060   3.866 -0.0649  0.6296  0.1185
 6102TIP3    H139797   2.011   1.014   3.791  1.0432 -1.1560  1.6642
 6102TIP3    H239798   1.968   1.151   3.838  2.6902  0.4835 -1.3099
 6103TIP3   OH239799   6.316   5.896   5.806  0.8193  0.3057 -0.2046
 6103TIP3    H139800   6.232   5.928   5.774  0.1980 -2.2471 -1.3603
 6103TIP3    H239801   6.373   5.973   5.805  0.0154  1.1457 -4.7031
 6104TIP3   OH239802   0.343   5.547  16.616 -0.3779  0.7503  0.0865
 6104TIP3    H139803   0.392   5.501  16.685  0.1977  1.9032  0.4686
 6104TIP3    H239804   0.336   5.483  16.545 -0.7350 -0.3612  1.0942
 6105TIP3   OH239805   6.556   5.712   1.595 -0.0227 -0.1784  0.2278
 6105TIP3    H139806   6.538   5.788   1.540 -2.1673  0.2723  1.4171
 6105TIP3    H239807   6.604   5.652   1.538 -0.3123  1.1203 -1.4600
 6106TIP3   OH239808   0.958   0.194  13.169  0.2586  0.1801  0.1149
 6106TIP3    H139809   0.953   0.168  13.260 -0.6436  0.4872  0.1620
 6106TIP3    H239810   1.019   0.268  13.169 -1.1947  1.4292  0.7809
 6107TIP3   OH239811   4.803   3.456  13.456  0.1963 -0.4503 -0.2451
 6107TIP3    H139812   4.807   3.387  13.389  0.2934 -0.1822 -0.5152
 6107TIP3    H239813   4.829   3.411  13.537 -1.8618 -1.2649  0.0131
 6108TIP3   OH239814   1.953   2.218   0.750  0.2596  0.2379  0.6190
 6108TIP3    H139815   1.981   2.130   0.725 -2.1254 -0.2708 -0.5328
 6108TIP3    H239816   2.030   2.272   0.736  0.9864 -1.2051 -1.3684
 6109TIP3   OH239817   1.148   2.383   1.388 -0.2414  0.9225  0.5459
 6109TIP3    H139818   1.139   2.400   1.295  2.4741  1.2043  0.2619
 6109TIP3    H239819   1.232   2.338   1.397 -2.2666 -2.9921  2.4665
 6110TIP3   OH239820   6.117   3.139   4.452 -0.0681 -0.4486 -0.1466
 6110TIP3    H139821   6.058   3.185   4.512 -0.2143  0.0442 -0.6596
 6110TIP3    H239822   6.130   3.053   4.492  1.1550  0.4100  1.4632
 6111TIP3   OH239823   3.041   3.184  16.696 -0.0073  0.4253  0.1469
 6111TIP3    H139824   3.073   3.206  16.608  1.2905 -2.0611 -0.0945
 6111TIP3    H239825   3.033   3.269  16.740 -1.8734  1.8689 -2.6808
 6112TIP3   OH239826   2.944   3.378   3.986  0.0332 -0.1238 -0.2982
 6112TIP3    H139827   2.950   3.472   3.969  1.5008 -0.3506 -1.1874
 6112TIP3    H239828   2.938   3.338   3.900  0.9498 -0.9371  0.0029
 6113TIP3   OH239829   6.172   0.007   5.653  0.3278 -0.5345 -0.0305
 6113TIP3    H139830   6.144   0.005   5.562  0.0141  0.1185  0.0457
 6113TIP3    H239831   6.259  -0.034   5.652  0.8988  0.6052 -0.8414
 6114TIP3   OH239832   5.061   5.809   6.088  0.4445  0.0876 -0.1493
 6114TIP3    H139833   4.966   5.806   6.101  0.5209  1.5123  0.9589
 6114TIP3    H239834   5.087   5.894   6.123  2.0056  0.1583 -1.3794
 6115TIP3   OH239835   6.710   5.210  11.956 -0.0707 -0.5630 -0.3555
 6115TIP3    H139836   6.743   5.299  11.969 -0.9110 -0.3633  0.4359
 6115TIP3    H239837   6.746   5.160  12.029  0.7759 -1.0012 -1.0431
 6116TIP3   OH239838   0.940   1.131  13.337  0.1038 -0.5346 -0.3836
 6116TIP3    H139839   0.954   1.112  13.244  4.0050 -2.5004  0.4128
 6116TIP3    H239840   1.022   1.169  13.367 -1.5127  1.3789  2.0702
 6117TIP3   OH239841   2.600   6.735  13.094  0.0332  0.2425  0.0802
 6117TIP3    H139842   2.520   6.685  13.111 -0.3121  0.6343 -0.3721
 6117TIP3    H239843   2.670   6.671  13.102 -0.4167 -0.3700 -0.7085
 6118TIP3   OH239844   2.917   2.404   4.390 -0.3756 -0.1519  0.6051
 6118TIP3    H139845   2.926   2.327   4.447 -0.0538  0.3750  1.2774
 6118TIP3    H239846   2.961   2.378   4.308 -1.8137 -1.3242  0.1604
 6119TIP3   OH239847   1.337   3.746  14.304 -0.3303 -0.0793 -0.0140
 6119TIP3    H139848   1.376   3.795  14.232 -0.8345 -0.3027 -0.4591
 6119TIP3    H239849   1.411   3.706  14.350 -0.0100 -0.0853 -0.5275
 6120TIP3   OH239850   5.960   1.823   0.720 -0.8233 -0.0163 -0.3660
 6120TIP3    H139851   5.913   1.903   0.699  0.7881  0.6409 -1.6796
 6120TIP3    H239852   5.914   1.754   0.672 -0.8363  0.5042 -1.1094
 6121TIP3   OH239853   2.176   2.394  13.343 -0.0703  0.1278  0.4615
 6121TIP3    H139854   2.141   2.448  13.414  0.7858  1.3878 -0.0556
 6121TIP3    H239855   2.270   2.389  13.360 -0.1283 -1.3276  0.5566
 6122TIP3   OH239856   6.664   6.264   3.667  0.5860  0.1885 -0.6266
 6122TIP3    H139857   6.653   6.345   3.716 -0.8039 -0.3031 -0.0805
 6122TIP3    H239858   6.739   6.280   3.610  0.5253  1.7371 -0.2977
 6123TIP3   OH239859   4.674   4.553   1.427  0.1224 -0.2156 -0.0212
 6123TIP3    H139860   4.769   4.543   1.434  0.0540 -0.9283 -0.0946
 6123TIP3    H239861   4.641   4.466   1.404 -0.7619 -0.5525  2.2391
 6124TIP3   OH239862   4.987   1.664   4.993 -0.9094 -0.4828  0.0050
 6124TIP3    H139863   4.918   1.623   5.045 -0.6909  1.4402  1.9870
 6124TIP3    H239864   4.978   1.758   5.011  2.0206 -0.1246  0.1429
 6125TIP3   OH239865   3.786   5.501  14.550 -0.7028 -0.4732 -0.1418
 6125TIP3    H139866   3.738   5.541  14.477 -1.2119  0.2831  0.5938
 6125TIP3    H239867   3.821   5.420  14.513 -0.5604  0.1128 -1.3652
 6126TIP3   OH239868   4.256   1.454  15.582 -0.0056  0.4295 -0.1775
 6126TIP3    H139869   4.308   1.530  15.611 -0.8561  0.2863  1.8775
 6126TIP3    H239870   4.165   1.484  15.586 -0.2422  0.0930 -1.9709
 6127TIP3   OH239871   1.718   0.877   1.342  0.3472 -0.1101  0.4148
 6127TIP3    H139872   1.756   0.819   1.409  0.5077 -1.1053 -0.5142
 6127TIP3    H239873   1.744   0.838   1.259 -0.6044  0.6172 -0.2447
 6128TIP3   OH239874   2.566   0.518  13.790  0.2020 -0.0806  0.1247
 6128TIP3    H139875   2.629   0.500  13.720  0.9868  0.5156  0.6522
 6128TIP3    H239876   2.612   0.493  13.870 -0.4826 -0.2372  0.4786
 6129TIP3   OH239877   4.500   2.487   2.430  0.1145 -0.4608 -0.2334
 6129TIP3    H139878   4.513   2.580   2.412 -0.9176 -0.2200  0.1946
 6129TIP3    H239879   4.584   2.457   2.464  0.1895  0.5331  0.5176
 6130TIP3   OH239880   5.846   1.173  13.320  0.3067 -0.1743  0.0527
 6130TIP3    H139881   5.855   1.078  13.316 -0.1273 -0.2503  0.8017
 6130TIP3    H239882   5.932   1.205  13.346  0.3582 -0.3794  0.1324
 6131TIP3   OH239883   1.003   3.313  13.820 -0.3105  0.4311  0.2605
 6131TIP3    H139884   0.953   3.383  13.778 -1.7957 -0.7187  0.0213
 6131TIP3    H239885   1.091   3.348  13.829 -0.4024  1.4285 -2.0822
 6132TIP3   OH239886   0.511   2.753  15.718  0.0498 -0.1413  0.5045
 6132TIP3    H139887   0.428   2.714  15.746 -0.2887 -1.4415 -1.9987
 6132TIP3    H239888   0.578   2.697  15.758 -0.3411 -0.5919  0.5326
 6133TIP3   OH239889   4.131   2.952  12.974  0.0168 -0.3856 -0.0759
 6133TIP3    H139890   4.070   2.929  12.904 -0.2965  0.4584 -0.0902
 6133TIP3    H239891   4.160   2.868  13.009 -0.6838 -0.8034 -0.4767
 6134TIP3   OH239892   2.956   2.183   1.397  0.4149  0.1787  0.5595
 6134TIP3    H139893   3.022   2.192   1.328  1.2947 -0.4280  1.2935
 6134TIP3    H239894   2.876   2.159   1.351  0.8691  0.2496 -0.2881
 6135TIP3   OH239895   3.077   4.903   5.125  0.2809  0.3436  0.1343
 6135TIP3    H139896   3.007   4.842   5.103  1.0993 -0.5012 -0.2051
 6135TIP3    H239897   3.109   4.874   5.210  0.2006  0.7523  0.3083
 6136TIP3   OH239898   5.557   3.750  15.160 -0.1126  0.0407  0.3166
 6136TIP3    H139899   5.582   3.833  15.202  0.1241 -0.2413  0.7319
 6136TIP3    H239900   5.634   3.694  15.168 -0.3133 -0.2641  0.1410
 6137TIP3   OH239901   2.296   0.669   4.863  1.2461 -0.0784  0.3710
 6137TIP3    H139902   2.331   0.657   4.774  1.6294  1.3564  0.2980
 6137TIP3    H239903   2.360   0.626   4.919  0.0372 -2.7091 -0.1107
 6138TIP3   OH239904   6.743   3.486  16.085 -0.3208  0.5033  0.0381
 6138TIP3    H139905   6.703   3.541  16.153 -0.7431 -0.2164  0.3809
 6138TIP3    H239906   6.837   3.494  16.100 -0.4247 -0.0388  1.0289
 6139TIP3   OH239907   6.160   3.860  15.956  0.2011  0.3147  0.2905
 6139TIP3    H139908   6.164   3.912  15.876 -0.9067  0.4737  0.3183
 6139TIP3    H239909   6.067   3.843  15.969  0.5685 -2.2699 -0.0710
 6140TIP3   OH239910   4.444   6.303  15.057 -0.3468 -0.3698  0.0492
 6140TIP3    H139911   4.539   6.297  15.052 -0.2292 -0.4428  1.8007
 6140TIP3    H239912   4.426   6.323  15.149 -1.9189  1.8176 -0.6450
 6141TIP3   OH239913   3.412   0.365   2.966 -0.0319 -0.2401  0.1990
 6141TIP3    H139914   3.505   0.367   2.944 -0.6321  2.8576 -2.8182
 6141TIP3    H239915   3.381   0.280   2.933  1.0907  0.2020 -2.1788
 6142TIP3   OH239916   2.431   6.372   0.464  0.2241  0.1678  0.0939
 6142TIP3    H139917   2.447   6.352   0.556  1.1144  0.3033 -0.0247
 6142TIP3    H239918   2.499   6.436   0.441 -1.7039  2.3732  0.1155
 6143TIP3   OH239919   1.332   1.961  11.029  0.0687 -0.1014 -0.1395
 6143TIP3    H139920   1.424   1.977  11.048  0.4464 -1.9387 -0.2932
 6143TIP3    H239921   1.316   1.872  11.058 -2.0580  0.6444  1.2457
 6144TIP3   OH239922   5.945   3.994  17.152  0.0368 -0.3292 -0.6101
 6144TIP3    H139923   5.988   4.062  17.101  0.0701  0.6322  0.6675
 6144TIP3    H239924   6.004   3.977  17.225  0.6011 -2.5913 -1.4830
 6145TIP3   OH239925   0.891   2.186  12.938 -0.4294  0.2057  0.2545
 6145TIP3    H139926   0.922   2.175  12.848  0.0820 -1.8503  0.6167
 6145TIP3    H239927   0.954   2.136  12.990 -0.5854  1.5562  1.7930
 6146TIP3   OH239928   1.187   3.965  12.821  0.2989 -0.1540  0.0474
 6146TIP3    H139929   1.155   3.894  12.877 -0.0894 -0.2786 -0.3323
 6146TIP3    H239930   1.283   3.960  12.829  0.2378  0.2423  1.2063
 6147TIP3   OH239931   4.539   2.079  12.891 -0.4131  0.3897 -0.7424
 6147TIP3    H139932   4.560   2.107  12.802  0.8734  1.4174 -0.1422
 6147TIP3    H239933   4.623   2.051  12.928 -1.3838 -3.3288 -0.9100
 6148TIP3   OH239934   1.258   4.703  13.487 -0.2479 -0.0260  0.7033
 6148TIP3    H139935   1.177   4.655  13.503 -0.0903 -0.3349  0.5805
 6148TIP3    H239936   1.327   4.640  13.506 -0.0223 -0.7447 -1.9894
 6149TIP3   OH239937   2.477   2.026   1.786  0.6291  0.7565 -0.1051
 6149TIP3    H139938   2.448   2.091   1.723 -1.8303  1.5236  1.6578
 6149TIP3    H239939   2.417   1.952   1.775 -0.6290  1.3646  1.9806
 6150TIP3   OH239940   4.019   0.832  15.803  0.4072  0.6482 -0.0301
 6150TIP3    H139941   3.981   0.793  15.724 -0.0050 -1.3559  1.0893
 6150TIP3    H239942   4.106   0.861  15.776  0.2064  0.1661 -1.2617
 6151TIP3   OH239943   2.076   2.407   5.713 -0.0666 -0.1089 -0.3398
 6151TIP3    H139944   2.068   2.320   5.675 -0.2282 -0.2085 -0.0845
 6151TIP3    H239945   2.170   2.424   5.715 -0.0678 -0.0166 -0.9690
 6152TIP3   OH239946   2.061   5.228  15.561  0.0120 -0.0896 -0.4700
 6152TIP3    H139947   2.065   5.172  15.639  2.0802 -0.1940 -0.5772
 6152TIP3    H239948   1.988   5.193  15.510 -1.4389  0.0411  1.4280
 6153TIP3   OH239949   1.723   0.278  14.470 -0.0393 -0.0749 -0.5227
 6153TIP3    H139950   1.694   0.361  14.510 -0.2546 -0.6068  0.4439
 6153TIP3    H239951   1.782   0.305  14.400  0.8164  0.8679  0.5232
 6154TIP3   OH239952   0.912   0.133   2.588 -0.2085 -0.5605  0.4642
 6154TIP3    H139953   0.894   0.120   2.495  0.2192  0.0806  0.2876
 6154TIP3    H239954   0.854   0.071   2.632 -0.8700 -0.4295 -0.2032
 6155TIP3   OH239955   4.390   0.841  14.653 -0.3247  0.1346  0.0401
 6155TIP3    H139956   4.400   0.769  14.590 -1.9267 -0.8605  0.8343
 6155TIP3    H239957   4.303   0.877  14.634 -1.2880 -0.8387  2.2487
 6156TIP3   OH239958   6.298   2.221  14.148 -0.2414  0.7549 -0.0127
 6156TIP3    H139959   6.376   2.219  14.204  0.6968 -0.2963 -1.2778
 6156TIP3    H239960   6.226   2.237  14.208  0.8187  0.6017  1.3617
 6157TIP3   OH239961   3.476   4.831  13.874  0.1074  0.0641 -0.1445
 6157TIP3    H139962   3.431   4.777  13.809  0.0238  0.9100 -0.8159
 6157TIP3    H239963   3.415   4.903  13.891  1.3985  1.5381 -1.4935
 6158TIP3   OH239964   4.956   1.954  17.036 -0.5456 -0.1943 -0.9435
 6158TIP3    H139965   4.998   1.886  16.983 -2.5795  0.1578 -3.1846
 6158TIP3    H239966   4.960   2.033  16.981  0.7434  1.3020  1.1323
 6159TIP3   OH239967   4.780   2.020  13.013  0.1898 -0.0670  0.1986
 6159TIP3    H139968   4.869   1.991  13.035 -1.1404 -4.0589  1.0905
 6159TIP3    H239969   4.737   2.032  13.098 -0.4103  0.9599 -0.2335
 6160TIP3   OH239970   2.511   4.000   5.763 -0.3747 -0.1200 -0.1927
 6160TIP3    H139971   2.604   3.990   5.786 -0.5213  0.1252  0.5262
 6160TIP3    H239972   2.496   3.934   5.695 -0.2199 -1.7171  1.2504
 6161TIP3   OH239973   1.547   5.860   0.964  0.2437  0.4218  0.0375
 6161TIP3    H139974   1.531   5.914   1.042 -0.6206 -1.7374  1.4352
 6161TIP3    H239975   1.642   5.851   0.961  0.2406 -0.6524  1.7473
 6162TIP3   OH239976   6.779   1.464  15.871  0.2404  0.6830 -0.0876
 6162TIP3    H139977   6.833   1.387  15.890  1.0501  1.2850  0.1126
 6162TIP3    H239978   6.706   1.430  15.819  0.9543 -0.1086 -0.5954
 6163TIP3   OH239979   5.024   0.910   5.289  0.4510  0.3453 -0.1408
 6163TIP3    H139980   5.039   0.823   5.326 -0.4026  0.6879  1.0740
 6163TIP3    H239981   5.096   0.922   5.227 -0.3424 -1.9098 -1.6448
 6164TIP3   OH239982   2.750   5.230   5.924 -0.9918  0.4013 -0.2487
 6164TIP3    H139983   2.795   5.294   5.978 -1.1096  0.7873 -0.6030
 6164TIP3    H239984   2.728   5.277   5.844  0.7992 -0.6529 -1.4106
 6165TIP3   OH239985   1.501   5.335   5.241 -0.1286 -0.4435  0.0510
 6165TIP3    H139986   1.533   5.270   5.178 -0.9315 -2.0462  1.2331
 6165TIP3    H239987   1.571   5.340   5.306 -0.9711 -1.7948  1.1082
 6166TIP3   OH239988   3.901   2.336  13.730  0.3075  0.5285 -0.5290
 6166TIP3    H139989   3.978   2.296  13.771 -0.0470 -0.6708 -0.9813
 6166TIP3    H239990   3.878   2.277  13.659 -0.7427  1.1251 -0.7173
 6167TIP3   OH239991   0.713   6.489  11.652  0.2905 -0.1517  0.1236
 6167TIP3    H139992   0.714   6.415  11.591 -1.0442  0.4040 -0.6227
 6167TIP3    H239993   0.801   6.492  11.688 -0.1152 -3.3398  1.6838
 6168TIP3   OH239994   6.436   4.643   0.301 -0.5634  0.7588 -0.3468
 6168TIP3    H139995   6.388   4.660   0.382  0.5617 -0.6375  0.6570
 6168TIP3    H239996   6.368   4.628   0.236 -1.4944  0.5613  0.6407
 6169TIP3   OH239997   6.059   2.399  14.026 -0.4773 -0.0505 -0.4579
 6169TIP3    H139998   6.086   2.409  14.117  1.8097  0.7491 -1.1661
 6169TIP3    H239999   5.992   2.331  14.029  1.0981 -1.6655  1.5611
 6170TIP3   OH240000   0.045   2.262  14.167  0.5812  0.5384 -0.7084
 6170TIP3    H140001  -0.037   2.219  14.192  1.0085 -0.5098 -1.0327
 6170TIP3    H240002   0.028   2.355  14.176 -0.2793  0.2910  0.3637
 6171TIP3   OH240003   6.424   6.549  12.760 -0.0936 -0.1605 -0.1385
 6171TIP3    H140004   6.518   6.556  12.772 -0.2164  0.4505  0.4584
 6171TIP3    H240005   6.398   6.631  12.718 -0.4802  0.0425  0.4771
 6172TIP3   OH240006   1.075   5.361  10.733 -0.7954  0.1217 -0.0227
 6172TIP3    H140007   1.099   5.270  10.750 -0.0952  0.0097 -1.4953
 6172TIP3    H240008   0.980   5.364  10.744 -0.6453 -0.3952  1.6613
 6173TIP3   OH240009   2.837   3.654  15.155  0.1460  0.2563  0.2658
 6173TIP3    H140010   2.805   3.568  15.128  0.6081 -0.2515  1.2754
 6173TIP3    H240011   2.822   3.710  15.079  1.3179 -1.0757 -1.0040
 6174TIP3   OH240012   5.059   0.842  14.849 -0.2154  0.1394  0.0363
 6174TIP3    H140013   5.018   0.861  14.765  0.3091 -0.6560 -0.4185
 6174TIP3    H240014   5.010   0.768  14.884 -1.5590  1.5585  1.2842
 6175TIP3   OH240015   3.718   0.647  16.194 -0.0797  0.6040 -0.5295
 6175TIP3    H140016   3.636   0.657  16.242 -0.1706  1.7191 -0.9030
 6175TIP3    H240017   3.691   0.628  16.104  0.0590  1.0836 -0.6782
 6176TIP3   OH240018   3.469   1.811   0.242  0.1343 -0.0360 -0.2538
 6176TIP3    H140019   3.483   1.854   0.326  2.1333 -0.5737 -0.2633
 6176TIP3    H240020   3.378   1.781   0.245  0.0353  0.3403  1.5334
 6177TIP3   OH240021   1.942   4.402  13.185 -0.2055 -0.4705 -0.3682
 6177TIP3    H140022   1.871   4.364  13.134  1.7107 -0.4716 -3.2619
 6177TIP3    H240023   1.936   4.496  13.168  0.1243 -0.4006 -0.1069
 6178TIP3   OH240024   6.588   3.388   1.081 -0.1542 -0.2706 -0.4622
 6178TIP3    H140025   6.656   3.439   1.037 -0.3795 -0.1303 -0.6415
 6178TIP3    H240026   6.603   3.298   1.051 -0.2684 -0.1851 -0.7765
 6179TIP3   OH240027   2.207   2.660   2.414 -0.9510  0.3921 -0.4818
 6179TIP3    H140028   2.220   2.572   2.449 -0.5168  0.7189  0.1933
 6179TIP3    H240029   2.212   2.649   2.319 -0.6928 -0.2725 -0.3974
 6180TIP3   OH240030   6.444   1.560  15.874 -0.4213 -0.3794  0.1963
 6180TIP3    H140031   6.503   1.500  15.920 -1.8806 -1.2758  0.9686
 6180TIP3    H240032   6.451   1.642  15.923  0.4142 -0.3741  0.0817
 6181TIP3   OH240033   2.346   5.191  10.430  0.3786  0.5445  1.1184
 6181TIP3    H140034   2.283   5.172  10.499  0.4595  0.6417  1.2185
 6181TIP3    H240035   2.372   5.282  10.446 -0.6363  1.0368  0.1584
 6182TIP3   OH240036   6.399   0.365   4.151  0.2617  0.5657  0.3395
 6182TIP3    H140037   6.381   0.459   4.139  0.4064  0.6771  0.9826
 6182TIP3    H240038   6.454   0.361   4.229  1.1531  0.0343 -0.2856
 6183TIP3   OH240039   4.674   5.777  15.129  0.6105  0.5232  0.2117
 6183TIP3    H140040   4.698   5.705  15.188 -0.9100  0.2491  0.5572
 6183TIP3    H240041   4.676   5.738  15.041  1.5012  0.5440  0.2206
 6184TIP3   OH240042   1.672   4.855  14.969 -0.4221 -0.2026 -0.4645
 6184TIP3    H140043   1.726   4.855  15.049  1.6557 -0.1295 -1.7821
 6184TIP3    H240044   1.666   4.947  14.945  0.6762 -0.3595 -1.4333
 6185TIP3   OH240045   1.821   2.920   2.887 -0.0769 -0.6741  0.0557
 6185TIP3    H140046   1.819   2.919   2.983  3.2076 -0.4583  0.2600
 6185TIP3    H240047   1.734   2.949   2.861 -2.1946 -3.8918  2.7895
 6186TIP3   OH240048   2.485   4.163  10.922  0.5369  0.5072  0.3947
 6186TIP3    H140049   2.464   4.146  10.830  3.4617 -0.3921 -0.2286
 6186TIP3    H240050   2.526   4.249  10.921 -0.2807  0.9156  1.0453
 6187TIP3   OH240051   2.270   0.608  10.987  0.0738 -0.0871  0.7572
 6187TIP3    H140052   2.234   0.519  10.985  0.3708 -0.1982 -0.1912
 6187TIP3    H240053   2.242   0.647  10.904 -1.6572  1.3664  1.9278
 6188TIP3   OH240054   0.062   3.168   5.285  0.0431  0.3221 -0.3223
 6188TIP3    H140055  -0.028   3.187   5.312  0.0795  1.0215 -0.6569
 6188TIP3    H240056   0.083   3.084   5.326 -1.5326 -0.9717 -2.0170
 6189TIP3   OH240057   6.689   3.541   6.311 -0.1767 -0.7059  0.3369
 6189TIP3    H140058   6.719   3.556   6.400  1.9379  0.7070 -0.5546
 6189TIP3    H240059   6.765   3.507   6.265 -1.3065 -1.6527 -0.9190
 6190TIP3   OH240060   1.907   6.657  13.307  0.1051  0.0340  0.2673
 6190TIP3    H140061   1.924   6.574  13.263  1.5952 -0.7220  2.1374
 6190TIP3    H240062   1.813   6.672  13.295  0.2565 -0.5660 -2.2988
 6191TIP3   OH240063   3.419   3.015  10.535 -0.3808 -0.3981 -0.0619
 6191TIP3    H140064   3.508   2.996  10.566 -0.0710  1.4527  0.3091
 6191TIP3    H240065   3.373   3.048  10.612 -0.4954  1.4532 -0.8781
 6192TIP3   OH240066   5.640   6.411   4.061  0.3101  0.4075  0.2426
 6192TIP3    H140067   5.591   6.493   4.059 -1.9247 -0.8367  0.3909
 6192TIP3    H240068   5.715   6.429   4.117 -0.1168  2.3336  0.2568
 6193TIP3   OH240069   6.140   6.477  16.761  0.6657 -0.2155 -0.1284
 6193TIP3    H140070   6.102   6.416  16.824  1.4614  0.2232  0.8046
 6193TIP3    H240071   6.173   6.421  16.691 -0.1801 -0.7157 -0.1401
 6194TIP3   OH240072   2.176   2.746  12.993 -0.8333  0.2698 -0.0752
 6194TIP3    H140073   2.235   2.734  12.919 -2.0453  0.9707 -1.1899
 6194TIP3    H240074   2.197   2.834  13.027  0.6754 -0.5846  1.3351
 6195TIP3   OH240075   3.013   0.538  13.490  0.7067  0.6109  0.2891
 6195TIP3    H140076   3.028   0.632  13.502  0.5591  0.4745  1.7311
 6195TIP3    H240077   3.086   0.496  13.536  0.2881  0.0186  0.4210
 6196TIP3   OH240078   3.054   2.755  10.331  0.3632 -0.0504 -0.2227
 6196TIP3    H140079   2.958   2.749  10.339  0.4287  0.1876  0.9279
 6196TIP3    H240080   3.069   2.846  10.305  0.2580 -0.2695 -1.1050
 6197TIP3   OH240081   5.439   1.897  15.309 -0.4299 -0.0968  0.1731
 6197TIP3    H140082   5.358   1.849  15.329  0.2553 -1.5759 -0.5171
 6197TIP3    H240083   5.509   1.833  15.321  0.8974  1.6265  2.6129
 6198TIP3   OH240084   4.152   0.003   4.273  0.0522 -0.4041  0.4473
 6198TIP3    H140085   4.160  -0.090   4.297 -0.4645 -0.5017  0.2711
 6198TIP3    H240086   4.142   0.048   4.357  0.6077 -0.4741  0.5511
 6199TIP3   OH240087   3.817   3.384   3.358  0.6479 -0.1788 -0.0716
 6199TIP3    H140088   3.865   3.332   3.293  1.1401  1.2026 -0.8456
 6199TIP3    H240089   3.734   3.406   3.315  0.5354 -0.1292  0.1672
 6200TIP3   OH240090   6.731   0.708   2.161 -0.0896 -0.2678  0.0712
 6200TIP3    H140091   6.672   0.634   2.149  1.3958 -1.2000 -2.3011
 6200TIP3    H240092   6.722   0.759   2.080  1.1113  0.4925  0.3863
 6201TIP3   OH240093   1.484   0.304  15.856  0.0572 -0.0741 -0.0369
 6201TIP3    H140094   1.474   0.390  15.816  2.3157  0.7163  0.9113
 6201TIP3    H240095   1.444   0.314  15.943 -1.0012 -0.4779 -0.4565
 6202TIP3   OH240096   2.219   1.343  14.250  0.6630  0.5475  0.3472
 6202TIP3    H140097   2.213   1.437  14.268 -0.8786  0.2398  1.6759
 6202TIP3    H240098   2.177   1.332  14.164  0.4260  1.0194  0.4005
 6203TIP3   OH240099   5.171   3.720   0.499  0.7404  0.7396 -0.1074
 6203TIP3    H140100   5.139   3.804   0.466  1.6239  0.0262 -3.0174
 6203TIP3    H240101   5.128   3.654   0.446  0.1398 -0.7174  2.0717
 6204TIP3   OH240102   3.427   4.595  14.133  0.2967 -0.7673  0.1160
 6204TIP3    H140103   3.486   4.619  14.204 -0.0046  4.5256 -1.0165
 6204TIP3    H240104   3.484   4.591  14.055 -0.2389  0.5764 -0.3742
 6205TIP3   OH240105   6.401   5.177  14.695  0.5711  0.4097  0.0107
 6205TIP3    H140106   6.373   5.124  14.620 -2.0172  0.3806  0.8949
 6205TIP3    H240107   6.408   5.115  14.767  1.0029  0.7476  0.2638
 6206TIP3   OH240108   2.880   4.921  14.886 -0.4070 -0.5596  0.3550
 6206TIP3    H140109   2.789   4.930  14.859 -0.0331 -0.9834 -1.1399
 6206TIP3    H240110   2.883   4.961  14.973 -2.1872 -1.3150  0.8246
 6207TIP3   OH240111   1.613   4.071   1.237  0.4609 -0.0018  0.0847
 6207TIP3    H140112   1.574   4.145   1.191  0.5811 -0.0848 -0.1554
 6207TIP3    H240113   1.567   4.067   1.320 -0.3573 -0.3708 -0.3776
 6208TIP3   OH240114   0.065   3.264  14.406  0.2051  0.1657 -0.1160
 6208TIP3    H140115   0.149   3.276  14.450  0.5018 -0.0036 -0.6337
 6208TIP3    H240116   0.004   3.242  14.477  0.5294  0.5869  0.2984
 6209TIP3   OH240117   4.955   2.467   1.661 -0.1909  0.0290 -0.2816
 6209TIP3    H140118   5.051   2.466   1.658 -0.1925  0.3291 -0.5356
 6209TIP3    H240119   4.933   2.560   1.675 -0.4178 -0.1936  0.9357
 6210TIP3   OH240120   0.636   4.012  14.218 -0.1233  0.7721  0.0785
 6210TIP3    H140121   0.650   3.923  14.186  0.3767  0.6322  0.6710
 6210TIP3    H240122   0.543   4.016  14.240  0.2274 -0.2224  1.8967
 6211TIP3   OH240123   4.156   4.509   3.948  0.0172 -0.1404 -0.3071
 6211TIP3    H140124   4.065   4.529   3.971 -0.1490  0.0183 -1.0608
 6211TIP3    H240125   4.205   4.587   3.971  0.1810 -0.6725  1.2493
 6212TIP3   OH240126   5.043   6.567   0.404  0.1012 -0.3919 -0.1175
 6212TIP3    H140127   5.045   6.580   0.310 -0.0284 -0.9748 -0.2031
 6212TIP3    H240128   5.123   6.517   0.423  0.1652 -0.2129  0.0915
 6213TIP3   OH240129   4.624   5.854   1.219  0.0918  0.1326  0.2327
 6213TIP3    H140130   4.584   5.774   1.253 -1.4861  0.7191 -0.1064
 6213TIP3    H240131   4.717   5.836   1.215 -0.0984 -1.2409  1.3519
 6214TIP3   OH240132   3.134   3.407   0.792  0.2926 -0.1691 -0.6289
 6214TIP3    H140133   3.169   3.485   0.748 -0.4499  0.9234  0.6251
 6214TIP3    H240134   3.212   3.355   0.814  0.8761  0.6224 -0.7711
 6215TIP3   OH240135   6.248   2.426   0.528  0.1171  0.4658 -0.1601
 6215TIP3    H140136   6.180   2.447   0.463  0.0456 -0.4953 -0.4088
 6215TIP3    H240137   6.208   2.446   0.612 -0.0473  1.0393 -0.3703
 6216TIP3   OH240138   6.487   1.092   2.900 -0.2562 -0.0757  0.1612
 6216TIP3    H140139   6.447   1.059   2.820 -0.4814  1.7612 -0.5520
 6216TIP3    H240140   6.415   1.097   2.963  0.2265 -3.0597  1.0767
 6217TIP3   OH240141   1.697   3.106  15.275 -0.0553  0.3784 -0.0927
 6217TIP3    H140142   1.775   3.162  15.286 -0.1538  0.7235 -1.0406
 6217TIP3    H240143   1.635   3.161  15.227 -0.2771 -0.4297 -0.7624
 6218TIP3   OH240144   0.078   3.958   5.904 -0.8691 -0.4256 -0.2356
 6218TIP3    H140145   0.028   3.912   5.836  0.2220  0.7218 -1.8690
 6218TIP3    H240146   0.134   3.890   5.941 -1.3168 -1.0263 -0.6288
 6219TIP3   OH240147   3.085   1.689   6.208  0.1692  0.2085 -0.5349
 6219TIP3    H140148   3.164   1.735   6.235  0.3730 -0.3165 -0.2107
 6219TIP3    H240149   3.039   1.670   6.290  0.4123 -0.7205 -0.5961
 6220TIP3   OH240150   5.483   2.003  14.725 -0.0473 -0.6836 -0.0517
 6220TIP3    H140151   5.561   2.056  14.740 -0.5541  0.6097 -1.7294
 6220TIP3    H240152   5.469   1.957  14.808  0.2853  1.9645  1.5747
 6221TIP3   OH240153   2.565   6.668  14.370  0.0822  0.0861  0.0075
 6221TIP3    H140154   2.523   6.588  14.402  1.4995  0.1233  2.2054
 6221TIP3    H240155   2.520   6.688  14.288 -0.5655 -2.7436 -0.4347
 6222TIP3   OH240156   4.372   3.996  14.553 -0.1620 -0.0556  0.9231
 6222TIP3    H140157   4.295   3.939  14.549  0.6329 -1.0730 -1.0519
 6222TIP3    H240158   4.445   3.937  14.571  0.3838  0.6809  1.1715
 6223TIP3   OH240159   0.887   1.121  14.285 -0.4024 -0.1862 -0.1720
 6223TIP3    H140160   0.852   1.170  14.211  1.0599 -0.7352 -1.2937
 6223TIP3    H240161   0.979   1.148  14.291  0.0709 -1.7148  0.0607
 6224TIP3   OH240162   4.021   1.678   3.481  0.1243  0.6519 -0.7544
 6224TIP3    H140163   4.007   1.713   3.393 -0.3645  3.0786  0.1967
 6224TIP3    H240164   3.935   1.644   3.507  0.1156  0.4885 -0.9976
 6225TIP3   OH240165   3.818   4.108  11.351 -0.2190 -0.1998  0.2745
 6225TIP3    H140166   3.892   4.167  11.341  0.0889 -0.4161  1.1390
 6225TIP3    H240167   3.848   4.025  11.315  0.3999 -0.6088  1.6619
 6226TIP3   OH240168   1.523   1.063   5.294 -0.1278  0.3627  0.3833
 6226TIP3    H140169   1.541   1.058   5.388 -0.0371  0.1871  0.3565
 6226TIP3    H240170   1.589   1.007   5.254 -1.6233 -1.5294  0.4055
 6227TIP3   OH240171   0.266   1.860   3.449  0.1566 -0.6097  0.2569
 6227TIP3    H140172   0.210   1.796   3.494  1.5686 -1.7369  0.4745
 6227TIP3    H240173   0.325   1.807   3.396  1.0904  0.5388  0.1152
 6228TIP3   OH240174   2.656   2.117   3.994 -0.2824 -0.3407 -0.3684
 6228TIP3    H140175   2.618   2.202   4.018  0.7612 -0.1273  0.6416
 6228TIP3    H240176   2.584   2.070   3.952 -0.2875  1.8791 -3.1414
 6229TIP3   OH240177   4.962   3.075   2.374 -0.4754 -0.4850 -0.0509
 6229TIP3    H140178   5.046   3.034   2.397  0.0983 -0.8156 -2.4501
 6229TIP3    H240179   4.986   3.159   2.335 -1.4032  0.3019  1.0308
 6230TIP3   OH240180   4.616   0.794  16.635 -0.3268 -0.4390 -0.6376
 6230TIP3    H140181   4.560   0.766  16.562 -1.2199 -0.9953  0.2342
 6230TIP3    H240182   4.695   0.827  16.593 -1.3905  0.5905 -1.9413
 6231TIP3   OH240183   1.713   5.622  16.989  0.8040  0.6710  0.3011
 6231TIP3    H140184   1.673   5.536  16.981  2.2309  0.0186 -0.0357
 6231TIP3    H240185   1.731   5.648  16.898  0.5691  1.2427  0.4119
 6232TIP3   OH240186   3.111   1.119   0.770 -0.4224 -0.0179  1.0605
 6232TIP3    H140187   3.017   1.136   0.760 -0.2539 -0.1192 -1.1376
 6232TIP3    H240188   3.119   1.080   0.857 -2.4286 -0.0520  1.2734
 6233TIP3   OH240189   0.133   4.715  12.131  0.1644 -0.0894 -0.5431
 6233TIP3    H140190   0.181   4.763  12.198 -1.3961 -0.9918  1.3140
 6233TIP3    H240191   0.109   4.782  12.067  1.2144  0.9028  0.0663
 6234TIP3   OH240192   6.330   1.780   6.086  0.0203 -0.3717 -0.8886
 6234TIP3    H140193   6.390   1.706   6.087 -1.1435 -1.4037  2.0322
 6234TIP3    H240194   6.355   1.833   6.162 -1.8742 -0.1288 -0.3744
 6235TIP3   OH240195   0.650   4.270  12.051  0.5180 -0.9020  0.5286
 6235TIP3    H140196   0.741   4.255  12.025  0.4918  0.6642 -0.5641
 6235TIP3    H240197   0.656   4.335  12.121  0.1929  0.0143 -0.2807
 6236TIP3   OH240198   1.664   4.469  16.678 -0.3929 -0.0116  0.0165
 6236TIP3    H140199   1.570   4.454  16.689 -0.4349  0.0656 -0.2361
 6236TIP3    H240200   1.670   4.556  16.640 -0.2716 -0.4374 -0.9735
 6237TIP3   OH240201   0.527   4.897   6.348 -0.1107 -0.0898  0.2072
 6237TIP3    H140202   0.546   4.885   6.441  1.0116 -0.6267 -0.0740
 6237TIP3    H240203   0.447   4.949   6.346  0.2465  0.5468  1.4818
 6238TIP3   OH240204   0.480   5.348   5.912  0.3541  0.0751  0.1135
 6238TIP3    H140205   0.482   5.326   5.818  0.5382  1.1740 -0.1501
 6238TIP3    H240206   0.547   5.292   5.950  1.6038  0.9370 -0.7339
 6239TIP3   OH240207   2.075   0.377  12.144 -0.0920 -0.3076  0.4762
 6239TIP3    H140208   2.085   0.418  12.058  0.7365 -1.4316  0.0051
 6239TIP3    H240209   1.988   0.404  12.174 -0.5127 -0.1306 -0.8450
 6240TIP3   OH240210   0.804   3.349  11.179  0.1187  0.2108  0.5276
 6240TIP3    H140211   0.802   3.364  11.085  0.1857 -2.6047 -0.0097
 6240TIP3    H240212   0.893   3.374  11.205  0.0247  1.2248 -0.0932
 6241TIP3   OH240213   6.688   4.848   4.226 -0.5207 -0.4905  0.3353
 6241TIP3    H140214   6.659   4.920   4.170  0.2686 -1.3598 -1.2639
 6241TIP3    H240215   6.615   4.786   4.226 -1.1682  0.2310  1.6474
 6242TIP3   OH240216   0.281   5.520  12.042 -0.4666 -0.3590 -0.4294
 6242TIP3    H140217   0.309   5.595  11.990 -1.9708  0.5889  0.0791
 6242TIP3    H240218   0.204   5.551  12.090  0.3899 -1.4138  1.7960
 6243TIP3   OH240219   3.804   0.121  12.800  0.5125  0.7734  0.1918
 6243TIP3    H140220   3.800   0.153  12.890 -1.1476  1.1244  0.0304
 6243TIP3    H240221   3.713   0.098  12.779  1.1231 -0.8448 -0.8535
 6244TIP3   OH240222   1.187   5.238  16.225 -0.3549 -0.2232 -0.0524
 6244TIP3    H140223   1.165   5.195  16.142 -0.3046  0.4153 -0.4016
 6244TIP3    H240224   1.207   5.329  16.201  1.8213 -0.5422  0.3685
 6245TIP3   OH240225   5.668   2.091   5.220 -0.6411  0.4048 -0.5305
 6245TIP3    H140226   5.705   2.003   5.219  0.5903  0.9077 -2.0920
 6245TIP3    H240227   5.587   2.081   5.270  0.7893 -1.0371  1.7179
 6246TIP3   OH240228   0.074   6.656  14.328 -0.3558 -0.0927  0.1796
 6246TIP3    H140229   0.162   6.617  14.333 -0.4327 -0.2667  0.1950
 6246TIP3    H240230   0.040   6.626  14.244 -0.1645  0.4821 -0.1095
 6247TIP3   OH240231   1.137   4.158  13.653  0.1656 -0.0199  0.0416
 6247TIP3    H140232   1.215   4.154  13.709  1.3926 -0.1849 -1.5967
 6247TIP3    H240233   1.064   4.170  13.714  1.3105 -1.2401  1.7371
 6248TIP3   OH240234   0.054   6.569   4.287 -0.3494  0.1036  0.2133
 6248TIP3    H140235   0.139   6.604   4.261  0.3779 -1.4060  0.4968
 6248TIP3    H240236  -0.009   6.637   4.261  0.6703  0.1796 -2.2723
 6249TIP3   OH240237   6.754   5.783  15.624  0.0980  0.3382 -0.4390
 6249TIP3    H140238   6.821   5.763  15.690 -0.7809  1.5978  0.9169
 6249TIP3    H240239   6.671   5.773  15.672 -0.8792 -2.7763 -2.4693
 6250TIP3   OH240240   2.622   1.135   2.198  0.2756 -0.1252  0.1502
 6250TIP3    H140241   2.690   1.150   2.264 -0.5471  1.3098  0.7187
 6250TIP3    H240242   2.599   1.043   2.208 -0.6076  0.2903  2.6906
 6251TIP3   OH240243   2.516   5.742   1.736 -0.1709  0.3655 -0.0336
 6251TIP3    H140244   2.488   5.746   1.645 -0.4667 -0.3194  0.0216
 6251TIP3    H240245   2.594   5.686   1.735 -0.3741  0.0798  0.1806
 6252TIP3   OH240246   2.081   0.842   3.178  0.3776  0.1906 -0.2185
 6252TIP3    H140247   2.012   0.892   3.135 -1.1977 -1.2440  0.5008
 6252TIP3    H240248   2.099   0.889   3.259 -1.7008 -0.7405  0.8697
 6253TIP3   OH240249   4.999   3.787   4.786  0.2575 -0.0396 -0.0631
 6253TIP3    H140250   4.992   3.835   4.703  0.2181 -0.1111 -0.1010
 6253TIP3    H240251   5.063   3.718   4.769  0.4457  0.1091  0.0428
 6254TIP3   OH240252   1.094   4.906   0.662 -0.3458  0.3022 -0.2033
 6254TIP3    H140253   1.127   4.996   0.661 -1.1236  0.5985 -1.0130
 6254TIP3    H240254   1.065   4.893   0.753 -1.0348  1.1915 -0.2762
 6255TIP3   OH240255   1.276   0.595   4.439 -0.3563  0.2524  0.2287
 6255TIP3    H140256   1.267   0.575   4.346 -2.1468 -0.3186  0.4782
 6255TIP3    H240257   1.348   0.540   4.469 -1.2649 -1.3269 -0.3659
 6256TIP3   OH240258   3.395   6.537   3.668 -0.8706 -0.2679 -0.5334
 6256TIP3    H140259   3.489   6.554   3.659 -0.9478  0.2621 -0.3778
 6256TIP3    H240260   3.354   6.623   3.661 -1.4779 -0.6303 -2.1256
 6257TIP3   OH240261   6.100   4.607  12.646  0.1879 -0.2233  0.0653
 6257TIP3    H140262   6.142   4.565  12.721  1.7960 -1.5662 -1.5333
 6257TIP3    H240263   6.170   4.621  12.583 -0.8479  2.2180 -0.6859
 6258TIP3   OH240264   4.041   3.930   3.807 -0.0952 -0.0961 -0.0974
 6258TIP3    H140265   4.081   3.930   3.720 -0.9249 -1.6699 -0.4984
 6258TIP3    H240266   4.016   3.839   3.823 -0.6794  0.3020  1.4653
 6259TIP3   OH240267   0.404   5.977  15.243  0.2548  0.5115 -0.0519
 6259TIP3    H140268   0.351   6.056  15.238  1.4197  1.2280 -2.0592
 6259TIP3    H240269   0.493   6.007  15.260  0.6325 -0.3902 -0.3235
 6260TIP3   OH240270   6.105   6.629  11.736  0.3976 -0.1149  0.4690
 6260TIP3    H140271   6.188   6.591  11.706  0.9148  0.4481  1.1473
 6260TIP3    H240272   6.131   6.700  11.794 -0.4739 -1.9985  3.3922
 6261TIP3   OH240273   5.373   0.098  14.059 -0.2213 -0.2988 -0.2337
 6261TIP3    H140274   5.463   0.068  14.043 -0.2984 -0.0708 -1.1292
 6261TIP3    H240275   5.319   0.021  14.040 -0.2512 -0.2836 -0.2085
 6262TIP3   OH240276   0.771   4.292   2.957  0.4482  0.2626 -0.1949
 6262TIP3    H140277   0.744   4.286   2.865 -0.4594 -0.0180  0.0787
 6262TIP3    H240278   0.864   4.270   2.956  0.0328 -1.6741 -0.8101
 6263TIP3   OH240279   2.772   4.915  10.900 -0.0639  0.5463  0.0229
 6263TIP3    H140280   2.690   4.917  10.950 -0.2051 -1.0549 -0.0986
 6263TIP3    H240281   2.762   4.841  10.841  0.8465  1.3042 -1.1218
 6264TIP3   OH240282   6.730   5.558   1.446  0.2764  0.0968  0.2924
 6264TIP3    H140283   6.664   5.492   1.423  1.5052 -1.7276  1.6569
 6264TIP3    H240284   6.788   5.560   1.370  0.4654 -0.7528  0.3967
 6265TIP3   OH240285   4.089   6.483   3.592  0.1111  0.2513  0.1897
 6265TIP3    H140286   4.072   6.475   3.498  0.7198  1.6483 -0.0617
 6265TIP3    H240287   4.097   6.577   3.608 -1.0401  0.1110  1.8572
 6266TIP3   OH240288   0.504   4.683  13.000  1.0592  0.0825  0.0916
 6266TIP3    H140289   0.529   4.764  12.954  0.2903  0.6420  0.6242
 6266TIP3    H240290   0.425   4.707  13.048 -0.0735 -1.4114 -0.9351
 6267TIP3   OH240291   5.404   6.575   6.506  0.6048  0.5139 -0.1555
 6267TIP3    H140292   5.387   6.667   6.487  0.6938  0.3905 -0.8403
 6267TIP3    H240293   5.322   6.530   6.484  0.7020  0.3741 -0.2324
 6268TIP3   OH240294   1.528   5.053  12.056  0.0519  0.3824  0.1601
 6268TIP3    H140295   1.593   5.115  12.088 -0.0748  0.3338  0.5240
 6268TIP3    H240296   1.570   5.009  11.983  0.4103  0.3912  0.3572
 6269TIP3   OH240297   6.472   1.930  11.888 -0.3565  0.2610 -0.3235
 6269TIP3    H140298   6.381   1.901  11.887 -0.3752  0.3262 -0.6011
 6269TIP3    H240299   6.522   1.853  11.915 -0.7706  1.0380  3.1126
 6270TIP3   OH240300   2.824   2.984   1.668  0.6345  0.1131  0.0842
 6270TIP3    H140301   2.793   3.062   1.712  0.4419  1.1304 -1.7443
 6270TIP3    H240302   2.755   2.964   1.603  1.8470 -0.0418 -1.2023
 6271TIP3   OH240303   3.592   3.969   1.969  0.4507  0.4631  0.3353
 6271TIP3    H140304   3.584   4.063   1.953  0.8586  0.3959 -0.2806
 6271TIP3    H240305   3.527   3.951   2.037 -0.3933  0.9898 -0.3060
 6272TIP3   OH240306   4.934   2.714  14.921  0.3911 -0.7905  0.1799
 6272TIP3    H140307   5.011   2.664  14.894 -0.4996 -1.0636 -2.0790
 6272TIP3    H240308   4.862   2.676  14.872 -1.3697 -0.9492  2.7026
 6273TIP3   OH240309   0.113   4.105  11.263 -0.2187  0.1567 -0.2315
 6273TIP3    H140310   0.208   4.099  11.257 -0.2265 -1.6052  0.8375
 6273TIP3    H240311   0.081   4.033  11.208 -0.7270 -2.6634  3.3917
 6274TIP3   OH240312   3.666   6.477  14.329 -0.3534 -0.1852  0.2931
 6274TIP3    H140313   3.656   6.547  14.393  0.3707  0.0060  0.2000
 6274TIP3    H240314   3.687   6.522  14.247 -0.4626 -0.4757  0.1002
 6275TIP3   OH240315   3.924   4.074  12.893  0.3439 -0.2276  0.2097
 6275TIP3    H140316   3.895   4.165  12.895 -0.2567 -0.4189  0.5283
 6275TIP3    H240317   4.017   4.077  12.913 -0.1538  0.1181  2.8708
 6276TIP3   OH240318   4.697   0.051  13.469  0.2185  0.9717 -0.0942
 6276TIP3    H140319   4.607   0.083  13.479 -0.1585  0.2982 -1.0706
 6276TIP3    H240320   4.751   0.113  13.517 -0.7979  1.2678  0.6924
 6277TIP3   OH240321   5.918   4.309  15.267  0.4295 -0.0909 -0.4396
 6277TIP3    H140322   5.847   4.328  15.328  1.8605  1.6103  0.7922
 6277TIP3    H240323   5.964   4.235  15.305  1.5519  1.2109  0.8157
 6278TIP3   OH240324   2.018   5.891   3.555  0.3704  0.2742 -0.5056
 6278TIP3    H140325   1.946   5.897   3.491 -1.2968  0.8206  1.3330
 6278TIP3    H240326   2.040   5.982   3.574  0.3281  0.1227  0.2637
 6279TIP3   OH240327   6.792   5.119  13.177  0.1993 -0.0261 -0.8671
 6279TIP3    H140328   6.719   5.171  13.210  0.8406 -0.4669  1.4033
 6279TIP3    H240329   6.764   5.028  13.188  1.3137 -0.2222  0.7642
 6280TIP3   OH240330   1.346   6.061   4.015  0.1600  0.4514 -0.3066
 6280TIP3    H140331   1.344   6.014   3.932 -0.1235  2.0678 -1.2562
 6280TIP3    H240332   1.270   6.118   4.013  2.1583  3.3333 -0.7068
 6281TIP3   OH240333   1.688   0.814  12.190  0.1111  0.1515 -0.4576
 6281TIP3    H140334   1.674   0.723  12.163 -1.7218  0.0778  0.5897
 6281TIP3    H240335   1.617   0.862  12.147  1.3570  1.1999 -1.4072
 6282TIP3   OH240336   1.194   5.292   3.527  0.1919 -0.2112 -0.4262
 6282TIP3    H140337   1.219   5.251   3.609 -0.9024  0.9563  0.5281
 6282TIP3    H240338   1.272   5.340   3.499  0.3724 -0.1034  0.2575
 6283TIP3   OH240339   0.718   6.795   1.020  0.5127 -0.3592  0.9812
 6283TIP3    H140340   0.736   6.884   1.047 -0.0685  0.0626  0.0366
 6283TIP3    H240341   0.636   6.772   1.065  0.8105 -0.5251  1.4450
 6284TIP3   OH240342   3.478   4.298  13.499 -0.1984  0.1734  0.5692
 6284TIP3    H140343   3.477   4.309  13.594 -0.4221  0.9937  0.4827
 6284TIP3    H240344   3.407   4.355  13.468  0.0860  0.1644 -0.1120
 6285TIP3   OH240345   5.990   3.342   1.700 -0.5014  0.2740  0.0108
 6285TIP3    H140346   5.977   3.417   1.759 -1.0346  1.0268 -1.0276
 6285TIP3    H240347   6.031   3.380   1.622  1.3381 -0.9003  0.3376
 6286TIP3   OH240348   4.323   1.445   2.955 -0.2410 -0.2399  0.6208
 6286TIP3    H140349   4.263   1.377   2.987  0.4095 -1.4356 -0.5638
 6286TIP3    H240350   4.347   1.415   2.867 -1.7874  2.7312 -0.9861
 6287TIP3   OH240351   0.369   2.762  16.137 -0.0276  0.4417  0.1048
 6287TIP3    H140352   0.366   2.856  16.119 -0.4630  0.0405 -2.2445
 6287TIP3    H240353   0.458   2.737  16.114 -0.1400  0.1662 -0.0353
 6288TIP3   OH240354   3.471   3.379  13.581  0.0046 -0.1945  0.0098
 6288TIP3    H140355   3.539   3.325  13.542 -0.3048  0.2293 -1.1791
 6288TIP3    H240356   3.409   3.317  13.618 -1.1944 -0.8233 -2.7407
 6289TIP3   OH240357   4.687   0.809  17.201 -0.8097  0.0534  0.0375
 6289TIP3    H140358   4.622   0.745  17.174 -0.9889 -0.6213  1.9583
 6289TIP3    H240359   4.768   0.759  17.209 -0.6490  0.3461  0.2494
 6290TIP3   OH240360   5.085   6.090  14.507  0.0210 -0.1507  0.2423
 6290TIP3    H140361   5.088   6.128  14.596 -1.9518 -2.7884  1.5837
 6290TIP3    H240362   5.126   6.004  14.516 -0.9045 -0.7834 -1.2025
 6291TIP3   OH240363   4.307   4.591   3.286  0.1374  0.2916  0.1517
 6291TIP3    H140364   4.393   4.605   3.245 -0.7809  1.2314 -1.5636
 6291TIP3    H240365   4.324   4.598   3.380  1.6377  2.4323 -0.1959
 6292TIP3   OH240366   4.665   0.980  13.998 -0.3867  0.4323 -0.4204
 6292TIP3    H140367   4.644   1.018  13.913  0.7281 -0.1978 -1.0005
 6292TIP3    H240368   4.587   0.930  14.022 -0.9162  1.0620 -0.8133
 6293TIP3   OH240369   1.957   5.488  13.464  0.2462  0.1507  0.1890
 6293TIP3    H140370   2.026   5.422  13.469  0.6096  0.5481  0.5206
 6293TIP3    H240371   1.993   5.564  13.510 -0.2151  0.5358 -0.0747
 6294TIP3   OH240372   1.229   1.248  13.777  0.1239  0.3991 -0.3544
 6294TIP3    H140373   1.226   1.292  13.862 -0.3669 -0.4563  0.0872
 6294TIP3    H240374   1.140   1.259  13.742  0.0436 -0.0922 -0.3116
 6295TIP3   OH240375   4.024   5.951  11.340  0.4185 -0.4788  0.2516
 6295TIP3    H140376   4.090   5.910  11.396 -0.6094 -0.8240  1.2693
 6295TIP3    H240377   3.951   5.889  11.340 -0.2177  0.2522 -0.1797
 6296TIP3   OH240378   3.368   5.118  13.592  0.2752  0.1138  0.0352
 6296TIP3    H140379   3.313   5.041  13.604  3.1946 -2.0118  1.0678
 6296TIP3    H240380   3.377   5.155  13.680  1.1687 -0.0998  0.0407
 6297TIP3   OH240381   3.303   2.942  10.962 -0.4045 -0.0343  0.1067
 6297TIP3    H140382   3.332   2.973  11.048 -1.9034  1.9585 -0.0283
 6297TIP3    H240383   3.302   3.021  10.907 -1.4027 -0.8984 -1.1828
 6298TIP3   OH240384   0.728   5.337  11.262  0.0549 -0.0255  0.4050
 6298TIP3    H140385   0.703   5.259  11.212 -1.5864  1.5770 -1.4208
 6298TIP3    H240386   0.781   5.302  11.334 -1.0094 -2.8699 -0.0280
 6299TIP3   OH240387   3.824   0.053  11.401 -0.0069 -0.2620  0.4136
 6299TIP3    H140388   3.828  -0.042  11.414  0.3856 -0.3386 -0.1924
 6299TIP3    H240389   3.880   0.068  11.325 -1.5646  0.2205 -0.7019
 6300TIP3   OH240390   3.693   0.631   5.452 -0.1728 -0.0851 -0.2820
 6300TIP3    H140391   3.783   0.600   5.443 -0.9222 -2.0061 -2.2958
 6300TIP3    H240392   3.669   0.612   5.542  0.7987 -1.5281 -0.3081
 6301TIP3   OH240393   5.201   6.688  14.835 -0.2519 -0.0268 -0.4012
 6301TIP3    H140394   5.261   6.674  14.762  0.5959 -0.2407  0.3019
 6301TIP3    H240395   5.228   6.772  14.872 -0.2912 -0.1834 -0.0032
 6302TIP3   OH240396   2.640   2.437   0.531 -0.6369 -0.3655  0.4232
 6302TIP3    H140397   2.551   2.469   0.546 -0.4364 -0.7238  2.8622
 6302TIP3    H240398   2.695   2.515   0.538 -0.6717 -0.2657 -0.3119
 6303TIP3   OH240399   4.630   4.917  13.169  0.4123  0.0629 -0.1264
 6303TIP3    H140400   4.588   4.958  13.245  2.8172 -0.3686  1.5642
 6303TIP3    H240401   4.594   4.964  13.093 -0.4838  2.0073  1.4050
 6304TIP3   OH240402   2.136   3.529  13.006 -0.1336  0.6404  0.0882
 6304TIP3    H140403   2.153   3.622  13.023  1.2614  0.1168  1.8479
 6304TIP3    H240404   2.089   3.499  13.084 -1.4331  0.0323 -0.8829
 6305TIP3   OH240405   4.101   2.648   2.032  0.7371  0.3941  0.0510
 6305TIP3    H140406   4.045   2.574   2.009  2.0721 -0.2906 -1.1171
 6305TIP3    H240407   4.124   2.634   2.124 -0.4245  0.3223  0.3474
 6306TIP3   OH240408   4.875   2.917   2.952 -0.2336 -0.4100 -0.4464
 6306TIP3    H140409   4.871   2.906   2.857  0.8652  0.2098 -0.5780
 6306TIP3    H240410   4.930   2.844   2.982  0.0486 -0.1729 -0.3811
 6307TIP3   OH240411   1.367   3.083  12.132 -0.3075  0.1827 -0.2240
 6307TIP3    H140412   1.401   3.122  12.213 -0.5629  0.3171 -0.1781
 6307TIP3    H240413   1.400   2.993  12.133 -0.5055  0.1073  0.1569
 6308TIP3   OH240414   5.192   5.391  10.989  0.6757  0.0993  0.5611
 6308TIP3    H140415   5.287   5.402  10.997  0.5130  0.7637  1.7909
 6308TIP3    H240416   5.156   5.455  11.050 -0.5895  0.3799 -0.4540
 6309TIP3   OH240417   3.894   4.648   1.489  0.4003  0.2030  0.4097
 6309TIP3    H140418   3.860   4.592   1.558  1.1825  0.5146  1.0587
 6309TIP3    H240419   3.954   4.592   1.439 -0.2389 -0.0494 -0.0928
 6310TIP3   OH240420   4.676   4.750  11.718 -0.2711 -0.1645 -0.1477
 6310TIP3    H140421   4.628   4.730  11.637 -0.9007 -2.0215  0.6084
 6310TIP3    H240422   4.660   4.843  11.734  0.1295  0.3083 -2.3028
 6311TIP3   OH240423   6.418   1.167   5.803  0.2029 -0.1327 -0.3208
 6311TIP3    H140424   6.353   1.156   5.873  1.1561  0.9370  0.7835
 6311TIP3    H240425   6.376   1.228   5.742 -1.0368 -1.8329 -1.2559
 6312TIP3   OH240426   0.524   4.566   3.083  0.4715  0.0194 -0.5310
 6312TIP3    H140427   0.606   4.559   3.132 -0.7328  0.2763  1.6850
 6312TIP3    H240428   0.492   4.476   3.076 -0.4203  0.1389  1.2468
 6313TIP3   OH240429   2.937   6.026   3.420  0.5851 -0.3213 -0.2717
 6313TIP3    H140430   2.946   6.052   3.512 -1.7181 -0.6442  0.1068
 6313TIP3    H240431   3.027   6.025   3.386  1.4648  0.0360  1.8955
 6314TIP3   OH240432   3.268   3.861  16.119 -0.4266 -0.0117 -0.0251
 6314TIP3    H140433   3.217   3.929  16.075 -0.2598 -0.3765 -0.7909
 6314TIP3    H240434   3.202   3.805  16.161 -0.6546 -0.3762 -0.8589
 6315TIP3   OH240435   3.059   4.713   4.782 -0.4076 -0.1113  0.5560
 6315TIP3    H140436   3.096   4.715   4.871 -0.7140 -2.6163  0.8239
 6315TIP3    H240437   3.102   4.785   4.737 -0.5197  1.4825  2.8146
 6316TIP3   OH240438   0.662   2.816   2.607  0.1850  0.0161  0.0874
 6316TIP3    H140439   0.652   2.723   2.628 -0.7711  0.0440 -0.1998
 6316TIP3    H240440   0.650   2.820   2.512 -1.7200  0.6553  0.3160
 6317TIP3   OH240441   1.287   1.757   0.036  0.0540  0.5699 -0.1609
 6317TIP3    H140442   1.292   1.716   0.122  1.9329  2.4821  0.7461
 6317TIP3    H240443   1.203   1.802   0.036 -0.4603 -0.3677  0.2083
 6318TIP3   OH240444   1.621   6.331   3.548 -0.3108  0.4419  0.0731
 6318TIP3    H140445   1.619   6.296   3.637  0.7035  1.6100  0.5939
 6318TIP3    H240446   1.569   6.411   3.552  0.3540  0.9056 -0.1679
 6319TIP3   OH240447   4.452   6.396   4.609  0.3815  0.0159  0.4918
 6319TIP3    H140448   4.515   6.332   4.641  1.4379  1.4962  1.5169
 6319TIP3    H240449   4.433   6.451   4.685  0.1069  1.3914 -0.5277
 6320TIP3   OH240450   6.338   4.789   6.702  0.1885  0.2739 -0.5332
 6320TIP3    H140451   6.335   4.734   6.623 -0.3287  0.5616 -0.7228
 6320TIP3    H240452   6.430   4.813   6.711  0.1630  0.7544 -1.4141
 6321TIP3   OH240453   0.989   3.859  14.689 -0.6060 -0.2857  0.5067
 6321TIP3    H140454   1.044   3.840  14.613 -0.1420  1.0472  0.4722
 6321TIP3    H240455   0.900   3.861  14.655 -0.6589 -1.9950  0.4701
 6322TIP3   OH240456   6.783   0.082  14.642 -0.3541 -0.1670  0.0684
 6322TIP3    H140457   6.743   0.166  14.621 -0.8046 -0.3717  0.1135
 6322TIP3    H240458   6.867   0.105  14.682 -0.3685  0.2561 -0.1392
 6323TIP3   OH240459   6.527   3.293  17.041 -0.1271  0.0444  0.6480
 6323TIP3    H140460   6.623   3.297  17.042 -0.1519  0.9362  1.9024
 6323TIP3    H240461   6.506   3.212  17.089 -0.0118 -0.4917 -0.1819
 6324TIP3   OH240462   4.182   3.499  16.746 -0.1316  1.1054  0.4942
 6324TIP3    H140463   4.090   3.494  16.774 -1.2009 -2.8429 -2.7153
 6324TIP3    H240464   4.181   3.560  16.672 -0.0737  1.3098  0.6606
 6325TIP3   OH240465   1.148   4.139   3.622  0.1007 -0.3168  0.3363
 6325TIP3    H140466   1.152   4.098   3.535  1.1267 -0.1731  0.3036
 6325TIP3    H240467   1.161   4.233   3.604  2.2712 -0.4787  0.7820
 6326TIP3   OH240468   4.398   2.256  13.665  0.1325  0.1182 -0.7356
 6326TIP3    H140469   4.417   2.204  13.587 -0.7853 -0.0684 -0.8537
 6326TIP3    H240470   4.447   2.337  13.653  0.6509 -0.2506 -1.1099
 6327TIP3   OH240471   0.152   5.171   5.834 -0.6808  0.1164  0.0744
 6327TIP3    H140472   0.148   5.220   5.752 -0.6412  2.2639  1.3026
 6327TIP3    H240473   0.235   5.124   5.830 -0.7608  0.0521 -1.1714
 6328TIP3   OH240474   4.726   6.385   4.458  0.3922 -0.9465 -0.2672
 6328TIP3    H140475   4.641   6.393   4.500 -0.5940 -2.0982 -1.9141
 6328TIP3    H240476   4.749   6.475   4.434 -0.1396 -0.5727  0.5669
 6329TIP3   OH240477   1.491   1.605   4.169  0.8789 -0.1189 -0.1764
 6329TIP3    H140478   1.410   1.606   4.118  0.3101 -0.5827  0.7000
 6329TIP3    H240479   1.479   1.535   4.233  2.1609 -0.4942 -0.3160
 6330TIP3   OH240480   0.934   5.954   5.731 -1.0598  0.8683 -0.0118
 6330TIP3    H140481   0.918   5.983   5.821  1.5714  3.4837 -0.2153
 6330TIP3    H240482   0.912   6.030   5.677  2.4237  1.3396 -1.0006
 6331TIP3   OH240483   4.859   1.562   4.719  0.1659 -0.5170 -0.0711
 6331TIP3    H140484   4.834   1.620   4.646  1.5334  0.2751  0.0485
 6331TIP3    H240485   4.897   1.621   4.784  1.5183 -1.5250  0.0961
 6332TIP3   OH240486   3.659   5.914   5.234  0.1151  0.2108  0.0621
 6332TIP3    H140487   3.710   5.993   5.251  0.6527 -0.6052  2.7147
 6332TIP3    H240488   3.723   5.844   5.229 -0.5257 -0.4268  0.5066
 6333TIP3   OH240489   2.869   0.270  16.741 -0.8023 -0.2232  0.4037
 6333TIP3    H140490   2.901   0.329  16.809 -1.9876 -0.2759  1.0314
 6333TIP3    H240491   2.887   0.182  16.775 -1.0030 -0.2435  0.4607
 6334TIP3   OH240492   3.413   6.717  15.624  0.4423  0.5013  0.2255
 6334TIP3    H140493   3.450   6.712  15.712  3.4533 -1.5586 -1.0260
 6334TIP3    H240494   3.322   6.745  15.638  0.6823 -0.1372  3.9881
 6335TIP3   OH240495   0.263   2.275   1.274  0.2218 -0.2712 -0.1171
 6335TIP3    H140496   0.203   2.238   1.339  0.2039  0.4777  0.3095
 6335TIP3    H240497   0.212   2.346   1.234  0.4868 -0.2648 -0.4428
 6336TIP3   OH240498   3.537   1.067   3.192 -0.5365 -0.2323 -0.6121
 6336TIP3    H140499   3.622   1.072   3.149 -0.5711  1.0695 -0.5816
 6336TIP3    H240500   3.524   0.974   3.210 -0.4494 -0.8270 -3.2473
 6337TIP3   OH240501   2.955   5.552  14.942  0.4109  0.1803  0.1977
 6337TIP3    H140502   3.009   5.586  15.013 -1.2457  2.0013  0.6882
 6337TIP3    H240503   2.866   5.577  14.967 -0.7273 -2.8481 -0.4710
 6338TIP3   OH240504   5.434   2.057   3.329 -0.2969 -0.0793 -0.4193
 6338TIP3    H140505   5.440   1.969   3.367 -1.1240 -1.0278 -2.3562
 6338TIP3    H240506   5.452   2.044   3.236  1.8393  2.1680 -0.4313
 6339TIP3   OH240507   3.079   5.755  16.016  0.0814  0.2524 -0.2815
 6339TIP3    H140508   3.041   5.682  16.065  0.5857 -0.3514 -0.7793
 6339TIP3    H240509   3.154   5.782  16.069  1.9787 -1.8273 -1.7063
 6340TIP3   OH240510   1.744   0.757   4.870 -0.0715  0.3786 -0.2073
 6340TIP3    H140511   1.803   0.832   4.882  0.2733 -0.0680  1.0200
 6340TIP3    H240512   1.791   0.684   4.909 -0.8534 -0.2768 -0.4764
 6341TIP3   OH240513   1.855   1.653   1.265  0.1914 -0.1581 -0.0251
 6341TIP3    H140514   1.931   1.689   1.219  1.2278 -1.3099  0.7209
 6341TIP3    H240515   1.860   1.691   1.353  1.7381 -2.5433  1.0259
 6342TIP3   OH240516   4.406   0.066  14.584  0.0285  0.1046  0.0172
 6342TIP3    H140517   4.488   0.113  14.566  0.1831 -0.1259  0.1089
 6342TIP3    H240518   4.411  -0.011  14.527 -1.1844  1.2497 -1.7369
 6343TIP3   OH240519   1.409   1.301   0.334 -0.1029 -0.4784 -0.1347
 6343TIP3    H140520   1.351   1.316   0.259 -0.8784 -3.8156 -0.3767
 6343TIP3    H240521   1.491   1.273   0.295  0.9073  1.6971  0.2803
 6344TIP3   OH240522   2.415   6.348  14.048  0.0019 -0.5933  0.5739
 6344TIP3    H140523   2.330   6.384  14.023 -0.0725 -0.4400  1.0409
 6344TIP3    H240524   2.402   6.312  14.136  0.5412 -0.1340  0.8482
 6345TIP3   OH240525   3.133   5.087  16.007  0.4991  0.4871  0.0024
 6345TIP3    H140526   3.072   5.072  15.934 -1.8173 -0.5887  1.9988
 6345TIP3    H240527   3.113   5.176  16.036 -0.8497 -0.1546  1.1849
 6346TIP3   OH240528   6.328   1.447   2.419  0.4005 -0.2041 -0.3138
 6346TIP3    H140529   6.258   1.510   2.440 -1.0634 -1.5734 -0.9118
 6346TIP3    H240530   6.341   1.398   2.500  2.4506  1.6001  0.5623
 6347TIP3   OH240531   6.803   6.352   2.060 -0.5252 -0.0282  0.5561
 6347TIP3    H140532   6.708   6.343   2.067 -0.5979 -2.3139 -1.8428
 6347TIP3    H240533   6.838   6.291   2.125 -0.7282 -0.2184  0.4887
 6348TIP3   OH240534   2.361   2.510  10.763 -0.4892  0.1287  0.4233
 6348TIP3    H140535   2.411   2.453  10.705 -0.9794 -0.7749  0.8696
 6348TIP3    H240536   2.351   2.460  10.844 -3.6534 -0.4959 -0.2487
 6349TIP3   OH240537   5.902   0.005   1.131  0.0469 -0.2591 -0.0020
 6349TIP3    H140538   5.890  -0.064   1.197 -0.3003 -0.5178 -0.3308
 6349TIP3    H240539   5.927   0.082   1.182 -0.0457 -0.5013  0.4172
 6350TIP3   OH240540   2.275   0.319  16.778  0.4585 -0.1655  0.2620
 6350TIP3    H140541   2.196   0.297  16.828 -0.2242 -0.6908 -0.9931
 6350TIP3    H240542   2.243   0.344  16.691  1.5061  2.2032  0.4791
 6351TIP3   OH240543   0.421   3.789  12.424 -0.8601 -0.0432  0.3536
 6351TIP3    H140544   0.335   3.816  12.456 -1.3541 -0.7825 -0.3142
 6351TIP3    H240545   0.423   3.694  12.437 -0.7970 -0.2618 -1.1106
 6352TIP3   OH240546   1.982   2.920   4.290 -0.1727  0.1370  0.2306
 6352TIP3    H140547   2.031   2.889   4.215 -2.1180 -2.0419 -0.2841
 6352TIP3    H240548   2.014   2.867   4.363 -0.4956 -0.0639  0.2342
 6353TIP3   OH240549   1.085   0.573  14.663  0.3461 -0.0482  0.1632
 6353TIP3    H140550   1.143   0.604  14.732 -0.0154 -1.7114  1.2565
 6353TIP3    H240551   1.004   0.549  14.708 -0.6122  0.6492 -1.1105
 6354TIP3   OH240552   2.693   5.057  11.641 -0.6738 -0.3055  0.9187
 6354TIP3    H140553   2.630   4.985  11.644 -0.6627 -0.5464 -1.8176
 6354TIP3    H240554   2.664   5.118  11.709 -0.4210 -3.0040  3.6665
 6355TIP3   OH240555   6.635   3.409  16.633 -0.0344 -0.1674  0.2918
 6355TIP3    H140556   6.623   3.406  16.727 -0.2319 -0.5162  0.2570
 6355TIP3    H240557   6.547   3.402  16.596 -0.0459  0.9031  0.0913
 6356TIP3   OH240558   0.459   6.471  15.246 -0.8970 -0.6104  0.1255
 6356TIP3    H140559   0.423   6.468  15.335  0.7776  0.6319  0.9220
 6356TIP3    H240560   0.554   6.469  15.259 -0.5948  0.2941 -1.5974
 6357TIP3   OH240561   0.464   5.691  16.149  0.4540  0.4151  0.1655
 6357TIP3    H140562   0.532   5.713  16.085  1.1749 -0.8422  0.4643
 6357TIP3    H240563   0.427   5.776  16.174  0.0793  0.9355 -1.9656
 6358TIP3   OH240564   6.205   3.965  15.164  0.1166  0.3892  0.5960
 6358TIP3    H140565   6.218   3.928  15.251  2.3591  1.8498  0.9489
 6358TIP3    H240566   6.246   3.901  15.105  0.5327  0.4493  0.8193
 6359TIP3   OH240567   2.015   3.086  14.852  0.0996 -0.1204  0.3450
 6359TIP3    H140568   2.041   3.038  14.930  0.5113 -0.7325 -0.1551
 6359TIP3    H240569   2.085   3.069  14.789 -0.2289  0.3549 -0.1555
 6360TIP3   OH240570   6.262   2.306  16.950  0.4570 -0.0600 -0.1739
 6360TIP3    H140571   6.297   2.329  17.037  0.4653  0.2860 -0.2676
 6360TIP3    H240572   6.240   2.213  16.957  0.1337  0.0467  0.3097
 6361TIP3   OH240573   1.028   3.909   0.705  0.1556 -0.0348  0.2600
 6361TIP3    H140574   1.100   3.898   0.643  0.2597  0.6937  0.2453
 6361TIP3    H240575   1.055   3.981   0.761  0.1287 -0.7847  1.2618
 6362TIP3   OH240576   4.863   5.754  14.299  0.4805  0.6362  0.1256
 6362TIP3    H140577   4.810   5.830  14.321  0.6219  0.8053 -0.1172
 6362TIP3    H240578   4.939   5.759  14.359  0.3032  0.4782  0.3662
 6363TIP3   OH240579   2.101   0.715   1.629  0.2047  0.4288  0.3422
 6363TIP3    H140580   2.148   0.634   1.611  2.0925  1.5663 -0.1556
 6363TIP3    H240581   2.061   0.702   1.715  0.6239 -0.9454  0.3406
 6364TIP3   OH240582   5.916   2.208   1.846  0.2344  0.2563  0.2573
 6364TIP3    H140583   5.823   2.229   1.834  0.7098  1.8023 -0.9417
 6364TIP3    H240584   5.943   2.171   1.762  0.2204 -2.2963  1.2910
 6365TIP3   OH240585   3.121   3.044  13.512 -0.3635 -0.3498  0.0113
 6365TIP3    H140586   3.091   3.113  13.453  0.0003  0.3400  0.6217
 6365TIP3    H240587   3.211   3.068  13.532  0.5301 -2.1910 -1.5128
 6366TIP3   OH240588   2.953   5.507  11.250  0.0488  0.7804 -0.4266
 6366TIP3    H140589   2.938   5.480  11.340  1.9309  0.8972 -0.0415
 6366TIP3    H240590   2.885   5.461  11.199 -1.4409  1.2056  1.0856
 6367TIP3   OH240591   5.424   3.018   0.210 -0.6790 -0.0834  0.0111
 6367TIP3    H140592   5.466   3.064   0.138  0.6905 -1.7292 -0.3064
 6367TIP3    H240593   5.331   3.025   0.193 -0.5426  2.5792  0.0322
 6368TIP3   OH240594   1.201   4.044  16.147 -0.5329 -0.5518  0.5404
 6368TIP3    H140595   1.209   3.987  16.223 -2.3554 -0.8158  0.5771
 6368TIP3    H240596   1.279   4.024  16.094  1.0976  0.0854  2.5596
 6369TIP3   OH240597   3.850   5.798  14.560 -0.5638 -0.2672 -0.2927
 6369TIP3    H140598   3.943   5.780  14.547 -0.3058  1.0259 -0.3729
 6369TIP3    H240599   3.812   5.712  14.581  0.5047 -0.9373 -0.9757
 6370TIP3   OH240600   4.500   5.491   5.336 -0.1592  0.2508 -0.1747
 6370TIP3    H140601   4.566   5.561   5.332 -0.4098  0.4263 -2.0724
 6370TIP3    H240602   4.545   5.415   5.298  0.0232 -0.5924  1.6311
 6371TIP3   OH240603   3.080   5.076   4.218 -0.3685  0.0251 -0.3695
 6371TIP3    H140604   3.052   4.993   4.178  0.1363 -0.2460 -0.1800
 6371TIP3    H240605   2.999   5.121   4.239 -0.6902 -0.9782  0.6571
 6372TIP3   OH240606   5.726   4.700   2.248  0.3263 -0.2162 -0.3469
 6372TIP3    H140607   5.751   4.789   2.224  0.5592  0.2916  1.5485
 6372TIP3    H240608   5.804   4.647   2.230 -0.2896 -0.3602 -2.8566
 6373TIP3   OH240609   3.515   1.071  14.119 -0.7157 -0.1699  0.2674
 6373TIP3    H140610   3.574   1.116  14.059  0.2285 -1.8566 -0.1325
 6373TIP3    H240611   3.474   1.004  14.065 -0.8336 -0.8610  1.2079
 6374TIP3   OH240612   6.768   1.208   6.541  0.3555 -0.1388  0.4478
 6374TIP3    H140613   6.810   1.156   6.610  1.5468  0.5191  0.2490
 6374TIP3    H240614   6.819   1.289   6.538  2.7620 -1.5329 -3.6270
 6375TIP3   OH240615   0.471   0.327  13.533  0.2043  0.0134 -0.5787
 6375TIP3    H140616   0.509   0.400  13.484 -3.3710  1.5859 -1.3188
 6375TIP3    H240617   0.453   0.261  13.466  2.9422 -1.4995  0.0176
 6376TIP3   OH240618   5.338   1.981   2.760  0.0259 -0.2175 -0.0710
 6376TIP3    H140619   5.276   1.930   2.812  1.7480  0.2476  2.6312
 6376TIP3    H240620   5.424   1.947   2.785  0.9915  0.6606 -2.0094
 6377TIP3   OH240621   5.327   6.484   0.068 -0.1156  0.6986 -0.4388
 6377TIP3    H140622   5.377   6.500  -0.012  0.8011  0.4188  0.0611
 6377TIP3    H240623   5.321   6.389   0.074 -1.0512  0.7318 -0.6892
 6378TIP3   OH240624   1.883   2.990   2.617 -0.0870 -0.3365  0.2861
 6378TIP3    H140625   1.866   2.946   2.700 -1.9754 -0.4337 -0.1049
 6378TIP3    H240626   1.967   3.033   2.629 -0.8213  0.5917  2.6837
 6379TIP3   OH240627   3.706   2.510   1.616  0.2284 -0.4275 -0.0782
 6379TIP3    H140628   3.632   2.452   1.596 -1.1649  1.4890 -0.7638
 6379TIP3    H240629   3.776   2.450   1.643 -1.0578 -2.4286 -0.9060
 6380TIP3   OH240630   3.316   3.265   0.576 -0.2593 -0.6593 -0.3827
 6380TIP3    H140631   3.314   3.331   0.646  4.2125 -0.9510  0.3248
 6380TIP3    H240632   3.373   3.303   0.509 -0.9397 -2.2009 -1.9116
 6381TIP3   OH240633   3.315   6.558  12.402 -0.2673  0.7513  0.2186
 6381TIP3    H140634   3.371   6.588  12.331 -0.9354 -0.1506 -0.7160
 6381TIP3    H240635   3.371   6.561  12.480  1.8818 -2.3442 -1.0190
 6382TIP3   OH240636   4.738   3.919   1.099 -0.3776 -0.1540 -0.2547
 6382TIP3    H140637   4.701   3.968   1.026  2.0832 -0.8789 -2.1114
 6382TIP3    H240638   4.761   3.985   1.164  0.0643  0.8378 -1.3937
 6383TIP3   OH240639   4.857   5.054  13.333  0.3009  0.4585 -0.0970
 6383TIP3    H140640   4.904   5.135  13.353  1.9135 -0.4847  0.1193
 6383TIP3    H240641   4.865   5.045  13.238  0.6304  0.2695 -0.0535
 6384TIP3   OH240642   3.645   6.292  11.802 -0.0031  1.0165  0.5395
 6384TIP3    H140643   3.658   6.315  11.710  1.0248  2.6069  1.0525
 6384TIP3    H240644   3.581   6.221  11.800 -0.6026  1.5595 -1.3535
 6385TIP3   OH240645   2.272   3.273   0.028 -0.5190 -0.3674 -0.4773
 6385TIP3    H140646   2.284   3.367   0.015 -1.1280  0.1479  2.0099
 6385TIP3    H240647   2.354   3.234  -0.001  2.0559  1.5806  3.2841
 6386TIP3   OH240648   3.612   3.947   4.548  0.6185  0.0452 -0.0983
 6386TIP3    H140649   3.607   3.890   4.471  0.3195  0.1419 -0.1530
 6386TIP3    H240650   3.541   4.011   4.534  1.7682  1.2397 -0.6832
 6387TIP3   OH240651   2.949   1.924   4.992  0.0585 -0.0051  0.1578
 6387TIP3    H140652   2.861   1.932   4.956 -0.1397 -0.6625  0.4765
 6387TIP3    H240653   2.984   1.844   4.952  0.6908  0.5019 -0.3295
 6388TIP3   OH240654   4.447   0.076   5.577 -0.3440 -0.1142  0.5459
 6388TIP3    H140655   4.441   0.165   5.612 -0.6463 -0.5370  1.6187
 6388TIP3    H240656   4.524   0.039   5.621 -0.0413 -0.2885 -0.1255
 6389TIP3   OH240657   2.417   6.684  11.418  0.0232 -0.4439 -0.0374
 6389TIP3    H140658   2.406   6.680  11.513 -1.5289  0.1766 -0.1640
 6389TIP3    H240659   2.328   6.691  11.384  0.5222 -1.1551 -1.5767
 6390TIP3   OH240660   2.964   5.450   3.539  0.0941  0.6475  0.5016
 6390TIP3    H140661   2.950   5.369   3.491 -0.2126  1.2913 -0.5459
 6390TIP3    H240662   3.014   5.505   3.478 -0.0927  1.4059  1.0148
 6391TIP3   OH240663   1.443   6.305  12.694  0.1198 -0.4636  0.2838
 6391TIP3    H140664   1.397   6.361  12.757  1.0838 -0.6596  1.2084
 6391TIP3    H240665   1.377   6.280  12.630 -1.0042 -0.5870  1.4596
 6392TIP3   OH240666   0.378   0.354  12.175 -0.5874 -0.3199 -0.3784
 6392TIP3    H140667   0.306   0.291  12.166 -0.4126 -0.4548 -0.8456
 6392TIP3    H240668   0.443   0.309  12.229 -0.3368 -0.6565 -0.9509
 6393TIP3   OH240669   3.139   0.022  13.957  0.1220 -0.0456  0.1724
 6393TIP3    H140670   3.052  -0.002  13.925  0.0333 -2.1789  1.7996
 6393TIP3    H240671   3.197  -0.047  13.925  1.2090  1.1408 -0.5628
 6394TIP3   OH240672   1.316   6.629   0.582  0.3184 -0.1634 -0.0282
 6394TIP3    H140673   1.290   6.720   0.590  1.5025  0.1387  0.5895
 6394TIP3    H240674   1.342   6.603   0.671 -0.1870 -1.1635 -0.1526
 6395TIP3   OH240675   0.825   6.170   1.140  0.1202  0.4032  0.0542
 6395TIP3    H140676   0.748   6.224   1.153  0.4818  0.7561  0.7258
 6395TIP3    H240677   0.869   6.169   1.224  1.1999  0.7387 -0.4893
 6396TIP3   OH240678   3.669   3.164  14.703  0.4590  0.1595  0.2151
 6396TIP3    H140679   3.747   3.180  14.651  0.8725 -3.9960 -0.8186
 6396TIP3    H240680   3.598   3.205  14.654  1.4500  0.2007 -1.2237
 6397TIP3   OH240681   0.949   4.745  16.619  0.2734  0.1125 -0.3145
 6397TIP3    H140682   0.969   4.659  16.656  0.9757  0.0510 -0.8154
 6397TIP3    H240683   0.917   4.726  16.530 -0.5876  0.3082 -0.0576
 6398TIP3   OH240684   0.605   2.445  14.887 -0.2038  0.0993  0.1313
 6398TIP3    H140685   0.693   2.473  14.911 -0.5885  1.4370  0.0582
 6398TIP3    H240686   0.547   2.507  14.932 -1.0700 -0.0356 -0.7686
 6399TIP3   OH240687   1.404   3.925   4.546  0.6013  0.0425 -0.9371
 6399TIP3    H140688   1.375   3.895   4.460 -1.1037 -0.8222 -0.1030
 6399TIP3    H240689   1.340   3.990   4.573 -0.7415 -1.8821  0.9310
 6400TIP3   OH240690   0.628   3.511   4.153 -0.4740  0.5356 -0.1677
 6400TIP3    H140691   0.715   3.552   4.158 -0.5529  0.8262 -1.0076
 6400TIP3    H240692   0.579   3.552   4.224  0.0585  0.4000  0.2911
 6401TIP3   OH240693   1.597   2.935   2.524 -0.0712 -0.1407 -0.4933
 6401TIP3    H140694   1.672   2.985   2.490 -1.3867  1.0330 -1.7948
 6401TIP3    H240695   1.598   2.853   2.474  1.7186 -1.2654  1.2088
 6402TIP3   OH240696   5.550   5.174  11.044  0.0871  0.4982 -0.4224
 6402TIP3    H140697   5.502   5.186  11.126 -1.7725 -1.5875 -1.0871
 6402TIP3    H240698   5.511   5.237  10.984  1.5467  2.1265  0.2570
 6403TIP3   OH240699   5.719   3.883  14.139 -0.5037  0.7983  0.0963
 6403TIP3    H140700   5.637   3.867  14.186  0.5733 -1.5677  1.3276
 6403TIP3    H240701   5.711   3.832  14.059 -0.5756  1.3055 -0.2241
 6404TIP3   OH240702   2.643   0.934   4.125  0.0681  0.3547 -0.1121
 6404TIP3    H140703   2.551   0.955   4.116  0.1457  1.4640  1.2874
 6404TIP3    H240704   2.648   0.883   4.206  0.5335 -0.8737 -0.8778
 6405TIP3   OH240705   0.088   2.682  12.782 -0.0222  0.3263  0.3188
 6405TIP3    H140706   0.012   2.631  12.755 -0.3142  1.0903 -0.3198
 6405TIP3    H240707   0.116   2.727  12.703  0.3016  1.0712  0.8526
 6406TIP3   OH240708   0.763   4.866   2.925  0.0290  1.0224 -0.4169
 6406TIP3    H140709   0.683   4.907   2.891  0.0054  1.3950  0.0875
 6406TIP3    H240710   0.831   4.933   2.915 -0.0239  1.2085  0.4673
 6407TIP3   OH240711   0.353   4.651  16.902  0.6647  0.3258  0.3944
 6407TIP3    H140712   0.387   4.562  16.904  0.7113  0.3213 -0.5498
 6407TIP3    H240713   0.430   4.706  16.913  0.7178  0.2655  0.3246
 6408TIP3   OH240714   2.677   1.116  17.096 -0.1141  0.5125 -0.9992
 6408TIP3    H140715   2.738   1.056  17.052  1.2256  0.6974  0.5056
 6408TIP3    H240716   2.718   1.202  17.086  0.2699  0.5423  0.6442
 6409TIP3   OH240717   3.064   6.584  16.183 -0.4726  0.0417  0.2985
 6409TIP3    H140718   2.982   6.544  16.211 -1.6219  1.0861 -1.3828
 6409TIP3    H240719   3.067   6.668  16.229  0.2220 -0.4428  1.1749
 6410TIP3   OH240720   3.675   0.353  11.789  0.6392 -0.0983 -0.1314
 6410TIP3    H140721   3.628   0.340  11.706  1.7021 -0.4483 -0.7027
 6410TIP3    H240722   3.614   0.402  11.844 -1.0794 -2.0745 -0.1800
 6411TIP3   OH240723   3.032   1.468  10.950 -0.2727 -0.5673  0.0716
 6411TIP3    H140724   3.070   1.389  10.913 -0.2056 -1.0066  1.0445
 6411TIP3    H240725   2.938   1.456  10.941 -0.2410  0.2693 -1.8273
 6412TIP3   OH240726   4.396   6.796  12.777  0.3900 -0.1113  0.5183
 6412TIP3    H140727   4.447   6.754  12.846 -1.7367 -1.6537  1.2639
 6412TIP3    H240728   4.403   6.889  12.795  0.1874 -0.4648  2.6208
 6413TIP3   OH240729   3.402   3.659   6.372  0.3789 -0.3033  0.3234
 6413TIP3    H140730   3.425   3.727   6.308  0.5285 -0.5996  0.0602
 6413TIP3    H240731   3.453   3.681   6.450 -0.6371  0.6964  0.7335
 6414TIP3   OH240732   6.731   4.391  15.968 -0.1345  0.2590  0.1809
 6414TIP3    H140733   6.675   4.328  16.012  1.9781 -2.4048 -0.6576
 6414TIP3    H240734   6.688   4.406  15.884 -0.6193 -0.1520  0.3511
 6415TIP3   OH240735   5.744   0.126  12.666  0.4876 -0.0945  0.5044
 6415TIP3    H140736   5.717   0.152  12.754 -0.8469  0.4324 -0.0373
 6415TIP3    H240737   5.698   0.043  12.651  0.0342  0.2358  0.0058
 6416TIP3   OH240738   4.631   6.187   2.461  0.5926 -0.1569  0.2197
 6416TIP3    H140739   4.701   6.129   2.431  1.8595  1.5628 -0.2921
 6416TIP3    H240740   4.561   6.175   2.397  1.0641 -0.6979 -0.2040
 6417TIP3   OH240741   5.605   6.459   2.726 -0.4015  0.3253  0.2027
 6417TIP3    H140742   5.645   6.449   2.640 -0.2887  0.9338  0.1835
 6417TIP3    H240743   5.512   6.476   2.707 -0.4253  0.2061  0.2106
 6418TIP3   OH240744   2.291   4.822   5.185 -0.4358 -0.6003  0.6581
 6418TIP3    H140745   2.366   4.869   5.148 -1.3922  0.5575  0.1153
 6418TIP3    H240746   2.330   4.755   5.241  1.0156 -0.6743 -0.3827
 6419TIP3   OH240747   3.051   3.735   0.280 -0.2072  0.3671 -0.2149
 6419TIP3    H140748   2.966   3.773   0.258 -1.0432  0.6586  2.9870
 6419TIP3    H240749   3.033   3.642   0.294 -0.3786  0.6318  1.6933
 6420TIP3   OH240750   0.031   6.241   0.096  0.1260  0.4645  0.2469
 6420TIP3    H140751   0.109   6.230   0.152 -0.5521 -0.3781  1.0559
 6420TIP3    H240752   0.056   6.204   0.012  0.5110 -0.0592  0.5859
 6421TIP3   OH240753   2.482   2.341   4.233 -0.1611  0.4253 -0.2400
 6421TIP3    H140754   2.445   2.278   4.172  0.3753 -1.3133  1.1281
 6421TIP3    H240755   2.494   2.292   4.315 -1.3024  2.7435  1.4536
 6422TIP3   OH240756   1.070   2.593  12.488  0.1703 -0.0165  0.1845
 6422TIP3    H140757   1.153   2.606  12.442 -0.7626  0.0527 -1.5624
 6422TIP3    H240758   1.072   2.655  12.560  1.2275  0.6687 -0.4081
 6423TIP3   OH240759   0.924   5.791   4.519  0.0913 -0.1464 -0.0267
 6423TIP3    H140760   0.881   5.708   4.498 -0.0433  0.0189 -0.4146
 6423TIP3    H240761   0.982   5.808   4.445 -0.4325  0.4704 -0.3055
 6424TIP3   OH240762   2.514   1.546   4.334 -0.8041  0.1289 -0.2414
 6424TIP3    H140763   2.418   1.542   4.338 -0.7727  0.4366  1.5772
 6424TIP3    H240764   2.544   1.487   4.403  0.2992  0.9353  0.0011
 6425TIP3   OH240765   2.015   4.485  15.377  0.2816  0.2312 -0.0021
 6425TIP3    H140766   2.037   4.548  15.446  0.1506  1.3154 -0.9251
 6425TIP3    H240767   2.100   4.452  15.346  0.3494 -2.4475  2.5359
 6426TIP3   OH240768   6.050   4.956   3.954 -0.5127 -0.5143  0.0883
 6426TIP3    H140769   6.021   4.876   3.997 -0.7680 -1.6411 -2.0523
 6426TIP3    H240770   5.995   4.963   3.875 -0.5076  1.7861  0.1987
 6427TIP3   OH240771   5.123   3.785   2.690  0.0854  0.2169  0.6825
 6427TIP3    H140772   5.040   3.748   2.720  0.4602  0.3553  1.9305
 6427TIP3    H240773   5.178   3.708   2.671 -0.3754  0.1210 -0.3697
 6428TIP3   OH240774   0.227   0.231   4.745  0.3804  0.2332 -0.6450
 6428TIP3    H140775   0.219   0.137   4.761 -1.6507 -0.0350 -2.7262
 6428TIP3    H240776   0.154   0.270   4.792  0.5998  0.6524 -0.6483
 6429TIP3   OH240777   0.055   2.245   5.763 -0.7396 -0.5134 -0.2587
 6429TIP3    H140778   0.017   2.328   5.736  0.1332  0.1395  0.4370
 6429TIP3    H240779   0.149   2.260   5.763 -0.6256 -0.7828  1.9746
 6430TIP3   OH240780   1.749   4.931   5.588  0.1115  0.0911 -0.0433
 6430TIP3    H140781   1.843   4.931   5.607  0.0483 -0.1310  0.2598
 6430TIP3    H240782   1.707   4.907   5.670 -0.2225  0.3628 -0.1328
 6431TIP3   OH240783   1.769   5.434  12.635  0.4534  0.0936 -0.3777
 6431TIP3    H140784   1.800   5.371  12.570  0.2647  0.1835 -0.5546
 6431TIP3    H240785   1.709   5.384  12.690  0.5968  0.0228 -0.2858
 6432TIP3   OH240786   4.079   2.197   4.181 -0.0256 -0.2515 -0.8903
 6432TIP3    H140787   4.033   2.241   4.110  0.6894  3.7619  0.8362
 6432TIP3    H240788   4.009   2.175   4.244 -0.3739 -1.5465 -1.6970
 6433TIP3   OH240789   0.349   4.107  10.454  0.1873  0.5179  0.0913
 6433TIP3    H140790   0.405   4.030  10.441 -2.7657 -1.6450 -1.1101
 6433TIP3    H240791   0.410   4.179  10.467  3.1626 -1.9798  1.2909
 6434TIP3   OH240792   5.339   4.065   4.367 -0.8364  0.0792 -0.2614
 6434TIP3    H140793   5.420   4.107   4.396 -0.5797  0.5450 -1.5837
 6434TIP3    H240794   5.290   4.050   4.447 -0.6475  2.3396  0.3435
 6435TIP3   OH240795   1.905   0.630  15.958 -0.1315 -0.1123 -0.5028
 6435TIP3    H140796   1.912   0.712  16.007 -1.1920 -0.5576  0.4271
 6435TIP3    H240797   1.923   0.655  15.868 -2.0361  1.4857 -0.5136
 6436TIP3   OH240798   3.722   0.504  12.803 -0.1230 -0.0311  0.5728
 6436TIP3    H140799   3.744   0.575  12.742 -0.6274  1.3407  1.9332
 6436TIP3    H240800   3.627   0.510  12.814 -0.0003  0.0258  1.7792
 6437TIP3   OH240801   3.479   6.449   4.247 -0.3521 -1.1789 -0.3563
 6437TIP3    H140802   3.555   6.503   4.227 -0.7919 -0.4723 -0.1876
 6437TIP3    H240803   3.514   6.370   4.286  0.3063 -0.9492 -0.4813
 6438TIP3   OH240804   0.489   5.095   1.298  0.3269  0.4179  0.0679
 6438TIP3    H140805   0.533   5.179   1.311 -0.2091  0.7308 -0.0999
 6438TIP3    H240806   0.403   5.106   1.339 -0.8135  0.9038 -2.2993
 6439TIP3   OH240807   2.534   2.077  13.772  0.1624 -0.3952 -0.0459
 6439TIP3    H140808   2.514   2.148  13.833 -1.1497 -0.7279 -0.0564
 6439TIP3    H240809   2.623   2.095  13.743  0.4853  0.2681  1.2772
 6440TIP3   OH240810   4.542   0.998  11.812  0.0965 -0.7663 -0.1646
 6440TIP3    H140811   4.551   1.091  11.789 -0.6683 -0.3632  1.0524
 6440TIP3    H240812   4.529   0.954  11.729  1.3765  0.0882 -0.8554
 6441TIP3   OH240813   2.083   2.123   5.619 -0.2015 -0.3526  0.3490
 6441TIP3    H140814   2.030   2.100   5.696 -1.3042  2.9375  0.7509
 6441TIP3    H240815   2.039   2.079   5.546 -0.2958 -1.9611  1.3388
 6442TIP3   OH240816   0.366   2.343   4.384  0.3210 -0.1993  0.0013
 6442TIP3    H140817   0.332   2.264   4.425 -1.2480 -0.8123 -2.3020
 6442TIP3    H240818   0.293   2.377   4.333  1.9041  0.9142 -1.6375
 6443TIP3   OH240819   4.838   0.170  11.432 -0.1195  0.1098  0.4002
 6443TIP3    H140820   4.858   0.096  11.488 -1.4018  0.0803  0.8475
 6443TIP3    H240821   4.752   0.201  11.461 -0.2406  0.8998 -0.6952
 6444TIP3   OH240822   4.896   0.573  16.376  0.4545 -0.2770  0.1047
 6444TIP3    H140823   4.847   0.516  16.437  1.5310  0.5184  1.7974
 6444TIP3    H240824   4.829   0.629  16.337 -0.3645 -1.2951  0.0008
 6445TIP3   OH240825   3.040   1.137   3.357 -0.0472 -0.0720 -0.2917
 6445TIP3    H140826   3.105   1.124   3.288  1.6658  1.4470  0.9174
 6445TIP3    H240827   3.067   1.219   3.400 -1.6119 -0.4348  1.5431
 6446TIP3   OH240828   4.738   0.435  12.366  0.1807  0.0984  0.0331
 6446TIP3    H140829   4.645   0.417  12.381 -0.7106  1.9215 -2.5878
 6446TIP3    H240830   4.766   0.368  12.305  0.7392 -0.6473  1.0720
 6447TIP3   OH240831   6.068   0.095  15.705 -0.7592  0.3666  0.7570
 6447TIP3    H140832   5.999   0.076  15.642  1.0358  1.6000 -1.7918
 6447TIP3    H240833   6.124   0.017  15.703  0.6858  1.3709 -1.2800
 6448TIP3   OH240834   3.280   0.790  16.034  0.3103 -0.3744  0.1692
 6448TIP3    H140835   3.194   0.817  16.065 -0.4759 -1.5434 -0.9177
 6448TIP3    H240836   3.293   0.839  15.953  0.4797 -0.5323  0.1014
 6449TIP3   OH240837   3.006   2.703  17.175  0.4890 -0.3079  0.7776
 6449TIP3    H140838   2.960   2.633  17.221  0.1317  0.1520  1.1250
 6449TIP3    H240839   2.980   2.692  17.083  0.2975 -0.5206  0.8561
 6450TIP3   OH240840   6.699   1.549  12.320 -0.3902 -0.2993 -0.2296
 6450TIP3    H140841   6.739   1.636  12.328 -0.6870 -0.0603 -1.2268
 6450TIP3    H240842   6.674   1.526  12.410  2.0721 -0.5204  0.4904
 6451TIP3   OH240843   5.727   2.310   0.519 -0.1951 -0.3298  0.1073
 6451TIP3    H140844   5.665   2.374   0.484 -1.5343 -1.9148 -0.5649
 6451TIP3    H240845   5.771   2.356   0.591 -0.8508  1.4319 -0.5715
 6452TIP3   OH240846   6.717   6.355  14.991 -0.2884  0.4048 -0.4516
 6452TIP3    H140847   6.695   6.345  14.899 -0.3367 -0.5048 -0.3523
 6452TIP3    H240848   6.794   6.412  14.992  0.5201 -0.6255 -1.1544
 6453TIP3   OH240849   3.807   1.133   3.854 -0.1348  0.0468  0.1569
 6453TIP3    H140850   3.729   1.078   3.855 -0.8718  0.9654 -1.5641
 6453TIP3    H240851   3.880   1.072   3.854 -0.8554 -0.8462  1.0856
 6454TIP3   OH240852   3.542   5.149   2.654  0.7211  0.2419 -0.0822
 6454TIP3    H140853   3.540   5.054   2.653  1.6640  0.2124  0.1337
 6454TIP3    H240854   3.604   5.172   2.723 -0.5698  1.0477  0.8513
 6455TIP3   OH240855   5.326   1.104  14.568 -0.5460 -0.3836  0.4694
 6455TIP3    H140856   5.246   1.057  14.592 -0.4815 -0.7776 -0.0713
 6455TIP3    H240857   5.299   1.162  14.496  0.3073 -2.9166 -2.0637
 6456TIP3   OH240858   2.269   6.397   2.083 -0.0997 -0.3998 -0.4259
 6456TIP3    H140859   2.324   6.458   2.034 -2.2692  1.4333 -0.7365
 6456TIP3    H240860   2.276   6.425   2.174 -2.4449  1.5842 -0.7611
 6457TIP3   OH240861   5.154   1.279   5.232 -0.3794 -0.4772 -0.0278
 6457TIP3    H140862   5.184   1.208   5.288 -2.4453 -0.4362  1.2691
 6457TIP3    H240863   5.068   1.250   5.200  0.2332  0.0170 -2.2582
 6458TIP3   OH240864   4.850   3.810   5.028  0.0381  0.1655  0.3538
 6458TIP3    H140865   4.879   3.797   4.938  0.1040 -0.7538  0.5009
 6458TIP3    H240866   4.856   3.723   5.068  1.1269  0.7812  1.5703
 6459TIP3   OH240867   4.504   2.125   2.205  0.3016  0.6465 -0.1605
 6459TIP3    H140868   4.569   2.151   2.140  0.0505  0.8186 -0.3423
 6459TIP3    H240869   4.425   2.172   2.180  0.2668  0.9017  0.4090
 6460TIP3   OH240870   2.349   0.005  12.255 -0.3436 -0.1211 -0.2504
 6460TIP3    H140871   2.345   0.080  12.314  0.8335 -0.5184  0.3565
 6460TIP3    H240872   2.429  -0.041  12.279 -0.3333 -0.8258 -1.5217
 6461TIP3   OH240873   2.885   5.758  16.590  0.3051 -0.6383  0.3584
 6461TIP3    H140874   2.806   5.811  16.583  0.7969  0.3027  1.6002
 6461TIP3    H240875   2.934   5.797  16.662  0.5361 -2.9864  1.5615
 6462TIP3   OH240876   3.916   0.460   5.579 -0.0768  0.6793 -0.0063
 6462TIP3    H140877   3.959   0.421   5.655 -0.3488 -0.0287 -0.2036
 6462TIP3    H240878   3.967   0.539   5.560 -0.7828  1.5707  1.6858
 6463TIP3   OH240879   0.171   5.991   3.231 -0.3073  0.0404  0.1424
 6463TIP3    H140880   0.179   6.086   3.227 -1.2739  0.1394  0.2331
 6463TIP3    H240881   0.249   5.958   3.187 -0.6579  0.8916 -1.1660
 6464TIP3   OH240882   2.631   6.447   5.849  0.4460  0.4447 -0.2396
 6464TIP3    H140883   2.611   6.499   5.771 -1.2486 -2.2197 -1.7389
 6464TIP3    H240884   2.571   6.480   5.916  0.2690  1.2038 -0.7608
 6465TIP3   OH240885   3.175   1.212  14.641  1.0288 -0.4036  0.0698
 6465TIP3    H140886   3.181   1.289  14.584  2.0100  0.5457  1.3830
 6465TIP3    H240887   3.107   1.235  14.704  0.1697 -1.3215 -0.4922
 6466TIP3   OH240888   5.587   1.032   3.605  0.0649  0.2025 -0.3952
 6466TIP3    H140889   5.625   0.952   3.567  0.9813  0.8017 -0.7631
 6466TIP3    H240890   5.628   1.103   3.557  0.9429  0.9927  1.4328
 6467TIP3   OH240891   4.152   5.215  14.422 -0.1462  0.0692  0.0176
 6467TIP3    H140892   4.101   5.163  14.360 -0.9105  1.4144 -0.5093
 6467TIP3    H240893   4.195   5.281  14.369  0.8765 -0.0518  0.6739
 6468TIP3   OH240894   2.280   2.571  15.187  0.0157  0.0229 -0.6930
 6468TIP3    H140895   2.219   2.570  15.261 -1.5183 -0.3823 -1.9157
 6468TIP3    H240896   2.345   2.504  15.210 -0.2704  0.0923  0.4059
 6469TIP3   OH240897   6.074   6.479   4.471 -0.6261  0.0965  0.1364
 6469TIP3    H140898   5.997   6.472   4.528 -0.2217  0.7599  0.7911
 6469TIP3    H240899   6.050   6.546   4.407 -0.2829  0.9457  0.8786
 6470TIP3   OH240900   2.856   0.448  12.215  0.4268 -0.6657  0.2737
 6470TIP3    H140901   2.936   0.470  12.167  0.8822  1.8600  1.9927
 6470TIP3    H240902   2.881   0.374  12.270  1.8238  0.3791  1.1438
 6471TIP3   OH240903   1.503   0.859  16.020 -0.5406  0.2802  0.4602
 6471TIP3    H140904   1.459   0.832  15.940 -0.3537 -1.9739  1.0594
 6471TIP3    H240905   1.440   0.918  16.063 -1.5385 -0.1925 -0.3072
 6472TIP3   OH240906   0.732   6.751   2.696  0.0616  0.5803 -0.2113
 6472TIP3    H140907   0.765   6.707   2.618 -0.0119 -0.5973  0.3814
 6472TIP3    H240908   0.683   6.683   2.742  2.4816  0.3223  2.3105
 6473TIP3   OH240909   1.452   3.668  13.881 -0.1240  0.2581 -0.6325
 6473TIP3    H140910   1.392   3.739  13.903 -0.2310 -0.3544  1.2485
 6473TIP3    H240911   1.491   3.643  13.965  0.7199 -1.1851 -1.4135
 6474TIP3   OH240912   1.385   6.488   4.288 -0.2866  0.6439  0.0448
 6474TIP3    H140913   1.366   6.573   4.326 -1.6211 -0.5436  2.1764
 6474TIP3    H240914   1.303   6.460   4.248 -0.5104 -0.5388  1.2570
 6475TIP3   OH240915   0.071   4.085  11.821 -0.6955  0.4785 -0.1664
 6475TIP3    H140916   0.123   4.005  11.830 -0.9977  0.3948  1.0584
 6475TIP3    H240917   0.102   4.125  11.740  0.0659 -0.4403 -0.3460
 6476TIP3   OH240918   4.294   5.698  16.646  0.0683  0.5064  0.6343
 6476TIP3    H140919   4.278   5.625  16.706 -1.4322  0.5083  0.2844
 6476TIP3    H240920   4.349   5.661  16.577 -1.1947 -0.4959  0.1303
 6477TIP3   OH240921   4.835   2.366   2.155  0.4143  0.4982 -0.3252
 6477TIP3    H140922   4.765   2.395   2.214 -0.4071 -0.8844 -0.5586
 6477TIP3    H240923   4.817   2.411   2.073  0.1796  0.6496 -0.1924
 6478TIP3   OH240924   5.515   1.149   4.965  0.2282  0.4265  0.3267
 6478TIP3    H140925   5.594   1.198   4.990 -0.5340  0.7651  2.3018
 6478TIP3    H240926   5.522   1.138   4.871  2.4209  0.8305  0.3849
 6479TIP3   OH240927   1.322   5.079  16.688 -0.0005 -0.1491 -0.4453
 6479TIP3    H140928   1.262   5.004  16.683 -1.6782  1.1737 -1.6172
 6479TIP3    H240929   1.303   5.129  16.609  1.7999  1.0063 -0.1963
 6480TIP3   OH240930   6.702   3.286  12.002  0.8913  0.1926  0.4269
 6480TIP3    H140931   6.623   3.336  12.020 -0.2621 -1.1396 -0.7286
 6480TIP3    H240932   6.765   3.316  12.068 -0.7245  0.8949  1.6998
 6481TIP3   OH240933   5.294   2.083   2.267  0.3524 -0.3293  0.4992
 6481TIP3    H140934   5.261   2.074   2.356  0.1082  0.3134  0.4826
 6481TIP3    H240935   5.220   2.122   2.219  0.5324 -0.5358  0.0563
 6482TIP3   OH240936   2.969   6.280   5.142  0.3010 -0.2928  0.8750
 6482TIP3    H140937   3.053   6.250   5.177  1.2412 -1.8604 -2.3052
 6482TIP3    H240938   2.955   6.225   5.065 -3.1787  0.6319  0.6931
 6483TIP3   OH240939   1.272   3.492   4.525 -0.2856 -0.1703  0.2206
 6483TIP3    H140940   1.335   3.564   4.519  0.3915 -0.8399 -1.4394
 6483TIP3    H240941   1.277   3.464   4.617 -1.8838  2.9638  1.4133
 6484TIP3   OH240942   3.190   3.227  15.814 -0.9014  0.4453  0.2014
 6484TIP3    H140943   3.161   3.299  15.757 -0.3932  1.3635  1.0800
 6484TIP3    H240944   3.122   3.160  15.804  0.1525 -0.3127 -3.0649
 6485TIP3   OH240945   6.226   1.362   5.369  0.0484  0.1342  0.1556
 6485TIP3    H140946   6.278   1.442   5.361  1.8483 -1.1724 -2.7567
 6485TIP3    H240947   6.136   1.389   5.348  0.0979  1.7793  1.7692
 6486TIP3   OH240948   2.054   1.787   5.836 -0.0085  0.1789 -0.3823
 6486TIP3    H140949   2.131   1.841   5.854 -0.1682 -0.0048  0.9632
 6486TIP3    H240950   1.981   1.837   5.872 -0.2917 -0.4280 -0.1069
 6487TIP3   OH240951   0.811   3.388  14.544 -0.2011 -0.3904  0.0426
 6487TIP3    H140952   0.866   3.315  14.574  0.2876 -0.5965 -1.2630
 6487TIP3    H240953   0.732   3.383  14.598  0.9280 -0.2542  1.7853
 6488TIP3   OH240954   4.447   6.113  13.914  0.4219 -0.5537 -0.4227
 6488TIP3    H140955   4.539   6.116  13.940  0.8763 -2.5429 -1.5349
 6488TIP3    H240956   4.442   6.168  13.837  0.5584 -0.0287 -0.0618
 6489TIP3   OH240957   2.773   3.517  11.480  0.1597 -0.2349 -0.1411
 6489TIP3    H140958   2.818   3.458  11.420 -1.6398  0.4029 -2.2485
 6489TIP3    H240959   2.731   3.460  11.543  0.4390 -1.0665 -0.6881
 6490TIP3   OH240960   4.583   1.427   0.792 -0.0751 -0.0694  0.3165
 6490TIP3    H140961   4.583   1.441   0.887 -0.0840 -0.2792  0.3486
 6490TIP3    H240962   4.673   1.405   0.771 -0.0183  0.2423  0.2355
 6491TIP3   OH240963   2.980   4.273   3.084  0.5148 -0.2900 -0.1540
 6491TIP3    H140964   3.065   4.318   3.081 -0.0351  0.7460 -0.4567
 6491TIP3    H240965   2.997   4.187   3.044  0.9716  0.6734 -2.1119
 6492TIP3   OH240966   5.799   4.107  14.281  0.6104  0.4890  0.8276
 6492TIP3    H140967   5.781   4.029  14.229  1.3843  1.1755 -0.5286
 6492TIP3    H240968   5.825   4.073  14.366  2.0182 -0.8083 -0.0580
 6493TIP3   OH240969   3.855   2.645  12.897  0.2762  0.0216  0.0609
 6493TIP3    H140970   3.925   2.710  12.887 -0.0259  0.4158  0.4728
 6493TIP3    H240971   3.813   2.641  12.811  0.7475 -0.1535 -0.1643
 6494TIP3   OH240972   3.032   4.908  13.375  0.0404  0.8369 -0.1713
 6494TIP3    H140973   3.029   4.952  13.290 -0.3734 -0.8261 -1.0756
 6494TIP3    H240974   2.959   4.846  13.371  0.7930 -0.1502  0.8830
 6495TIP3   OH240975   4.464   4.826  14.775  0.1844  0.6231 -0.4541
 6495TIP3    H140976   4.372   4.812  14.800  0.4916  1.1430  1.0561
 6495TIP3    H240977   4.462   4.828  14.679 -1.1964 -0.5381 -0.4846
 6496TIP3   OH240978   0.902   3.832   5.168 -0.3947 -0.0480  0.3957
 6496TIP3    H140979   0.924   3.848   5.076  0.2878 -4.5720 -0.4536
 6496TIP3    H240980   0.983   3.849   5.215  0.5473 -1.8023 -0.5185
 6497TIP3   OH240981   0.401   5.593   1.642  0.3701  0.7154  0.5269
 6497TIP3    H140982   0.391   5.508   1.599  0.6016  0.9204  0.0607
 6497TIP3    H240983   0.323   5.642   1.618 -0.2091  0.3163  1.5512
 6498TIP3   OH240984   2.672   2.703  16.547 -0.5261 -0.3974 -0.1725
 6498TIP3    H140985   2.721   2.657  16.478  0.5174  1.0962 -0.4701
 6498TIP3    H240986   2.739   2.744  16.601 -1.4057  0.4686  0.2925
 6499TIP3   OH240987   5.282   2.050   0.338  0.0527 -0.0319  0.2249
 6499TIP3    H140988   5.351   2.064   0.274  1.1099  0.1883  1.3873
 6499TIP3    H240989   5.313   2.093   0.418 -1.7671  0.7694  0.5682
 6500TIP3   OH240990   1.276   4.813  16.326 -0.4008 -0.2945 -0.3092
 6500TIP3    H140991   1.293   4.756  16.401 -1.1590  1.0501  0.9374
 6500TIP3    H240992   1.362   4.832  16.290  0.0738 -0.1250  0.8736
 6501TIP3   OH240993   4.735   0.010   0.476 -0.4072 -0.4911 -0.3481
 6501TIP3    H140994   4.661   0.046   0.525 -0.3876 -1.3125  0.3008
 6501TIP3    H240995   4.695  -0.033   0.400 -0.4079  1.1674 -1.3480
 6502TIP3   OH240996   6.000   2.393  15.495 -0.7962 -0.2121  0.1862
 6502TIP3    H140997   5.908   2.398  15.521 -0.6128 -0.9332  1.0326
 6502TIP3    H240998   6.036   2.479  15.516 -1.7796  0.8968 -2.2955
 6503TIP3   OH240999   3.013   0.248   5.245  0.7147 -0.0498 -0.0393
 6503TIP3    H141000   3.029   0.231   5.153 -0.5452 -1.4394 -0.0621
 6503TIP3    H241001   3.011   0.161   5.285  1.2118  0.5258  1.2901
 6504TIP3   OH241002   1.802   1.017   4.907  0.0919 -0.0137 -0.3796
 6504TIP3    H141003   1.878   1.076   4.908  0.2261 -0.1076 -2.0126
 6504TIP3    H241004   1.727   1.076   4.908  0.2084  0.1387 -0.4198
 6505TIP3   OH241005   6.452   4.116  11.134  0.0427  0.2837  0.3628
 6505TIP3    H141006   6.418   4.028  11.145  1.8637 -0.2885  1.9325
 6505TIP3    H241007   6.523   4.123  11.197  1.0338  2.3261 -0.8535
 6506TIP3   OH241008   4.068   2.888   1.128 -0.2146  0.4915  0.1051
 6506TIP3    H141009   4.160   2.866   1.141 -0.6282 -1.7609 -0.3598
 6506TIP3    H241010   4.040   2.924   1.211  0.8241  0.1892  0.6051
 6507TIP3   OH241011   0.502   3.845   4.024  0.4157  0.3205 -0.4041
 6507TIP3    H141012   0.473   3.916   4.081 -0.2431 -0.1753 -0.1064
 6507TIP3    H241013   0.426   3.788   4.016  1.0908 -0.6461 -0.1807
 6508TIP3   OH241014   6.319   4.903  16.999  0.2731  0.0499 -0.2199
 6508TIP3    H141015   6.382   4.845  16.957  1.6778  1.0507  0.3863
 6508TIP3    H241016   6.234   4.863  16.983  1.0725 -1.4465 -0.9348
 6509TIP3   OH241017   1.398   4.811   5.548 -0.2892  0.2495 -0.1829
 6509TIP3    H141018   1.356   4.756   5.615  1.7336 -1.0976  0.0438
 6509TIP3    H241019   1.465   4.860   5.596 -0.1832  0.8075 -0.8841
 6510TIP3   OH241020   0.267   5.768  13.389  0.5140  0.8344 -0.4197
 6510TIP3    H141021   0.250   5.700  13.324 -2.4492  1.4587 -0.4231
 6510TIP3    H241022   0.201   5.754  13.457  2.4540  1.2374  1.6760
 6511TIP3   OH241023   4.193   2.010  14.168  0.3539 -0.1381 -0.1283
 6511TIP3    H141024   4.140   1.931  14.182  0.6033 -0.1808  0.6497
 6511TIP3    H241025   4.129   2.080  14.159  0.1337 -0.3956 -0.5980
 6512TIP3   OH241026   4.127   1.015  11.966  0.6932  0.0592 -0.4776
 6512TIP3    H141027   4.164   0.945  12.020  1.1601  0.6388 -0.0316
 6512TIP3    H241028   4.054   0.974  11.920  0.0036 -0.3456  0.9212
 6513TIP3   OH241029   3.447   4.126  11.635  0.1977 -0.4916 -0.5068
 6513TIP3    H141030   3.528   4.165  11.602  0.5626 -0.6556  0.1946
 6513TIP3    H241031   3.422   4.063  11.568 -1.6124  2.3859 -2.8449
 6514TIP3   OH241032   0.173   6.209  13.266 -0.1319 -0.2170  0.0477
 6514TIP3    H141033   0.103   6.172  13.212  0.1590 -0.3875 -0.2141
 6514TIP3    H241034   0.241   6.142  13.265  0.0837  0.0016  0.2014
 6515TIP3   OH241035   4.050   0.236  14.241 -0.4584  0.0345 -0.5086
 6515TIP3    H141036   4.130   0.252  14.292 -2.1424  3.1991  1.5259
 6515TIP3    H241037   4.077   0.243  14.150  1.6274  0.9148  0.1273
 6516TIP3   OH241038   5.010   5.063  13.818  0.0956  0.0051  0.2397
 6516TIP3    H141039   5.045   4.988  13.867  1.3315 -1.0923 -2.1802
 6516TIP3    H241040   4.929   5.085  13.863  0.0479 -2.3498  1.4507
 6517TIP3   OH241041   3.911   1.198   0.259 -0.1250  0.4180 -0.0301
 6517TIP3    H141042   3.910   1.277   0.205 -0.4744 -0.4721 -1.3854
 6517TIP3    H241043   3.833   1.205   0.314 -0.9560  0.3589 -1.1632
 6518TIP3   OH241044   5.907   5.899   6.265  0.1875  1.2659 -0.1257
 6518TIP3    H141045   5.905   5.877   6.358  3.3326 -1.0228 -0.4035
 6518TIP3    H241046   5.990   5.946   6.254  0.5583  0.2952 -1.9055
 6519TIP3   OH241047   5.714   5.824   3.781 -0.5174  0.6111  0.7142
 6519TIP3    H141048   5.777   5.884   3.822  0.1905 -0.5581  1.3966
 6519TIP3    H241049   5.768   5.769   3.724 -1.1905  0.7748 -0.0934
 6520TIP3   OH241050   3.756   4.987  16.184 -0.2067  0.2522  0.4345
 6520TIP3    H141051   3.851   4.977  16.191 -0.1642 -0.2611 -0.5526
 6520TIP3    H241052   3.722   4.898  16.192 -0.5233  0.3213 -0.0505
 6521TIP3   OH241053   1.541   6.574  15.705 -0.1110  0.8581  0.2850
 6521TIP3    H141054   1.523   6.581  15.611  0.8055 -0.4051 -0.0148
 6521TIP3    H241055   1.461   6.538  15.743 -0.3690  1.0662 -0.0619
 6522TIP3   OH241056   4.925   6.141   1.113  0.1173 -0.6064 -0.1949
 6522TIP3    H141057   5.009   6.185   1.096 -0.0577 -1.2335 -3.2112
 6522TIP3    H241058   4.945   6.078   1.182  2.3854 -1.3068 -1.3848
 6523TIP3   OH241059   3.055   3.144   0.511 -0.0617 -0.5335 -0.5517
 6523TIP3    H141060   3.068   3.086   0.585  1.0711  0.5518  0.1508
 6523TIP3    H241061   3.076   3.231   0.545  2.6650 -0.2322 -2.6361
 6524TIP3   OH241062   4.417   4.522   0.597  0.2362 -0.6229 -0.3400
 6524TIP3    H141063   4.375   4.599   0.636 -0.0186 -0.9741  0.0957
 6524TIP3    H241064   4.375   4.511   0.512 -0.6414 -1.0371  0.1400
 6525TIP3   OH241065   3.521   3.802   5.641 -0.7144  0.0119  0.3377
 6525TIP3    H141066   3.523   3.890   5.678  0.1834  0.0762  0.1571
 6525TIP3    H241067   3.440   3.764   5.674 -1.1346  0.9205  0.3797
 6526TIP3   OH241068   5.676   4.747   1.393 -0.3762 -0.7027  0.0044
 6526TIP3    H141069   5.620   4.724   1.467  0.4098 -0.2861  0.7488
 6526TIP3    H241070   5.670   4.843   1.388 -0.9012 -0.7695 -0.8666
 6527TIP3   OH241071   6.807   0.624   4.998 -0.0058  0.4420  0.2394
 6527TIP3    H141072   6.808   0.529   4.987 -1.5396  0.5472 -1.2705
 6527TIP3    H241073   6.790   0.658   4.910 -0.6056  2.0515  0.9386
 6528TIP3   OH241074   4.226   0.084  14.810  0.6721  0.1809 -0.0517
 6528TIP3    H141075   4.286   0.070  14.736 -0.0916 -2.3959 -0.2793
 6528TIP3    H241076   4.284   0.105  14.883  1.6326  0.4491 -0.8599
 6529TIP3   OH241077   2.665   1.454  16.004  0.1807  0.0343 -0.1161
 6529TIP3    H141078   2.652   1.538  16.048 -0.4021 -1.0183  1.8417
 6529TIP3    H241079   2.644   1.472  15.912 -0.3839  1.9210  0.3311
 6530TIP3   OH241080   4.949   1.181  16.029 -0.5210 -0.6060 -0.1731
 6530TIP3    H141081   4.976   1.125  15.957  0.2381 -1.2522  0.5924
 6530TIP3    H241082   5.027   1.191  16.083 -1.1795 -0.4839  0.7931
 6531TIP3   OH241083   2.736   4.150   4.471  0.6735  0.5683  0.1378
 6531TIP3    H141084   2.776   4.064   4.480  1.3473  0.6657 -1.5213
 6531TIP3    H241085   2.668   4.138   4.405 -0.5457  0.9174  1.2771
 6532TIP3   OH241086   4.523   2.560  12.635 -0.4541  0.1368  0.0516
 6532TIP3    H141087   4.580   2.621  12.588 -0.8196  1.2335  0.9660
 6532TIP3    H241088   4.566   2.548  12.720  0.5038 -2.2710 -0.7103
 6533TIP3   OH241089   5.042   1.091   3.902  0.4269  0.5581 -0.1059
 6533TIP3    H141090   4.948   1.085   3.887  0.5904 -0.4738 -0.9136
 6533TIP3    H241091   5.076   1.007   3.869  1.8695  1.7407 -1.8124
 6534TIP3   OH241092   6.231   5.442   4.239  0.2474 -1.2043  0.4456
 6534TIP3    H141093   6.264   5.509   4.179 -1.1392  0.2156  1.1949
 6534TIP3    H241094   6.163   5.397   4.190  0.6082 -1.5242  0.2292
 6535TIP3   OH241095   5.950   0.932   3.638  0.5365 -0.2962 -0.5935
 6535TIP3    H141096   5.945   1.006   3.578 -0.5255 -0.0272 -0.1972
 6535TIP3    H241097   5.970   0.971   3.723 -1.1751 -0.2844 -0.1396
 6536TIP3   OH241098   6.218   1.242   5.990  0.3227  0.2389  0.1745
 6536TIP3    H141099   6.203   1.206   6.077 -0.4483 -0.0626 -0.0705
 6536TIP3    H241100   6.208   1.336   6.000  1.4985  0.3243  0.6546
 6537TIP3   OH241101   4.107   0.352   3.322  0.0662 -0.4814 -0.0285
 6537TIP3    H141102   4.198   0.329   3.338  0.5284  0.4250 -1.2415
 6537TIP3    H241103   4.102   0.446   3.337 -0.3489 -0.2855 -1.2262
 6538TIP3   OH241104   6.583   2.715  17.238 -0.4968  0.0778 -0.1066
 6538TIP3    H141105   6.610   2.734  17.148 -0.8276  2.9845  0.2877
 6538TIP3    H241106   6.663   2.724  17.290 -0.8345  1.6126  0.2103
 6539TIP3   OH241107   0.156   0.666  16.241 -0.1754  0.3564  0.1663
 6539TIP3    H141108   0.142   0.761  16.248 -1.2680  0.1211  1.4791
 6539TIP3    H241109   0.251   0.656  16.244 -0.0227  1.4301 -0.3670
 6540TIP3   OH241110   3.970   1.136  12.810 -0.1979  0.2240  0.0267
 6540TIP3    H141111   4.030   1.124  12.736  0.5603  0.5102  0.5793
 6540TIP3    H241112   3.984   1.227  12.837 -0.9688  0.3271  0.0999
 6541TIP3   OH241113   1.987   1.416   5.200 -0.0286  0.2114  0.1595
 6541TIP3    H141114   1.948   1.465   5.127  0.4299  0.9575  0.4003
 6541TIP3    H241115   2.060   1.471   5.229 -1.5168  1.0668  2.5987
 6542TIP3   OH241116   6.395   3.697  13.542  0.2046 -0.5746  0.5255
 6542TIP3    H141117   6.414   3.609  13.509 -1.0278 -1.0295  0.9441
 6542TIP3    H241118   6.326   3.683  13.607  0.6853  0.6037  1.3104
 6543TIP3   OH241119   3.113   5.322   5.959  0.7646 -0.0287 -0.3557
 6543TIP3    H141120   3.066   5.364   5.886  1.0904  0.0058 -0.5454
 6543TIP3    H241121   3.104   5.383   6.032  0.8714  0.1718 -0.5101
 6544TIP3   OH241122   6.686   6.599  15.691  0.1335  0.1422 -0.2043
 6544TIP3    H141123   6.750   6.571  15.757 -0.0711  0.3868  0.1060
 6544TIP3    H241124   6.719   6.683  15.660 -0.7243  0.9559  0.9545
 6545TIP3   OH241125   2.748   5.399  12.244  0.5020  0.0431  0.4345
 6545TIP3    H141126   2.687   5.326  12.238  0.7661 -0.3072  1.6245
 6545TIP3    H241127   2.819   5.378  12.183 -0.5922  0.5152 -1.0577
 6546TIP3   OH241128   0.601   1.662  16.393  0.3389 -0.1629  0.5292
 6546TIP3    H141129   0.535   1.599  16.424  0.2474 -0.7046 -0.6731
 6546TIP3    H241130   0.553   1.718  16.332  0.4916  0.9127  1.3769
 6547TIP3   OH241131   3.849   4.088   0.159  0.3673 -0.3322 -0.6530
 6547TIP3    H141132   3.878   4.039   0.236 -0.3328 -0.9418 -0.7621
 6547TIP3    H241133   3.921   4.079   0.096  1.9805  2.0779  0.6803
 6548TIP3   OH241134   1.169   6.160   4.859  0.0007  0.3992 -0.7403
 6548TIP3    H141135   1.139   6.245   4.891 -1.7160 -0.0395 -1.1042
 6548TIP3    H241136   1.169   6.169   4.763  0.1298  0.0968 -0.7695
 6549TIP3   OH241137   2.197   6.109  11.563 -0.3091 -0.2373  0.2339
 6549TIP3    H141138   2.210   6.064  11.480  0.0057 -0.3199  0.3258
 6549TIP3    H241139   2.140   6.051  11.613 -0.5967 -0.1304  0.0305
 6550TIP3   OH241140   0.845   4.974  15.929 -0.2690 -0.0067 -0.3618
 6550TIP3    H141141   0.924   5.027  15.932 -1.3877  1.6689  0.5926
 6550TIP3    H241142   0.785   5.015  15.992 -1.8917 -1.2424 -1.0245
 6551TIP3   OH241143   3.627   3.917   2.414 -0.2101 -0.2210 -0.2820
 6551TIP3    H141144   3.629   3.858   2.338  0.9333 -2.8907  1.6514
 6551TIP3    H241145   3.695   3.982   2.396  1.1459 -1.7405 -0.9055
 6552TIP3   OH241146   2.561   3.868   1.054  0.2825 -0.0595 -0.0510
 6552TIP3    H141147   2.582   3.841   0.965  1.4164 -0.8297  0.4203
 6552TIP3    H241148   2.485   3.815   1.079  0.5714 -0.5623 -0.2261
 6553TIP3   OH241149   3.223   0.440   5.663  0.2992  0.1704  0.0329
 6553TIP3    H141150   3.179   0.523   5.681 -0.1415  0.2437 -1.2607
 6553TIP3    H241151   3.234   0.439   5.568 -0.4561 -1.6228 -0.0745
 6554TIP3   OH241152   6.239   2.455   5.712 -0.1967 -0.2823  0.2142
 6554TIP3    H141153   6.235   2.532   5.769  1.2418  1.9186 -2.3951
 6554TIP3    H241154   6.149   2.445   5.680 -0.5326 -0.1128  1.0851
 6555TIP3   OH241155   3.022   4.214  16.558 -0.2354 -0.4298 -0.3765
 6555TIP3    H141156   3.006   4.155  16.485 -0.7603  1.1411 -1.6010
 6555TIP3    H241157   3.116   4.209  16.574 -0.0868 -0.6700 -1.2890
 6556TIP3   OH241158   2.486   3.633   3.587  0.0828  0.3335 -0.1415
 6556TIP3    H141159   2.466   3.631   3.680 -0.4089 -0.5679 -0.2558
 6556TIP3    H241160   2.483   3.541   3.560  0.5473  0.5561 -0.9742
 6557TIP3   OH241161   4.876   5.122   0.937  0.3311 -0.4790 -0.3442
 6557TIP3    H141162   4.944   5.056   0.923  0.4316 -0.3707 -0.3637
 6557TIP3    H241163   4.880   5.178   0.860 -1.4356 -1.9166 -1.5663
 6558TIP3   OH241164   2.101   5.343   4.590  0.3738 -0.7043 -0.4423
 6558TIP3    H141165   2.021   5.340   4.538 -0.0001  1.3109 -0.0932
 6558TIP3    H241166   2.105   5.434   4.622  2.0861 -1.1205  0.6677
 6559TIP3   OH241167   4.366   4.919  12.422  0.8558  0.2587  0.4365
 6559TIP3    H141168   4.386   4.982  12.491  0.7213  0.6024  0.1658
 6559TIP3    H241169   4.283   4.880  12.448 -0.3648  1.9774 -0.6056
 6560TIP3   OH241170   6.277   4.779   1.579 -0.4662 -0.0487  0.0086
 6560TIP3    H141171   6.283   4.873   1.563  1.4583  0.1700  1.6049
 6560TIP3    H241172   6.261   4.741   1.493  2.2877  1.5014 -1.3287
 6561TIP3   OH241173   0.071   0.544  15.106  0.5140  0.1713 -0.6508
 6561TIP3    H141174   0.088   0.627  15.061  0.7813  1.1542  1.1620
 6561TIP3    H241175   0.158   0.506  15.121  0.6558  1.1817  1.3632
 6562TIP3   OH241176   2.135   2.104  12.491 -0.7723  0.2328  0.0424
 6562TIP3    H141177   2.164   2.035  12.431  1.2232  0.6272  0.4974
 6562TIP3    H241178   2.071   2.061  12.548 -0.7901 -0.7931 -0.7190
 6563TIP3   OH241179   3.531   4.661  16.564 -0.4760 -0.8663  0.4045
 6563TIP3    H141180   3.442   4.626  16.575 -0.7866  0.1604  1.3512
 6563TIP3    H241181   3.583   4.615  16.630 -0.9545  0.6106  1.8777
 6564TIP3   OH241182   2.956   2.543  12.554 -0.1793  0.5722 -0.1556
 6564TIP3    H141183   2.877   2.526  12.502 -1.3767  1.0339  1.4566
 6564TIP3    H241184   2.925   2.549  12.644  1.9453 -0.9952  0.7750
 6565TIP3   OH241185   2.887   2.817   2.728  0.2526  0.0240  0.3514
 6565TIP3    H141186   2.974   2.837   2.763  0.0109  0.7673  0.5361
 6565TIP3    H241187   2.898   2.819   2.633  0.2051  1.1681  0.3676
 6566TIP3   OH241188   4.757   3.701  12.053  0.6159 -0.4289 -0.1492
 6566TIP3    H141189   4.704   3.780  12.059  1.3630 -0.0152  3.4852
 6566TIP3    H241190   4.731   3.661  11.970 -2.2747  1.8551 -0.5256
 6567TIP3   OH241191   5.405   1.185   2.898 -0.4263 -0.3786 -0.1404
 6567TIP3    H141192   5.402   1.264   2.843  0.5939 -0.2839 -0.0750
 6567TIP3    H241193   5.368   1.213   2.982 -0.4943 -0.0869 -0.2647
 6568TIP3   OH241194   3.359   5.342   1.066 -0.2967  0.4250  0.0068
 6568TIP3    H141195   3.268   5.369   1.076 -0.3333  0.1961  0.3113
 6568TIP3    H241196   3.406   5.424   1.047 -0.7144  0.3918 -1.2777
 6569TIP3   OH241197   0.746   0.380  13.936  0.1821  0.7696 -0.0581
 6569TIP3    H141198   0.795   0.448  13.889  0.1417  1.5370  0.9858
 6569TIP3    H241199   0.661   0.376  13.890  0.1391  1.5118 -0.0572
 6570TIP3   OH241200   1.134   2.151  11.113 -0.0214  0.2319 -0.4020
 6570TIP3    H141201   1.149   2.216  11.043 -1.1910  0.4708 -0.4380
 6570TIP3    H241202   1.198   2.082  11.094 -2.5427 -1.4666 -3.8704
 6571TIP3   OH241203   4.938   4.182   3.922 -0.4782 -0.5170  0.8427
 6571TIP3    H141204   4.902   4.218   4.003 -1.6347  1.3963 -0.4339
 6571TIP3    H241205   4.863   4.144   3.877 -0.8018  2.2283 -1.2013
 6572TIP3   OH241206   3.872   5.290  11.047  0.1751  0.0394 -0.0781
 6572TIP3    H141207   3.957   5.305  11.088  0.1619  0.6101 -0.2547
 6572TIP3    H241208   3.838   5.211  11.090  1.0897 -0.5947 -0.4875
 6573TIP3   OH241209   0.472   1.960  12.882 -0.6625  0.2415 -0.4071
 6573TIP3    H141210   0.556   1.968  12.837 -1.6980  1.2146 -2.3316
 6573TIP3    H241211   0.464   2.040  12.934  0.4793 -0.8253  1.5299
 6574TIP3   OH241212   6.086   6.192  11.851 -0.3296  0.7100 -0.1033
 6574TIP3    H141213   6.152   6.161  11.789  0.9947  1.2838  0.9670
 6574TIP3    H241214   6.027   6.118  11.863  1.3904 -0.6176  0.5991
 6575TIP3   OH241215   4.826   5.872  11.784 -0.1220  0.4209 -0.5264
 6575TIP3    H141216   4.771   5.885  11.861 -0.6047 -0.5435 -0.6832
 6575TIP3    H241217   4.765   5.869  11.711 -0.0255 -1.6906 -0.5953
 6576TIP3   OH241218   1.511   2.674  14.978 -0.4823  0.0973 -0.0294
 6576TIP3    H141219   1.505   2.592  15.027 -0.6658  0.1001 -0.0465
 6576TIP3    H241220   1.574   2.727  15.028  0.7576 -0.5983 -0.8089
 6577TIP3   OH241221   4.311   2.853  16.287  0.5039  0.2419 -0.6873
 6577TIP3    H141222   4.281   2.941  16.310 -0.8414 -0.3366 -0.1205
 6577TIP3    H241223   4.405   2.855  16.306  0.4211  1.4232 -0.2662
 6578TIP3   OH241224   1.880   1.111  12.650  0.0869  0.2038 -0.3619
 6578TIP3    H141225   1.793   1.115  12.608  0.0181  1.0147 -0.1426
 6578TIP3    H241226   1.928   1.048  12.597 -1.1990 -1.6695  0.5597
 6579TIP3   OH241227   3.484   0.623  13.131 -0.0077 -0.0495 -0.3643
 6579TIP3    H141228   3.522   0.708  13.111 -0.6695  0.7215  1.4801
 6579TIP3    H241229   3.393   0.630  13.103 -0.0907 -0.1146 -0.1132
 6580TIP3   OH241230   6.123   0.217   3.128 -0.4613  0.0470 -0.3962
 6580TIP3    H141231   6.092   0.159   3.059 -2.9043 -0.0766  0.7133
 6580TIP3    H241232   6.168   0.287   3.082 -1.4881 -0.3348 -2.0789
 6581TIP3   OH241233   6.045   1.133   1.608 -0.1203  0.2503 -0.0056
 6581TIP3    H141234   5.958   1.094   1.603  0.1286 -0.4117  0.6300
 6581TIP3    H241235   6.098   1.068   1.655  0.9006  0.3244 -1.0180
 6582TIP3   OH241236   1.799   4.730  14.520 -0.4488 -0.1837  0.0230
 6582TIP3    H141237   1.752   4.702  14.599 -0.6225  0.1072  0.0251
 6582TIP3    H241238   1.885   4.759  14.551 -0.8535  0.8353  0.2350
 6583TIP3   OH241239   2.086   3.132   0.179 -0.3342  0.1634  0.0230
 6583TIP3    H141240   2.110   3.137   0.272 -3.1751  0.2442  0.8703
 6583TIP3    H241241   2.151   3.187   0.135  1.4911 -0.3796  1.8433
 6584TIP3   OH241242   1.677   2.184  16.893  0.6997  0.1723  0.5480
 6584TIP3    H141243   1.638   2.238  16.825  0.3224  0.0965  0.7021
 6584TIP3    H241244   1.645   2.222  16.975 -1.1372 -1.4331  0.6318
 6585TIP3   OH241245   1.240   1.014  12.895  0.3468  0.3468  0.3494
 6585TIP3    H141246   1.299   1.010  12.820 -0.0166  0.9748  0.0239
 6585TIP3    H241247   1.204   0.926  12.902 -1.7293  0.9146 -1.9225
 6586TIP3   OH241248   0.096   3.154   0.397 -0.4725 -0.5564  0.0824
 6586TIP3    H141249   0.119   3.244   0.374 -0.1395 -0.3880  1.0324
 6586TIP3    H241250   0.007   3.143   0.364 -0.8230  0.3948  0.6628
 6587TIP3   OH241251   4.045   3.533  16.308  0.6316 -0.2417 -0.7456
 6587TIP3    H141252   3.961   3.531  16.262  1.2314  0.7589 -1.9758
 6587TIP3    H241253   4.024   3.510  16.398 -0.7597 -1.2857 -1.2979
 6588TIP3   OH241254   0.526   0.942   5.757  0.0690  0.0809  0.0047
 6588TIP3    H141255   0.547   0.948   5.664 -0.5127 -2.3812 -0.3514
 6588TIP3    H241256   0.431   0.948   5.761  0.1385  1.0488  0.5649
 6589TIP3   OH241257   0.791   0.650   1.699  0.3952 -0.2148 -0.0634
 6589TIP3    H141258   0.879   0.680   1.679 -0.2737  0.9186 -1.4632
 6589TIP3    H241259   0.771   0.688   1.785  1.7319 -1.6208  0.9254
 6590TIP3   OH241260   4.159   2.424  14.255 -0.4603 -0.1884 -0.5762
 6590TIP3    H141261   4.100   2.497  14.270 -0.0932  0.1112 -0.5844
 6590TIP3    H241262   4.190   2.436  14.165  1.0293  0.6858  0.0297
 6591TIP3   OH241263   5.617   5.566  12.316 -0.0013 -0.4111  0.2498
 6591TIP3    H141264   5.577   5.651  12.301  0.2690 -0.6234 -2.0261
 6591TIP3    H241265   5.591   5.513  12.241  0.4962 -2.0961  1.2016
 6592TIP3   OH241266   3.251   3.402   1.131 -0.4183 -0.1247  0.0833
 6592TIP3    H141267   3.191   3.477   1.138 -1.3487 -0.8764  0.3487
 6592TIP3    H241268   3.314   3.415   1.202 -0.9207  0.1077  0.4935
 6593TIP3   OH241269   2.360   6.043  13.021 -0.2912 -0.2442 -0.3762
 6593TIP3    H141270   2.427   5.987  13.060  0.0082 -0.2480 -0.8790
 6593TIP3    H241271   2.321   6.090  13.095 -0.3000 -0.8461  0.0102
 6594TIP3   OH241272   6.224   4.162  15.847  0.0881 -0.1489  0.0516
 6594TIP3    H141273   6.313   4.132  15.868 -0.4242 -0.4644  1.9506
 6594TIP3    H241274   6.236   4.253  15.820  0.9302  0.0333  0.9857
 6595TIP3   OH241275   1.582   0.077   4.030  0.3901  0.3007 -0.1493
 6595TIP3    H141276   1.641   0.132   3.978  0.9945  1.2274  1.4598
 6595TIP3    H241277   1.584   0.116   4.117 -0.3822 -1.3768  0.6491
 6596TIP3   OH241278   6.808   6.177   0.705  0.3158 -0.3580 -0.0821
 6596TIP3    H141279   6.841   6.127   0.631 -0.4187  0.9212 -1.3257
 6596TIP3    H241280   6.886   6.217   0.744  0.4748  1.8652 -2.4064
 6597TIP3   OH241281   0.468   6.732  12.990 -0.1268 -0.3275  0.6298
 6597TIP3    H141282   0.516   6.802  12.946  0.2370  0.3279  2.0069
 6597TIP3    H241283   0.377   6.745  12.963  0.0607  0.1555  0.2048
 6598TIP3   OH241284   1.602   5.326  14.720 -0.6462  0.0039 -0.3133
 6598TIP3    H141285   1.676   5.310  14.661  0.2968 -0.5241  0.9736
 6598TIP3    H241286   1.526   5.332  14.662 -0.0191 -2.2038 -1.4708
 6599TIP3   OH241287   2.277   0.717   6.088 -0.1301  0.2703  0.2068
 6599TIP3    H141288   2.224   0.639   6.106 -0.2887  0.1601 -0.6750
 6599TIP3    H241289   2.368   0.686   6.095 -0.1767  0.3689  1.3365
 6600TIP3   OH241290   0.151   4.336  12.649 -0.3215 -0.4708 -0.8416
 6600TIP3    H141291   0.224   4.382  12.609 -0.5724  1.0284  0.3293
 6600TIP3    H241292   0.174   4.243  12.643  1.6205 -0.0366 -0.5993
 6601TIP3   OH241293   1.745   2.693  10.706  0.4986 -0.2399 -0.2767
 6601TIP3    H141294   1.814   2.721  10.765  1.2226  1.1731 -1.7346
 6601TIP3    H241295   1.780   2.614  10.664  0.4134 -0.6332  0.3762
 6602TIP3   OH241296   4.090   0.182  13.973 -0.6092  0.8774 -0.1308
 6602TIP3    H141297   4.044   0.122  13.915 -1.5719  1.3016  0.1755
 6602TIP3    H241298   4.138   0.240  13.915 -0.4888  0.4587 -0.4535
 6603TIP3   OH241299   3.781   0.552   0.610  0.3873 -0.2952  0.6472
 6603TIP3    H141300   3.851   0.487   0.601  1.7979  0.7591  3.0332
 6603TIP3    H241301   3.817   0.632   0.572 -0.9222 -0.5580 -1.2733
 6604TIP3   OH241302   0.301   5.437   2.911  0.0855 -0.2399 -0.4032
 6604TIP3    H141303   0.297   5.441   2.815 -0.1180  0.4802 -0.3694
 6604TIP3    H241304   0.291   5.344   2.931 -0.6275 -0.3211 -1.0524
 6605TIP3   OH241305   6.244   3.689   0.074  0.0596 -0.1794  0.5677
 6605TIP3    H141306   6.192   3.709  -0.004  0.3714  2.4140  0.9672
 6605TIP3    H241307   6.322   3.645   0.040 -0.5817 -0.6132 -0.3941
 6606TIP3   OH241308   1.925   0.653   3.014  0.0983 -0.8359 -0.3660
 6606TIP3    H141309   1.918   0.719   2.945 -1.3980 -1.8738 -1.2684
 6606TIP3    H241310   1.978   0.695   3.081  0.2712  0.8046 -1.4558
 6607TIP3   OH241311   3.884   2.053   3.753  0.4163  0.2004 -0.0100
 6607TIP3    H141312   3.917   2.086   3.669  0.7551  1.3518  0.5524
 6607TIP3    H241313   3.819   1.988   3.729  1.3265 -0.3307 -1.1640
 6608TIP3   OH241314   0.151   2.338   2.909 -0.2106  0.4741 -0.3424
 6608TIP3    H141315   0.125   2.253   2.946  0.7347  0.6350  0.7425
 6608TIP3    H241316   0.074   2.393   2.921  0.0507  0.5166  1.4506
 6609TIP3   OH241317   2.598   2.334   4.855  0.3325  0.4884  0.4046
 6609TIP3    H141318   2.542   2.411   4.842  1.1512  1.0462  0.0950
 6609TIP3    H241319   2.541   2.260   4.835 -0.1808  1.0537 -0.3041
 6610TIP3   OH241320   1.818   1.927  15.797 -0.7767 -0.3118 -0.1927
 6610TIP3    H141321   1.877   1.875  15.852 -0.7791  0.7522  0.8725
 6610TIP3    H241322   1.871   2.001  15.768 -1.2981  0.1131 -0.0780
 6611TIP3   OH241323   2.670   0.585   4.272  0.3451 -0.2165  0.6980
 6611TIP3    H141324   2.622   0.611   4.194  2.8029  0.6131 -0.6638
 6611TIP3    H241325   2.740   0.528   4.240  1.3575  0.0369  2.2833
 6612TIP3   OH241326   5.341   1.867   1.683 -0.1021 -0.4166 -0.0439
 6612TIP3    H141327   5.341   1.818   1.601 -1.0803 -1.3754  0.5025
 6612TIP3    H241328   5.292   1.812   1.744  1.2035 -0.0745  1.3954
 6613TIP3   OH241329   4.739   1.217   3.970 -0.1025 -0.8245  0.4044
 6613TIP3    H141330   4.703   1.137   4.007 -0.5991 -0.3230  1.0301
 6613TIP3    H241331   4.796   1.252   4.039 -0.6416 -0.1455  0.5157
 6614TIP3   OH241332   4.071   0.975   3.522 -0.1165  0.1846 -0.2846
 6614TIP3    H141333   4.129   0.903   3.546  0.2430  0.7525  0.5901
 6614TIP3    H241334   4.108   1.052   3.565  0.1767  1.1355 -2.1599
 6615TIP3   OH241335   6.720   3.940  10.724 -0.4540 -0.4118 -0.3975
 6615TIP3    H141336   6.674   3.966  10.644 -0.8656 -1.0554 -0.3804
 6615TIP3    H241337   6.810   3.922  10.695 -0.1513  0.9830 -0.4082
 6616TIP3   OH241338   0.854   5.597  13.362 -0.1682 -0.3882  0.0321
 6616TIP3    H141339   0.769   5.556  13.353 -0.6062  0.9630 -2.9539
 6616TIP3    H241340   0.851   5.638  13.449 -1.7331 -2.0154  0.8149
 6617TIP3   OH241341   1.142   3.089  16.631 -0.1234 -0.4982 -0.0809
 6617TIP3    H141342   1.132   3.153  16.702  0.0170 -1.5055  0.8592
 6617TIP3    H241343   1.085   3.123  16.562 -0.7312  0.1906  0.7300
 6618TIP3   OH241344   5.675   4.633  17.106  0.5414 -0.0026  0.2055
 6618TIP3    H141345   5.729   4.555  17.094  0.8933  0.3882 -0.8503
 6618TIP3    H241346   5.714   4.699  17.049  0.1684  0.9177  0.9874
 6619TIP3   OH241347   3.685   4.284  12.578 -0.4248  0.3810  0.5686
 6619TIP3    H141348   3.632   4.329  12.512  1.8595  2.0261 -0.2543
 6619TIP3    H241349   3.626   4.275  12.653 -2.9693 -1.1470 -1.4158
 6620TIP3   OH241350   3.713   1.195  12.716  0.4134  0.2408  0.4344
 6620TIP3    H141351   3.656   1.127  12.754 -0.3781  0.8993  0.4460
 6620TIP3    H241352   3.802   1.168  12.742 -0.0268  0.1727  1.9949
 6621TIP3   OH241353   3.919   0.042  14.443  0.1235  0.4678 -0.2912
 6621TIP3    H141354   3.935  -0.042  14.402 -0.0716  1.2888 -2.1582
 6621TIP3    H241355   3.940   0.107  14.376  0.2908  1.9255  1.0897
 6622TIP3   OH241356   2.757   4.736  16.346  0.4008 -0.7201 -0.1224
 6622TIP3    H141357   2.810   4.719  16.268  1.0352 -0.3439  0.2168
 6622TIP3    H241358   2.680   4.680  16.336 -0.4889  0.6868 -1.9680
 6623TIP3   OH241359   6.324   2.938   1.778  0.2010 -0.2632 -0.3176
 6623TIP3    H141360   6.407   2.973   1.746 -0.1705  1.1642  0.2027
 6623TIP3    H241361   6.270   3.016   1.794 -1.3000 -1.1699 -0.7990
 6624TIP3   OH241362   0.815   4.266   1.803 -0.3668  0.1506  0.0153
 6624TIP3    H141363   0.888   4.253   1.743 -0.5848 -2.3802  0.1765
 6624TIP3    H241364   0.741   4.221   1.762 -1.1007  0.2697  1.1451
 6625TIP3   OH241365   5.227   4.497   0.027 -0.0689  0.0643 -0.1133
 6625TIP3    H141366   5.199   4.406   0.013  1.8609 -0.8201  1.3028
 6625TIP3    H241367   5.270   4.522  -0.054 -0.4299 -0.3651 -0.4415
 6626TIP3   OH241368   1.161   0.838  11.233  0.1770  0.2988 -0.5450
 6626TIP3    H141369   1.146   0.761  11.178  0.1083  1.4114 -2.1578
 6626TIP3    H241370   1.080   0.889  11.224  0.1182  0.4548  0.7131
 6627TIP3   OH241371   6.678   2.987   2.743 -0.0859 -0.3656 -0.0542
 6627TIP3    H141372   6.687   2.896   2.713 -1.0193 -0.7621  0.8282
 6627TIP3    H241373   6.765   3.024   2.732  0.9139 -2.0354  1.7352
 6628TIP3   OH241374   3.260   3.276   3.532  0.0510 -0.2508 -0.2129
 6628TIP3    H141375   3.210   3.329   3.470  0.1660 -1.6061 -1.5211
 6628TIP3    H241376   3.289   3.338   3.598 -3.1637  0.6638  0.5257
 6629TIP3   OH241377   0.301   2.565   1.604  0.2227 -0.1429  0.1833
 6629TIP3    H141378   0.221   2.515   1.619 -0.0502  0.7696  2.1011
 6629TIP3    H241379   0.281   2.621   1.528 -0.7078 -0.3959  0.2343
 6630TIP3   OH241380   3.914   2.364   1.707 -0.0099  0.4834 -0.3063
 6630TIP3    H141381   3.990   2.380   1.650 -0.2228 -0.5186 -0.8968
 6630TIP3    H241382   3.905   2.269   1.709  0.5488  0.4150  2.1690
 6631TIP3   OH241383   0.451   0.733  11.807  0.1929  0.2607  0.2737
 6631TIP3    H141384   0.455   0.809  11.749  1.4228  1.7113  2.1279
 6631TIP3    H241385   0.514   0.671  11.771  1.8527  1.6431  0.6480
 6632TIP3   OH241386   0.396   6.565   1.485  0.0253  0.3398  0.0722
 6632TIP3    H141387   0.413   6.579   1.392  0.3670  2.6190  0.4221
 6632TIP3    H241388   0.482   6.550   1.523 -0.0988 -0.4322  0.0699
 6633TIP3   OH241389   2.272   4.364   2.270  0.3459 -0.0571 -0.0106
 6633TIP3    H141390   2.273   4.284   2.322 -0.7928 -0.7731 -1.0365
 6633TIP3    H241391   2.270   4.435   2.334 -0.7259 -0.9038  0.9183
 6634TIP3   OH241392   4.670   5.381  11.866 -0.4954 -0.7118  0.0730
 6634TIP3    H141393   4.607   5.358  11.798  1.1983 -0.8143 -1.5403
 6634TIP3    H241394   4.747   5.412  11.818  1.0725 -1.5481  1.9123
 6635TIP3   OH241395   6.668   0.846   1.935 -0.0683 -0.1553  0.3681
 6635TIP3    H141396   6.712   0.841   1.850 -0.4729 -0.3301  0.1679
 6635TIP3    H241397   6.593   0.787   1.927 -1.7028  1.9010 -0.0879
 6636TIP3   OH241398   6.145   4.644   1.393  0.0772  0.4050  0.4037
 6636TIP3    H141399   6.111   4.582   1.329 -0.2343 -0.1416  1.0843
 6636TIP3    H241400   6.070   4.665   1.449  0.6609 -0.3110  1.5126
 6637TIP3   OH241401   6.600   0.532  15.855 -0.4276  0.3535  0.7423
 6637TIP3    H141402   6.642   0.552  15.939  0.5995  0.6601  0.1683
 6637TIP3    H241403   6.589   0.437  15.855  0.5270  0.2417  0.7863
 6638TIP3   OH241404   0.513   2.789  11.953 -0.1390 -0.1159 -0.0765
 6638TIP3    H141405   0.441   2.727  11.939 -1.4004  0.6102  2.4827
 6638TIP3    H241406   0.566   2.749  12.022  0.7417  0.2964 -0.5024
 6639TIP3   OH241407   4.585   3.103  11.673  0.2259  0.3281  0.4914
 6639TIP3    H141408   4.628   3.184  11.644  1.3545 -0.5693 -0.4246
 6639TIP3    H241409   4.642   3.033  11.642 -1.3779 -0.8835  0.1577
 6640TIP3   OH241410   2.486   4.760  15.673  0.0347  0.2569 -0.3828
 6640TIP3    H141411   2.462   4.852  15.668  3.6050  1.3720  0.2499
 6640TIP3    H241412   2.512   4.746  15.764  1.6013 -0.7365 -0.9308
 6641TIP3   OH241413   1.971   4.278   5.497  0.8069 -0.0357 -0.2704
 6641TIP3    H141414   1.973   4.245   5.407 -0.5065 -0.4603 -0.1653
 6641TIP3    H241415   2.008   4.207   5.549 -1.9376 -1.4530 -0.0537
 6642TIP3   OH241416   0.781   1.488  11.867  0.0337  0.1631  0.0363
 6642TIP3    H141417   0.837   1.562  11.842  0.4333  0.0898  0.6875
 6642TIP3    H241418   0.787   1.484  11.963 -1.6231  0.5626  0.1881
 6643TIP3   OH241419   5.720   6.209  14.150  0.0267 -0.5522  0.4156
 6643TIP3    H141420   5.646   6.182  14.095 -0.4092 -1.3696  1.3800
 6643TIP3    H241421   5.776   6.132  14.155  0.2178 -0.3844  0.8572
 6644TIP3   OH241422   5.769   2.609  16.624 -0.0620  0.2867 -0.2017
 6644TIP3    H141423   5.752   2.665  16.699 -0.3107 -0.4131  0.2676
 6644TIP3    H241424   5.683   2.591  16.586 -0.0325 -0.2079 -0.0383
 6645TIP3   OH241425   0.207   2.569  16.619  0.9901 -0.6158 -0.2151
 6645TIP3    H141426   0.195   2.571  16.524  2.6609 -0.7691 -0.4526
 6645TIP3    H241427   0.233   2.479  16.638 -0.9704 -1.0474  0.6397
 6646TIP3   OH241428   6.715   2.546   2.992  0.0452 -0.3085  0.1722
 6646TIP3    H141429   6.634   2.580   2.954  0.6011 -0.3281 -1.0897
 6646TIP3    H241430   6.687   2.492   3.066 -0.9160  2.1277  1.7079
 6647TIP3   OH241431   4.755   1.852   1.983 -0.1527  0.2195 -0.3480
 6647TIP3    H141432   4.764   1.897   2.068 -1.6683  1.5939 -0.8645
 6647TIP3    H241433   4.661   1.846   1.969  0.0459 -1.3673 -1.2696
 6648TIP3   OH241434   2.136   0.211  13.293  0.2566  0.4141 -0.4089
 6648TIP3    H141435   2.113   0.225  13.202 -1.5445  1.1803  0.1163
 6648TIP3    H241436   2.144   0.116  13.302  1.5251  0.3912 -1.5738
 6649TIP3   OH241437   2.542   2.835   6.194 -0.3692 -0.0168 -0.1910
 6649TIP3    H141438   2.511   2.922   6.220  1.2344  1.6830 -3.3746
 6649TIP3    H241439   2.470   2.799   6.142 -0.9663 -0.5942  0.9896
 6650TIP3   OH241440   0.107   5.061   0.132  0.4342  0.1905 -0.3360
 6650TIP3    H141441   0.028   5.071   0.185  0.7983 -0.9755  0.4745
 6650TIP3    H241442   0.123   4.967   0.130  1.8544  0.4043 -0.3705
 6651TIP3   OH241443   0.696   0.456   2.272 -0.6534 -0.0556 -0.0067
 6651TIP3    H141444   0.755   0.460   2.197 -0.7003 -0.3450 -0.0605
 6651TIP3    H241445   0.732   0.387   2.328  0.0581  0.9677  0.8252
 6652TIP3   OH241446   0.607   1.921  13.495 -0.7248 -0.0508 -0.0242
 6652TIP3    H141447   0.513   1.914  13.511 -0.6304 -0.0377  0.5596
 6652TIP3    H241448   0.617   1.900  13.402 -1.5326  1.8411 -0.5888
 6653TIP3   OH241449   1.356   2.708  12.880  0.6388 -0.2403  0.4589
 6653TIP3    H141450   1.378   2.633  12.825  0.7820 -0.7413  1.1930
 6653TIP3    H241451   1.262   2.699  12.896  0.6743 -0.3096  0.6246
 6654TIP3   OH241452   3.419   5.991  11.504  0.0957  0.0819  0.1563
 6654TIP3    H141453   3.352   6.027  11.446  0.6009  1.3424  0.3179
 6654TIP3    H241454   3.482   5.950  11.444  0.9469  1.9363 -0.2774
 6655TIP3   OH241455   4.189   5.138  14.045  0.2826 -0.0454  1.0190
 6655TIP3    H141456   4.109   5.186  14.026 -0.0802 -1.2067 -0.5928
 6655TIP3    H241457   4.161   5.064  14.099  0.7749  1.2236  3.1179
 6656TIP3   OH241458   3.264   3.080   6.406  0.1216  0.2461  0.1158
 6656TIP3    H141459   3.214   3.053   6.483 -0.2199 -2.0034 -0.7934
 6656TIP3    H241460   3.300   2.998   6.371  1.2615  1.3466 -1.4283
 6657TIP3   OH241461   4.522   4.846  10.548  0.5498  0.3835  0.6573
 6657TIP3    H141462   4.537   4.752  10.536  0.0547  0.5382 -1.7990
 6657TIP3    H241463   4.453   4.852  10.614 -0.1769 -1.0522  0.0697
 6658TIP3   OH241464   2.851   3.619   5.373  0.0514 -0.4671  0.2085
 6658TIP3    H141465   2.932   3.581   5.338 -0.7553 -1.4686 -0.6134
 6658TIP3    H241466   2.833   3.694   5.315  0.2664 -0.3753  0.2594
 6659TIP3   OH241467   2.715   2.060   0.777  0.6848  0.1471 -0.0704
 6659TIP3    H141468   2.670   1.995   0.832  1.2675 -0.1477  0.0627
 6659TIP3    H241469   2.668   2.056   0.694  1.0244 -0.8207 -0.2343
 6660TIP3   OH241470   0.458   1.005   4.981 -0.4613 -0.0628 -0.5111
 6660TIP3    H141471   0.507   0.962   5.051  0.7566  1.5961 -0.2839
 6660TIP3    H241472   0.452   0.940   4.911  0.9629 -0.7308 -0.0374
 6661TIP3   OH241473   0.335   4.487  16.310 -1.1289  0.0162  0.3873
 6661TIP3    H141474   0.408   4.485  16.248 -1.1896  0.0446  0.3175
 6661TIP3    H241475   0.378   4.486  16.396 -0.9784  1.8228  0.3703
 6662TIP3   OH241476   2.179   5.692  11.825  0.1558  0.4812  0.1759
 6662TIP3    H141477   2.199   5.783  11.849  2.0362  0.3026 -0.5522
 6662TIP3    H241478   2.228   5.640  11.889  0.9566  0.0030 -0.8095
 6663TIP3   OH241479   1.496   1.657  16.454  0.0383 -0.3674 -0.0438
 6663TIP3    H141480   1.504   1.671  16.549 -1.7764  0.9097 -0.0262
 6663TIP3    H241481   1.500   1.745  16.417 -3.1522 -0.4025 -0.7553
 6664TIP3   OH241482   3.583   3.926  13.208  0.0431  0.4771  0.2883
 6664TIP3    H141483   3.508   3.926  13.148  0.7737  1.3413 -0.6716
 6664TIP3    H241484   3.582   3.839  13.248 -0.1711 -0.3255 -1.3668
 6665TIP3   OH241485   0.247   5.238   4.810  0.5887 -0.3824 -0.3411
 6665TIP3    H141486   0.171   5.249   4.867  0.1243 -0.6522 -0.9018
 6665TIP3    H241487   0.314   5.199   4.866  0.5292  0.4404  0.3206
 6666TIP3   OH241488   3.044   2.455   3.040  0.6125  0.0356  0.1766
 6666TIP3    H141489   3.041   2.526   3.104 -0.9592  0.7635 -0.6429
 6666TIP3    H241490   2.974   2.476   2.978 -1.4398 -3.3437  1.0621
 6667TIP3   OH241491   0.930   1.994  11.623 -0.4042  0.6000  1.1769
 6667TIP3    H141492   0.844   2.025  11.596  0.3301  1.1438 -0.7033
 6667TIP3    H241493   0.991   2.057  11.584  0.9315 -0.8533  0.8320
 6668TIP3   OH241494   4.816   2.872   2.121 -0.4499  0.6331 -0.6215
 6668TIP3    H141495   4.721   2.862   2.123 -0.5163  1.2584  1.1587
 6668TIP3    H241496   4.842   2.879   2.213  1.4263 -0.3299 -1.0213
 6669TIP3   OH241497   3.840   0.471  10.892  0.7044  0.2683  0.0256
 6669TIP3    H141498   3.838   0.542  10.955  1.3454  0.5994 -0.3185
 6669TIP3    H241499   3.784   0.500  10.820 -1.5924 -0.9079  1.2409
 6670TIP3   OH241500   4.283   0.478  14.192 -0.9455  0.1824  0.2866
 6670TIP3    H141501   4.328   0.421  14.254 -1.0648 -1.9044 -1.4032
 6670TIP3    H241502   4.330   0.466  14.110 -1.3524  2.1450 -0.2890
 6671TIP3   OH241503   2.407   5.915   5.963 -0.1861  0.4054  0.3390
 6671TIP3    H141504   2.396   6.009   5.981  1.8653  0.7421  0.0372
 6671TIP3    H241505   2.341   5.895   5.897 -0.2470  1.7831 -0.0443
 6672TIP3   OH241506   4.959   5.618  11.173  0.4315  0.9922  0.3828
 6672TIP3    H141507   4.902   5.694  11.165  2.6066  2.7194  0.4163
 6672TIP3    H241508   4.912   5.558  11.231 -1.5721  2.0607 -0.0725
 6673TIP3   OH241509   3.436   2.199   0.294 -0.0505 -0.1023  0.0048
 6673TIP3    H141510   3.413   2.133   0.360  0.3374  0.3295  0.5845
 6673TIP3    H241511   3.359   2.204   0.237 -0.3785 -0.5087  0.4048
 6674TIP3   OH241512   5.532   4.228   4.707 -0.5876  0.0090 -0.6382
 6674TIP3    H141513   5.612   4.281   4.704 -1.5050  1.4748 -0.1937
 6674TIP3    H241514   5.503   4.223   4.616 -0.8994  0.9082 -0.5886
 6675TIP3   OH241515   3.410   4.169  16.824 -0.0761 -0.0012 -0.0387
 6675TIP3    H141516   3.383   4.218  16.746 -0.9131  1.7040  1.2366
 6675TIP3    H241517   3.458   4.233  16.877  1.3808 -1.4060  0.4163
 6676TIP3   OH241518   6.232   3.043   5.832  0.2376 -0.1947  0.2736
 6676TIP3    H141519   6.327   3.033   5.828  0.1963 -0.3736 -0.6178
 6676TIP3    H241520   6.218   3.119   5.888  0.8599 -0.8119  1.2896
 6677TIP3   OH241521   3.739   3.634   0.891 -0.1219 -0.3605 -0.2701
 6677TIP3    H141522   3.731   3.662   0.983  0.8907  0.0561 -0.2910
 6677TIP3    H241523   3.688   3.699   0.842  0.6039  0.3253 -0.1352
 6678TIP3   OH241524   0.561   5.040   2.826  0.1525  0.5450 -0.0436
 6678TIP3    H141525   0.477   5.002   2.850 -0.4007  1.1653 -0.9543
 6678TIP3    H241526   0.547   5.078   2.739  1.8317 -0.7846 -0.9491
 6679TIP3   OH241527   2.991   5.186   3.809  0.2261  0.5489  0.4193
 6679TIP3    H141528   2.984   5.224   3.897 -2.2042  0.4876  0.3281
 6679TIP3    H241529   2.908   5.140   3.796  0.4769  0.6233 -1.9564
 6680TIP3   OH241530   0.627   5.334  16.528 -0.1847  0.1617 -0.5210
 6680TIP3    H141531   0.547   5.340  16.476 -0.6831 -4.5456 -0.7860
 6680TIP3    H241532   0.695   5.313  16.465  0.8045  1.6435  0.0000
 6681TIP3   OH241533   0.109   0.419   2.157  0.0934 -0.0759  0.3270
 6681TIP3    H141534   0.113   0.331   2.195  1.0574 -1.6260 -2.9514
 6681TIP3    H241535   0.034   0.416   2.098 -0.6266  1.7821  1.0930
 6682TIP3   OH241536   1.149   3.235  17.166  0.1174  0.1269  0.2319
 6682TIP3    H141537   1.205   3.191  17.231 -0.1829  0.6424  0.8533
 6682TIP3    H241538   1.094   3.165  17.131  0.9854 -0.3438 -0.2182
 6683TIP3   OH241539   4.462   0.136   5.280  0.5580 -0.2706  0.6988
 6683TIP3    H141540   4.554   0.127   5.257  0.6862  0.2087  0.9942
 6683TIP3    H241541   4.461   0.132   5.376  0.2923 -0.1314  0.7027
 6684TIP3   OH241542   0.490   6.002  14.052  0.1356 -0.1771 -0.9685
 6684TIP3    H141543   0.496   6.092  14.021  1.4042 -0.2261 -0.9094
 6684TIP3    H241544   0.406   5.998  14.099 -0.2243  0.7919 -1.4961
 6685TIP3   OH241545   5.661   3.092   2.471 -0.0872  0.0161 -0.0116
 6685TIP3    H141546   5.693   3.182   2.476  1.1583 -0.4820  2.4764
 6685TIP3    H241547   5.738   3.040   2.448 -0.5190 -0.5572 -0.2058
 6686TIP3   OH241548   0.207   1.080   3.866  0.9149  0.4273 -0.1481
 6686TIP3    H141549   0.288   1.107   3.908 -0.1857  2.0514  1.0548
 6686TIP3    H241550   0.175   1.158   3.821  0.7553 -0.5922 -1.9083
 6687TIP3   OH241551   3.989   3.488   2.075 -0.3458 -0.3312 -0.7649
 6687TIP3    H141552   4.063   3.481   2.136 -1.9883  0.7502  1.5348
 6687TIP3    H241553   3.966   3.398   2.054  0.1711 -0.7521  0.4040
 6688TIP3   OH241554   1.783   1.101   3.446  0.5576  0.1564  0.0021
 6688TIP3    H141555   1.870   1.122   3.413  1.2670 -0.2231  1.5652
 6688TIP3    H241556   1.759   1.175   3.500 -1.1538  1.3791 -2.2410
 6689TIP3   OH241557   5.530   1.605  14.508  0.1759  0.4086  0.0201
 6689TIP3    H141558   5.492   1.564  14.586 -2.1178  1.2118 -0.6184
 6689TIP3    H241559   5.625   1.593  14.519 -0.2455 -3.3008  0.7860
 6690TIP3   OH241560   0.252   5.619  11.448  0.1026  0.2334  0.5251
 6690TIP3    H141561   0.247   5.524  11.438  0.0436  0.2596  0.3033
 6690TIP3    H241562   0.346   5.638  11.449  0.1142  0.1788  0.4977
 6691TIP3   OH241563   2.869   3.002  12.261 -0.3169  0.3431  0.1551
 6691TIP3    H141564   2.836   2.913  12.247  0.4527 -0.4158  2.5796
 6691TIP3    H241565   2.825   3.031  12.342  2.2823  0.6205  1.5539
 6692TIP3   OH241566   3.661   2.131   6.204  0.1970 -0.0641  0.1239
 6692TIP3    H141567   3.726   2.066   6.178  1.4404  1.1104  0.1596
 6692TIP3    H241568   3.599   2.083   6.258  0.9472 -1.2581 -0.0466
 6693TIP3   OH241569   1.556   5.354   1.576  0.0783 -0.1616  0.3668
 6693TIP3    H141570   1.469   5.318   1.597 -0.1611  1.4437  2.4784
 6693TIP3    H241571   1.548   5.447   1.593  2.0049  0.1628 -0.2510
 6694TIP3   OH241572   3.761   1.541   1.689  0.9193 -0.0982  0.3412
 6694TIP3    H141573   3.823   1.518   1.620  0.2096 -1.4574  0.1038
 6694TIP3    H241574   3.769   1.636   1.698  1.8454 -0.0370 -0.8119
 6695TIP3   OH241575   3.378   0.668   1.451 -0.3868 -0.1910  0.0610
 6695TIP3    H141576   3.446   0.617   1.407 -0.1772  0.1043  0.0381
 6695TIP3    H241577   3.298   0.617   1.439 -0.5330  0.3610 -1.5467
 6696TIP3   OH241578   2.416   1.540  13.758  0.0683 -0.1400 -0.1244
 6696TIP3    H141579   2.477   1.478  13.716  1.4953  0.0950  1.4845
 6696TIP3    H241580   2.447   1.626  13.729  0.1396 -0.0487  0.2201
 6697TIP3   OH241581   2.320   2.979   0.258 -0.2514 -0.6327 -0.1999
 6697TIP3    H141582   2.291   3.015   0.175  0.9320 -1.0928 -0.8389
 6697TIP3    H241583   2.274   2.896   0.266 -0.1544 -0.7204 -0.5427
 6698TIP3   OH241584   3.998   6.642   5.477 -0.4271 -0.2869  0.1848
 6698TIP3    H141585   3.909   6.662   5.450 -0.7383 -2.2140 -0.4016
 6698TIP3    H241586   4.033   6.590   5.404  0.6829 -0.7573  1.0322
 6699TIP3   OH241587   5.980   1.917   2.786 -0.1150  0.6280  0.1830
 6699TIP3    H141588   6.070   1.930   2.758 -0.8257 -0.9338 -3.3667
 6699TIP3    H241589   5.935   1.999   2.763 -0.2546  0.1258 -1.4304
 6700TIP3   OH241590   3.023   1.312  12.955  0.5790  0.0898 -0.0039
 6700TIP3    H141591   3.077   1.291  13.031  1.2291  0.7703 -0.2633
 6700TIP3    H241592   2.990   1.400  12.972 -0.7026 -0.4400  0.2851
 6701TIP3   OH241593   0.814   5.952  14.751 -0.4829  0.5336  0.4007
 6701TIP3    H141594   0.766   5.933  14.670 -1.1389 -0.0611  0.9117
 6701TIP3    H241595   0.745   5.967  14.816  0.0052  2.6621  0.5033
 6702TIP3   OH241596   3.567   2.331   1.975 -0.6502  0.5675  0.7923
 6702TIP3    H141597   3.550   2.267   1.906  1.1316  1.5840 -0.7180
 6702TIP3    H241598   3.634   2.291   2.030  0.4405  1.0754 -0.1328
 6703TIP3   OH241599   0.882   2.260  15.889 -0.0788  0.4938  0.0251
 6703TIP3    H141600   0.907   2.350  15.868  0.6950  0.1768 -0.4470
 6703TIP3    H241601   0.924   2.242  15.973 -1.1792  0.9433  0.6982
 6704TIP3   OH241602   6.167   4.915  14.826  0.3568 -0.8151  0.0468
 6704TIP3    H141603   6.209   4.994  14.858  0.6114 -0.0311 -2.0708
 6704TIP3    H241604   6.233   4.846  14.835  0.6439 -0.4754  0.5397
 6705TIP3   OH241605   1.773   5.227  12.084  0.4539 -0.5267  0.0902
 6705TIP3    H141606   1.782   5.217  11.989  0.8612 -0.3514  0.1065
 6705TIP3    H241607   1.783   5.321  12.100  0.8882 -0.6161  0.3555
 6706TIP3   OH241608   0.754   3.024  16.159 -0.5912 -0.3821  0.3905
 6706TIP3    H141609   0.767   3.115  16.134  0.1770 -0.8141 -0.8629
 6706TIP3    H241610   0.659   3.012  16.156 -0.6477  0.1784 -0.1548
 6707TIP3   OH241611   6.053   6.694   3.668  0.4904 -0.1495  0.0114
 6707TIP3    H141612   6.135   6.727   3.632  1.3428  0.0542  2.0267
 6707TIP3    H241613   6.034   6.752   3.743 -0.7132 -1.0842  0.4696
 6708TIP3   OH241614   4.980   0.695  11.539  0.3339 -0.4782 -0.6705
 6708TIP3    H141615   4.959   0.603  11.525 -2.1516  0.2829 -2.8321
 6708TIP3    H241616   4.895   0.737  11.554  1.2979  1.6043 -0.6723
 6709TIP3   OH241617   0.584   4.382  16.486  0.4099 -0.4477 -0.0235
 6709TIP3    H141618   0.650   4.451  16.491 -1.1711  1.1673 -0.5538
 6709TIP3    H241619   0.622   4.318  16.425  3.5408 -2.0621  3.2040
 6710TIP3   OH241620   5.805   2.610   1.313 -0.2017 -0.4755 -0.3518
 6710TIP3    H141621   5.790   2.646   1.225 -0.7818 -2.7504 -1.2426
 6710TIP3    H241622   5.796   2.516   1.302  2.9140 -1.1222  1.5478
 6711TIP3   OH241623   1.920   0.932  13.511  0.6232 -0.2962  0.3276
 6711TIP3    H141624   1.951   0.950  13.599 -1.7234  1.1231  0.9563
 6711TIP3    H241625   1.836   0.888  13.523  0.1914  0.0364 -1.1931
 6712TIP3   OH241626   5.421   5.197   1.980  0.4218  0.1331 -0.3033
 6712TIP3    H141627   5.433   5.109   1.945  1.9185 -0.9654  2.6258
 6712TIP3    H241628   5.330   5.200   2.008 -0.1273  0.1980 -2.0244
 6713TIP3   OH241629   0.067   1.565   2.570  0.4305 -0.2088  0.0205
 6713TIP3    H141630   0.069   1.487   2.515 -1.2709 -0.6629  0.5618
 6713TIP3    H241631   0.097   1.535   2.656  0.2940 -0.1368  0.0932
 6714TIP3   OH241632   4.795   3.865   3.962 -0.6058  0.2877 -0.5247
 6714TIP3    H141633   4.816   3.936   4.023 -0.4273 -0.8228  0.7532
 6714TIP3    H241634   4.734   3.809   4.010 -0.0178 -0.9320 -1.1474
 6715TIP3   OH241635   0.418   2.314   2.836 -0.0494 -0.6747 -0.1800
 6715TIP3    H141636   0.466   2.390   2.869  0.0939 -0.8675  0.0617
 6715TIP3    H241637   0.334   2.316   2.882  0.3313 -1.2092  0.5670
 6716TIP3   OH241638   5.059   0.523   0.591 -0.0957 -0.5198  0.2857
 6716TIP3    H141639   5.057   0.440   0.544 -0.5290 -1.5232  1.9958
 6716TIP3    H241640   4.993   0.577   0.547 -0.8488 -1.6118  0.0518
 6717TIP3   OH241641   0.989   3.383   4.108 -0.1475 -0.0182 -0.3856
 6717TIP3    H141642   0.945   3.301   4.090 -0.1088  0.0115 -0.6106
 6717TIP3    H241643   1.015   3.376   4.200  1.1036 -0.8455 -0.7773
 6718TIP3   OH241644   1.893   4.716   3.321  0.3922  0.3920  0.2210
 6718TIP3    H141645   1.808   4.732   3.362  0.0175 -0.3731 -0.2432
 6718TIP3    H241646   1.892   4.768   3.241  1.1783  1.9968  1.2047
 6719TIP3   OH241647   3.901   3.167   2.667  0.9130 -0.0048  0.5273
 6719TIP3    H141648   3.951   3.124   2.598  1.3935  0.5602  0.5088
 6719TIP3    H241649   3.810   3.142   2.651  0.9559  0.5377 -0.6287
 6720TIP3   OH241650   2.825   6.362  14.016  0.1354  0.6192  0.0651
 6720TIP3    H141651   2.811   6.443  13.968 -0.7804 -0.3797 -1.4493
 6720TIP3    H241652   2.804   6.293  13.953  1.5542 -0.8179  1.0858
 6721TIP3   OH241653   1.718   0.084   6.330 -0.3959 -0.0020  0.0482
 6721TIP3    H141654   1.658   0.146   6.288  0.4448  1.6234  1.1581
 6721TIP3    H241655   1.794   0.081   6.272  0.2013  1.2233  0.7193
 6722TIP3   OH241656   3.142   5.655  14.048 -0.4472  0.9242 -0.0059
 6722TIP3    H141657   3.174   5.737  14.011  1.9743  0.1782  0.2784
 6722TIP3    H241658   3.179   5.652  14.136 -2.9482  0.8445  1.1490
 6723TIP3   OH241659   4.807   6.001   0.661 -0.0544  0.2455  0.3847
 6723TIP3    H141660   4.828   5.910   0.680 -0.2784 -0.0108 -0.5608
 6723TIP3    H241661   4.725   5.998   0.612  1.2987  0.7153 -2.0991
 6724TIP3   OH241662   5.891   2.697  16.380  0.4738 -0.2093 -0.2209
 6724TIP3    H141663   5.836   2.665  16.451 -0.7532 -0.1432 -1.1125
 6724TIP3    H241664   5.963   2.742  16.424  0.2739 -1.0234  0.9852
 6725TIP3   OH241665   6.279   2.047   4.904  0.2355  0.1383 -0.6963
 6725TIP3    H141666   6.190   2.072   4.927 -0.1857 -2.6142  1.1559
 6725TIP3    H241667   6.335   2.099   4.963 -0.1285  1.3973 -1.4240
 6726TIP3   OH241668   2.716   3.733   2.299  0.4399  0.1969  0.2758
 6726TIP3    H141669   2.775   3.808   2.305 -0.6290  1.0936  0.0180
 6726TIP3    H241670   2.741   3.675   2.371  3.2458 -0.6759 -1.2739
 6727TIP3   OH241671   3.304   1.469   0.812  0.0014  0.2150  0.7148
 6727TIP3    H141672   3.272   1.537   0.752 -2.8181 -0.9185  0.7738
 6727TIP3    H241673   3.243   1.396   0.801  2.1395 -1.8549  1.6079
 6728TIP3   OH241674   4.165   4.105   5.462  0.5084 -0.3806 -0.4558
 6728TIP3    H141675   4.161   4.098   5.557 -0.3089 -1.9755 -0.5606
 6728TIP3    H241676   4.092   4.162   5.439  0.6919 -0.0132 -0.1349
 6729TIP3   OH241677   2.083   0.878   5.976  0.0397  0.1545 -0.1769
 6729TIP3    H141678   2.088   0.853   5.884 -0.2878  1.6367 -0.6123
 6729TIP3    H241679   2.116   0.801   6.023 -1.7352 -1.4345 -1.3948
 6730TIP3   OH241680   3.760   1.253   4.247  0.6095 -0.4710  0.5606
 6730TIP3    H141681   3.831   1.264   4.183 -1.7200  0.3145 -2.1483
 6730TIP3    H241682   3.702   1.187   4.207  0.0253 -1.4411  2.8854
 6731TIP3   OH241683   0.541   4.113   4.783  0.5183 -0.1781 -0.7682
 6731TIP3    H141684   0.550   4.166   4.862 -0.7833  1.7764 -1.8637
 6731TIP3    H241685   0.449   4.121   4.759  0.8108 -1.0454 -2.2840
 6732TIP3   OH241686   0.655   5.370   1.771 -0.6172  0.7354 -0.1293
 6732TIP3    H141687   0.619   5.309   1.707 -0.9502  0.0698  0.6708
 6732TIP3    H241688   0.674   5.449   1.721  1.2373 -0.4969 -1.5074
 6733TIP3   OH241689   0.572   4.218  15.735 -0.5605 -0.2439  0.4171
 6733TIP3    H141690   0.524   4.258  15.808  1.1479  0.7003  1.0746
 6733TIP3    H241691   0.512   4.226  15.660 -1.0760  1.7652  0.9821
 6734TIP3   OH241692   6.813   4.852  11.498 -0.0333  0.6286 -0.1217
 6734TIP3    H141693   6.896   4.808  11.479  0.4707  1.8358 -0.8494
 6734TIP3    H241694   6.800   4.911  11.424 -0.9736  1.2665  0.5360
 6735TIP3   OH241695   1.824   3.164   3.258  0.9757 -0.1932 -0.3502
 6735TIP3    H141696   1.901   3.109   3.265  0.4022 -1.0024 -0.2931
 6735TIP3    H241697   1.758   3.109   3.216  0.5654  0.6349 -0.8369
 6736TIP3   OH241698   5.227   2.750  15.453  0.2518 -0.2435 -0.4379
 6736TIP3    H141699   5.144   2.720  15.417  0.1796 -0.9513  0.2895
 6736TIP3    H241700   5.203   2.795  15.534  0.6223 -1.0415  0.1254
 6737TIP3   OH241701   5.685   6.454  14.375 -0.9022  0.3672  0.1315
 6737TIP3    H141702   5.682   6.459  14.280 -1.5130  1.8315  0.1998
 6737TIP3    H241703   5.775   6.426  14.395 -0.9937 -0.7120 -0.8719
 6738TIP3   OH241704   3.967   2.987  17.134  0.6292  0.5514 -0.0821
 6738TIP3    H141705   3.962   2.987  17.229 -0.4391  1.9076 -0.0949
 6738TIP3    H241706   3.899   2.926  17.106  0.9109  0.1896  0.0161
 6739TIP3   OH241707   0.127   2.528   5.100 -0.0225 -0.0026 -0.6075
 6739TIP3    H141708   0.138   2.494   5.011  2.5070  0.2461 -0.4640
 6739TIP3    H241709   0.152   2.620   5.094 -0.2115  0.1162  0.2845
 6740TIP3   OH241710   1.978   0.470  17.134 -0.4302  0.5149  0.0831
 6740TIP3    H141711   2.074   0.466  17.134 -0.4538 -0.1571 -0.5470
 6740TIP3    H241712   1.958   0.560  17.107  0.0168  0.6557  0.2040
 6741TIP3   OH241713   5.662   1.157  14.100 -1.0845  0.1841 -0.1519
 6741TIP3    H141714   5.569   1.162  14.081 -0.8335  0.8897 -1.3301
 6741TIP3    H241715   5.701   1.121  14.020 -0.1940  1.2017 -0.2001
 6742TIP3   OH241716   1.403   6.209   1.978 -0.0718  0.6230 -0.1558
 6742TIP3    H141717   1.471   6.222   1.912  1.9564  1.2965  1.9117
 6742TIP3    H241718   1.327   6.178   1.929  0.9796  2.0656 -2.8897
 6743TIP3   OH241719   0.251   5.463   0.501  0.6353  0.2694 -1.2772
 6743TIP3    H141720   0.210   5.489   0.419  1.8518  1.2205 -1.6207
 6743TIP3    H241721   0.271   5.545   0.545  0.3747 -0.2250 -0.2168
 6744TIP3   OH241722   3.235   0.149  13.385  0.0618 -0.0404  0.2285
 6744TIP3    H141723   3.154   0.102  13.403  0.2678 -0.6923 -0.4799
 6744TIP3    H241724   3.215   0.202  13.309  0.1270  0.2542  0.4176
 6745TIP3   OH241725   1.785   0.321   5.708 -0.1449 -0.1044 -0.3201
 6745TIP3    H141726   1.808   0.270   5.631 -0.7604 -2.3799  0.9041
 6745TIP3    H241727   1.782   0.411   5.678 -0.7675 -0.9573 -3.0345
 6746TIP3   OH241728   4.867   3.271  16.578  0.0088  0.4605  0.1531
 6746TIP3    H141729   4.876   3.317  16.495 -2.1441  1.8268  0.6010
 6746TIP3    H241730   4.918   3.323  16.640  0.9718 -0.1240 -0.1248
 6747TIP3   OH241731   0.995   4.546   1.946  0.2757 -0.4110 -0.2234
 6747TIP3    H141732   1.055   4.576   1.877  0.8863  1.0022  0.8889
 6747TIP3    H241733   0.920   4.511   1.898  0.1879  1.5581 -1.6369
 6748TIP3   OH241734   5.554   0.643   3.204 -0.4317  0.3599 -0.6930
 6748TIP3    H141735   5.587   0.677   3.120 -2.4441  0.3546 -1.5271
 6748TIP3    H241736   5.565   0.717   3.264  2.5922 -0.1463 -0.4291
 6749TIP3   OH241737   4.201   1.604   0.992  0.4479 -0.6807  0.0799
 6749TIP3    H141738   4.210   1.664   0.919 -0.2498 -0.4976  0.1334
 6749TIP3    H241739   4.219   1.657   1.070  0.2350 -0.6400  0.1015
 6750TIP3   OH241740   2.420   4.540  11.175 -0.2343 -0.1329  0.0533
 6750TIP3    H141741   2.498   4.521  11.123 -0.7905  0.2146 -0.9336
 6750TIP3    H241742   2.405   4.633  11.162 -0.7989 -0.1935  0.2434
 6751TIP3   OH241743   4.978   5.011  10.649  0.3644  0.1365 -0.3637
 6751TIP3    H141744   5.016   5.094  10.678 -1.9101  0.9308  0.5969
 6751TIP3    H241745   4.884   5.022  10.660 -0.2553 -1.5689 -2.9866
 6752TIP3   OH241746   5.792   2.663   3.668  0.2844  0.2501 -0.2369
 6752TIP3    H141747   5.870   2.705   3.632  0.4100  0.6080  0.4260
 6752TIP3    H241748   5.761   2.724   3.735  0.4024 -0.6469  0.6658
 6753TIP3   OH241749   2.549   3.754  15.891  0.0940  0.0259  0.4403
 6753TIP3    H141750   2.591   3.735  15.975  0.7598  0.6233  0.2417
 6753TIP3    H241751   2.612   3.725  15.825  0.9378  2.3887  0.1210
 6754TIP3   OH241752   3.377   2.936   1.840  0.0406  0.5849  0.2987
 6754TIP3    H141753   3.318   3.008   1.861 -4.0658 -2.2710 -0.4093
 6754TIP3    H241754   3.359   2.915   1.749  1.1237 -1.3264  0.4753
 6755TIP3   OH241755   3.507   3.669   1.412  0.3301 -0.2721  0.0607
 6755TIP3    H141756   3.430   3.665   1.356  0.7561 -1.5643 -0.4666
 6755TIP3    H241757   3.476   3.711   1.492 -0.3310  1.4327 -1.0323
 6756TIP3   OH241758   3.605   1.146   5.744  0.6349 -0.2931 -0.6771
 6756TIP3    H141759   3.517   1.132   5.711 -0.2183 -1.3595  1.8020
 6756TIP3    H241760   3.662   1.100   5.683 -0.5422  0.1265 -2.1300
 6757TIP3   OH241761   3.883   3.160  14.491 -0.0647 -0.2148 -0.0137
 6757TIP3    H141762   3.890   3.065  14.489  0.0148 -0.2468  1.1808
 6757TIP3    H241763   3.830   3.182  14.414  0.5257 -1.1567 -0.7162
 6758TIP3   OH241764   4.194   0.533   4.005 -0.4243 -0.0502 -0.0084
 6758TIP3    H141765   4.111   0.581   3.997 -0.7039 -0.0722  2.1303
 6758TIP3    H241766   4.261   0.596   3.980 -1.0249  0.3000 -0.7542
 6759TIP3   OH241767   3.606   1.334  13.188 -0.2133 -0.7461 -0.6149
 6759TIP3    H141768   3.542   1.312  13.256 -0.5738 -0.5440 -0.8886
 6759TIP3    H241769   3.574   1.416  13.150  0.0316 -0.8161 -0.9750
 6760TIP3   OH241770   6.433   0.610   0.708  0.2240 -0.3848  0.1196
 6760TIP3    H141771   6.463   0.545   0.772 -0.3296  0.0448  0.8413
 6760TIP3    H241772   6.510   0.665   0.692 -0.1268  0.7487  2.0031
 6761TIP3   OH241773   3.518   3.108   6.038 -1.0776 -0.0851  0.1947
 6761TIP3    H141774   3.513   3.176   6.105 -2.1502 -0.3799  0.4279
 6761TIP3    H241775   3.593   3.055   6.065  0.9325  1.9874 -0.9770
 6762TIP3   OH241776   3.566   5.411  15.003 -0.0248  0.1159 -0.3489
 6762TIP3    H141777   3.502   5.482  14.991 -0.1027 -0.1194 -1.4697
 6762TIP3    H241778   3.562   5.362  14.921  1.8407  0.2772 -0.5646
 6763TIP3   OH241779   4.726   0.640  16.011 -0.2923 -0.4500  0.0372
 6763TIP3    H141780   4.727   0.671  16.102  0.8977  0.0201 -0.1104
 6763TIP3    H241781   4.746   0.546  16.017  0.3589 -0.3050  0.2387
 6764TIP3   OH241782   0.346   6.202   6.362 -0.6372 -0.3305 -0.2704
 6764TIP3    H141783   0.255   6.209   6.334  0.1766 -0.4295 -3.4218
 6764TIP3    H241784   0.356   6.269   6.429 -2.7984  0.2957 -0.4863
 6765TIP3   OH241785   3.737   3.422   0.706  0.2720  0.3958  0.1266
 6765TIP3    H141786   3.764   3.481   0.777 -0.4973  1.9007 -0.7725
 6765TIP3    H241787   3.817   3.376   0.681  0.7617  0.5902  1.2825
 6766TIP3   OH241788   0.021   0.695   6.634  0.2419  0.1690  0.5966
 6766TIP3    H141789  -0.054   0.684   6.693  0.1583 -0.4114  0.3811
 6766TIP3    H241790   0.091   0.645   6.675 -0.3911 -2.0267 -0.8431
 6767TIP3   OH241791   6.733   1.033   2.607 -0.0813  0.1414  0.1011
 6767TIP3    H141792   6.663   0.968   2.612  2.4657 -2.7711  1.4867
 6767TIP3    H241793   6.720   1.089   2.684 -0.8559 -0.3819  0.3558
 6768TIP3   OH241794   2.579   3.508  16.818  0.3901 -0.0474 -0.1406
 6768TIP3    H141795   2.534   3.455  16.752  0.1576 -0.2527  0.1788
 6768TIP3    H241796   2.652   3.547  16.772  1.6506 -2.0754  0.0101
 6769TIP3   OH241797   4.250   5.878   4.105  0.5587 -0.5115  0.5391
 6769TIP3    H141798   4.199   5.858   4.183  0.2936 -0.5430  0.3613
 6769TIP3    H241799   4.184   5.907   4.041  0.7395 -0.7535  0.2398
 6770TIP3   OH241800   3.210   3.918  11.978  0.3579  0.0211  0.1871
 6770TIP3    H141801   3.147   3.972  11.929 -1.7270  0.6183  3.2126
 6770TIP3    H241802   3.197   3.829  11.945 -4.0350 -0.3513  2.1617
 6771TIP3   OH241803   4.217   0.919   3.239 -0.1344 -0.7911  0.7870
 6771TIP3    H141804   4.204   0.850   3.174 -0.5179 -0.5042  0.5556
 6771TIP3    H241805   4.312   0.926   3.248  0.0406  0.6384 -1.3611
 6772TIP3   OH241806   4.554   1.726  12.844  0.2115  0.5186  0.1721
 6772TIP3    H141807   4.595   1.729  12.931 -1.2492  1.4677  0.8598
 6772TIP3    H241808   4.477   1.671  12.857  0.8427 -0.6986 -0.9504
 6773TIP3   OH241809   1.675   0.260   1.483  0.0510 -0.1274 -0.5134
 6773TIP3    H141810   1.662   0.171   1.516  2.4981 -0.7140 -0.9327
 6773TIP3    H241811   1.714   0.307   1.556 -0.6145  0.4287 -0.5088
 6774TIP3   OH241812   3.895   3.024   2.940 -0.4049  0.3177  0.4932
 6774TIP3    H141813   3.873   3.049   2.850 -1.9237  0.0253  0.7482
 6774TIP3    H241814   3.965   2.960   2.931 -0.5127  0.3245 -0.4861
 6775TIP3   OH241815   0.391   4.932   2.558 -0.2169  0.3682 -0.0740
 6775TIP3    H141816   0.359   4.927   2.648 -0.8437 -1.6591 -0.3511
 6775TIP3    H241817   0.357   5.015   2.525 -0.6239  0.7835  1.3057
 6776TIP3   OH241818   5.900   4.671   1.529  0.0049  0.5362  0.0606
 6776TIP3    H141819   5.898   4.585   1.572 -1.1877  0.3613 -0.3176
 6776TIP3    H241820   5.820   4.674   1.478 -0.4674  2.2683  0.8351
 6777TIP3   OH241821   6.729   5.336   4.416  0.0018  0.2738  0.0970
 6777TIP3    H141822   6.686   5.252   4.400  0.7100  0.1137 -1.0089
 6777TIP3    H241823   6.775   5.323   4.499  0.5794 -0.6365 -0.3467
 6778TIP3   OH241824   5.610   6.124  16.680  0.0426  0.0372 -0.1481
 6778TIP3    H141825   5.568   6.186  16.620 -3.1796 -0.8636  0.9407
 6778TIP3    H241826   5.642   6.178  16.752  0.0760  0.7238 -0.6694
 6779TIP3   OH241827   3.774   5.524   5.963 -0.3489 -0.1113 -0.0797
 6779TIP3    H141828   3.795   5.519   6.057 -1.5625 -0.1852  0.2095
 6779TIP3    H241829   3.852   5.560   5.923 -0.1684  0.8870  1.1014
 6780TIP3   OH241830   4.781   4.305  15.809  0.3256 -0.2377  0.6275
 6780TIP3    H141831   4.717   4.370  15.838 -0.6336  0.1996 -2.1990
 6780TIP3    H241832   4.762   4.292  15.717  2.2661 -2.5518  0.4636
 6781TIP3   OH241833   6.326   2.226   5.457  0.5193  0.3731  0.0911
 6781TIP3    H141834   6.272   2.266   5.525  1.3237 -0.3047  1.1740
 6781TIP3    H241835   6.312   2.280   5.379 -1.3381  0.4703  0.4602
 6782TIP3   OH241836   0.797   1.604   4.941  0.1640 -0.1436  0.5710
 6782TIP3    H141837   0.849   1.543   4.888  1.0640  0.2049  1.0228
 6782TIP3    H241838   0.760   1.665   4.879 -1.2956 -1.5088  0.0262
 6783TIP3   OH241839   4.678   1.677  13.083 -0.3087  0.2187 -0.3368
 6783TIP3    H141840   4.585   1.663  13.100  0.0336  0.5152  2.2776
 6783TIP3    H241841   4.722   1.640  13.161  1.5712  2.3182 -0.3089
 6784TIP3   OH241842   2.661   5.830   0.986 -0.6351 -0.1263 -0.1131
 6784TIP3    H141843   2.608   5.755   0.961 -1.3195  0.0260  0.8295
 6784TIP3    H241844   2.713   5.799   1.060 -1.2085  0.4227  0.5386
 6785TIP3   OH241845   1.728   3.958   0.698  0.2600 -0.5928 -0.3634
 6785TIP3    H141846   1.811   3.910   0.706  0.3020 -0.4954 -0.1832
 6785TIP3    H241847   1.676   3.927   0.772  0.4413 -0.0725 -0.0066
 6786TIP3   OH241848   4.155   3.359   1.589 -0.0977  0.0502  0.1009
 6786TIP3    H141849   4.205   3.438   1.568 -1.1347  1.0352  1.1728
 6786TIP3    H241850   4.064   3.387   1.586 -0.5601 -1.4536 -0.7825
 6787TIP3   OH241851   5.422   2.312  16.909 -0.7824  0.6452  0.2864
 6787TIP3    H141852   5.333   2.325  16.941 -0.4347  2.4429  0.6073
 6787TIP3    H241853   5.431   2.374  16.837  0.4141  0.9524  0.6823
 6788TIP3   OH241854   2.555   4.258   3.627 -0.0176 -0.4744  0.2241
 6788TIP3    H141855   2.648   4.238   3.614 -0.5919 -1.8100 -2.5113
 6788TIP3    H241856   2.524   4.189   3.686  0.9260  0.7799  2.3149
 6789TIP3   OH241857   2.593   0.790  13.593 -0.1820  0.4480  0.3280
 6789TIP3    H141858   2.521   0.835  13.549 -1.2685 -0.6115  0.9881
 6789TIP3    H241859   2.583   0.813  13.685 -0.1252 -0.3157  0.5278
 6790TIP3   OH241860   2.029   6.811   5.735  0.1277  0.6267  0.8348
 6790TIP3    H141861   2.034   6.903   5.712 -1.2757  0.4063 -0.5540
 6790TIP3    H241862   2.112   6.774   5.706  0.0053  1.1432 -0.2028
 6791TIP3   OH241863   5.911   3.859   0.852  0.0110  0.5650 -0.3060
 6791TIP3    H141864   5.843   3.904   0.901  1.7038  2.4574  0.4179
 6791TIP3    H241865   5.902   3.892   0.763  1.6042  2.9529  0.3300
 6792TIP3   OH241866   0.180   3.247  11.470  0.5247  0.4653  0.2154
 6792TIP3    H141867   0.121   3.313  11.435 -0.0836  0.2067  0.7490
 6792TIP3    H241868   0.124   3.187  11.518  1.2417  0.3026  0.8627
 6793TIP3   OH241869   6.028   0.374  14.178  0.9074 -0.5039 -0.0654
 6793TIP3    H141870   6.004   0.419  14.259 -0.9585 -2.6155  0.6672
 6793TIP3    H241871   5.996   0.431  14.109 -1.0417 -0.4306  0.8232
 6794TIP3   OH241872   2.919   3.666   4.332 -0.6739  0.0578  0.1441
 6794TIP3    H141873   2.846   3.620   4.290 -0.0247 -0.8815  0.0140
 6794TIP3    H241874   2.890   3.757   4.338 -0.3318  0.5607 -3.5175
 6795TIP3   OH241875   4.277   4.720   0.769 -0.2359 -0.1971 -0.0124
 6795TIP3    H141876   4.233   4.657   0.826  2.5495 -2.2517  0.1296
 6795TIP3    H241877   4.302   4.792   0.827 -0.0077 -0.8684  0.7459
 6796TIP3   OH241878   0.868   4.660  16.065  0.0737  0.2294 -0.5749
 6796TIP3    H141879   0.779   4.694  16.050 -0.7470 -1.0981  0.9419
 6796TIP3    H241880   0.885   4.605  15.988 -0.5376  0.2722 -0.7503
 6797TIP3   OH241881   2.986   2.231   2.855  0.7359 -0.4790  0.0359
 6797TIP3    H141882   2.986   2.309   2.910 -1.1978 -1.1224  1.0422
 6797TIP3    H241883   3.049   2.172   2.897 -0.3255 -0.7542  1.2957
 6798TIP3   OH241884   1.507   5.063   5.578 -0.0109 -0.3926 -0.2019
 6798TIP3    H141885   1.589   5.031   5.614 -0.1490 -1.1771 -0.5785
 6798TIP3    H241886   1.515   5.052   5.484  0.1589  1.2198 -0.4165
 6799TIP3   OH241887   0.273   0.644   5.138 -0.4229 -0.1788 -0.4486
 6799TIP3    H141888   0.296   0.569   5.083 -2.6730 -0.6184 -0.8653
 6799TIP3    H241889   0.206   0.691   5.089 -1.2890  0.3489  1.1633
 6800TIP3   OH241890   2.935   0.848  13.863  0.0554 -0.6003  0.1757
 6800TIP3    H141891   2.843   0.854  13.887 -0.5555 -0.3176 -2.0711
 6800TIP3    H241892   2.976   0.805  13.938 -2.2221 -2.4009  0.4993
 6801TIP3   OH241893   2.660   1.380   0.286 -0.5079 -0.1600 -0.1072
 6801TIP3    H141894   2.570   1.348   0.294 -0.2058 -0.9858  0.1790
 6801TIP3    H241895   2.703   1.315   0.230  0.2779 -0.6067  0.9754
 6802TIP3   OH241896   3.781   4.094   5.380  0.1634 -0.0711  0.2509
 6802TIP3    H141897   3.767   4.188   5.370  1.9521  0.1515 -0.4405
 6802TIP3    H241898   3.827   4.085   5.464 -0.2149 -0.3583  0.4318
 6803TIP3   OH241899   0.979   4.168   4.849 -0.3399  0.3302  0.1598
 6803TIP3    H141900   0.899   4.206   4.812 -1.8258 -1.5632  1.2579
 6803TIP3    H241901   0.964   4.169   4.944  1.9086  1.9007  0.5880
 6804TIP3   OH241902   1.803   1.384   1.331  0.2278 -0.4391 -0.7629
 6804TIP3    H141903   1.858   1.378   1.409 -1.2474  1.8593  0.5851
 6804TIP3    H241904   1.822   1.470   1.294 -1.7178  0.0409 -0.7756
 6805TIP3   OH241905   4.165   5.741   5.082 -0.4418 -0.2359 -0.3407
 6805TIP3    H141906   4.241   5.695   5.118 -0.7151  0.5673  1.4010
 6805TIP3    H241907   4.197   5.782   5.002  0.7784 -0.5004 -0.0048
 6806TIP3   OH241908   5.130   2.979   4.526 -0.1002  0.3034 -0.1584
 6806TIP3    H141909   5.155   2.892   4.556  0.4941 -0.1679 -1.9011
 6806TIP3    H241910   5.038   2.988   4.551  0.0542 -0.4682  0.7567
 6807TIP3   OH241911   6.806   3.544   2.425 -0.2811  0.4833 -0.3202
 6807TIP3    H141912   6.806   3.630   2.467 -0.9534  0.8774 -1.1076
 6807TIP3    H241913   6.899   3.518   2.425 -0.0657  1.2181 -0.1124
 6808TIP3   OH241914   1.313   6.415   1.796 -0.2537  0.6744 -0.3533
 6808TIP3    H141915   1.368   6.373   1.862 -0.4750  0.9544  0.0103
 6808TIP3    H241916   1.229   6.370   1.803 -0.6643  1.5461  0.4208
 6809TIP3   OH241917   2.537   5.116   4.466 -0.2121 -0.2010 -0.7807
 6809TIP3    H141918   2.557   5.085   4.554 -0.5879 -0.9021 -0.9379
 6809TIP3    H241919   2.441   5.116   4.462 -0.2024  0.2478 -1.0440
 6810TIP3   OH241920   5.781   6.111   0.102 -0.0876 -0.6565 -0.3687
 6810TIP3    H141921   5.717   6.161   0.051 -1.2477 -2.9221 -1.2518
 6810TIP3    H241922   5.741   6.102   0.188  0.8360  1.1737  0.3175
 6811TIP3   OH241923   0.293   0.186   3.297 -0.2989 -0.8482  0.0512
 6811TIP3    H141924   0.216   0.213   3.346 -0.2185 -0.0791 -0.2323
 6811TIP3    H241925   0.285   0.231   3.213  1.3870  0.7196  0.6787
 6812TIP3   OH241926   4.058   3.874  13.755 -0.1727  0.1827  0.4845
 6812TIP3    H141927   3.992   3.860  13.687  0.6707 -1.2564 -0.0771
 6812TIP3    H241928   4.010   3.913  13.828 -1.5204 -0.2848 -0.1211
 6813TIP3   OH241929   3.054   6.377  12.129  0.2338  0.2680 -0.3187
 6813TIP3    H141930   2.968   6.335  12.135 -0.7789  2.3397  0.6292
 6813TIP3    H241931   3.066   6.394  12.036 -0.3854 -0.0359 -0.4581
 6814TIP3   OH241932   1.282   1.236   5.138 -0.6353  0.2728  0.3372
 6814TIP3    H141933   1.215   1.169   5.152  0.9884 -1.9570 -1.8070
 6814TIP3    H241934   1.273   1.262   5.047  1.1848  0.1371  0.0760
 6815TIP3   OH241935   5.882   5.757   5.645  0.2797 -0.4359 -0.0721
 6815TIP3    H141936   5.877   5.732   5.738  1.8708  0.1667  0.2151
 6815TIP3    H241937   5.863   5.676   5.597  0.0526 -0.9043  0.7855
 6816TIP3   OH241938   4.986   0.815   0.203 -0.1931  0.5687 -0.0632
 6816TIP3    H141939   5.065   0.868   0.211  0.3013  0.1408 -1.7182
 6816TIP3    H241940   5.004   0.755   0.130 -1.8756  0.1800 -0.2098
 6817TIP3   OH241941   5.445   4.366   0.461  0.1397 -0.1949 -0.0551
 6817TIP3    H141942   5.528   4.407   0.436  0.8651  0.2950  2.8292
 6817TIP3    H241943   5.470   4.281   0.497 -0.6332 -0.1398  0.6303
 6818TIP3   OH241944   5.517   4.741  11.329 -0.0972 -0.4818  0.4753
 6818TIP3    H141945   5.568   4.819  11.305 -0.7225 -0.6310 -1.4300
 6818TIP3    H241946   5.556   4.670  11.278 -1.0456 -0.9505  0.3986
 6819TIP3   OH241947   1.961   1.000  14.140  0.6644  0.2982 -0.2277
 6819TIP3    H141948   1.961   1.013  14.235 -1.5297 -0.6831 -0.0410
 6819TIP3    H241949   1.883   0.948  14.122  2.0789 -1.2920 -2.3669
 6820TIP3   OH241950   3.732   0.909   0.430 -0.5891 -0.5284 -0.4439
 6820TIP3    H141951   3.715   0.961   0.351  2.4559  2.1078  0.4087
 6820TIP3    H241952   3.695   0.960   0.501  0.4747 -0.6133  0.2011
 6821TIP3   OH241953   3.172   6.689   5.892 -0.0636  0.6823 -0.2387
 6821TIP3    H141954   3.236   6.626   5.859 -0.6385 -0.3883  0.6226
 6821TIP3    H241955   3.225   6.756   5.935  0.5221  0.2787 -0.3105
 6822TIP3   OH241956   3.832   1.668  14.032  0.6113  0.4851 -0.7315
 6822TIP3    H141957   3.759   1.611  14.056 -0.7514  1.3724 -2.5569
 6822TIP3    H241958   3.869   1.696  14.116 -0.6564 -0.5768  0.2177
 6823TIP3   OH241959   3.427   0.387   2.358  0.2942 -0.5767  0.1570
 6823TIP3    H141960   3.338   0.365   2.330 -0.4633 -0.5053  2.3242
 6823TIP3    H241961   3.476   0.306   2.346 -0.1929 -0.7930 -0.4800
 6824TIP3   OH241962   0.714   5.227   6.012  0.3251 -0.0680 -0.2544
 6824TIP3    H141963   0.706   5.135   5.984 -0.4134 -0.1595  0.2365
 6824TIP3    H241964   0.793   5.228   6.065 -0.0980 -0.6025  0.4096
 6825TIP3   OH241965   0.710   1.479  15.172  0.3246  0.3053  0.2427
 6825TIP3    H141966   0.782   1.437  15.219 -1.6333 -1.3881  1.9007
 6825TIP3    H241967   0.728   1.460  15.080  1.7879 -0.4094  0.6432
 6826TIP3   OH241968   6.305   1.919  12.239 -0.1326 -0.3865 -0.1981
 6826TIP3    H141969   6.358   1.946  12.164  0.2513  1.6697  0.7349
 6826TIP3    H241970   6.367   1.880  12.300 -0.0959 -0.1378 -0.0773
 6827TIP3   OH241971   2.988   2.935   0.696 -0.1991  1.0297  0.2235
 6827TIP3    H141972   2.905   2.887   0.700 -0.0291  0.7388  0.2322
 6827TIP3    H241973   2.997   2.975   0.782  1.1671 -1.4258  1.3080
 6828TIP3   OH241974   2.263   1.747  11.362 -0.2450 -0.4407 -0.7051
 6828TIP3    H141975   2.169   1.746  11.381 -0.4260  0.2039 -1.5141
 6828TIP3    H241976   2.270   1.789  11.277  0.8276  0.0210 -0.4066
 6829TIP3   OH241977   0.115   5.846   1.279 -0.4554 -0.5452 -0.1896
 6829TIP3    H141978   0.135   5.931   1.239 -0.6135 -0.1895  0.4739
 6829TIP3    H241979   0.168   5.783   1.230 -1.0847 -0.2063 -1.3431
 6830TIP3   OH241980   6.239   0.700  12.885 -0.3980  0.4549  0.2350
 6830TIP3    H141981   6.198   0.787  12.880 -2.6666 -0.4067  1.9061
 6830TIP3    H241982   6.195   0.649  12.817  0.6350  0.4583 -0.4627
 6831TIP3   OH241983   6.724   2.474  14.192  0.0981 -0.7142 -0.2007
 6831TIP3    H141984   6.702   2.554  14.145  0.9622  0.6225  1.5343
 6831TIP3    H241985   6.778   2.503  14.265 -0.1010 -2.8195  0.8830
 6832TIP3   OH241986   0.764   1.970  12.847  0.4417  0.6324  0.1664
 6832TIP3    H141987   0.795   2.057  12.871 -3.3407  1.4612  3.0641
 6832TIP3    H241988   0.778   1.917  12.925  0.1048 -0.5760 -0.5677
 6833TIP3   OH241989   4.929   1.002   3.582 -0.0059  0.1829  0.4091
 6833TIP3    H141990   4.919   0.963   3.495  0.8620 -1.0723  0.8352
 6833TIP3    H241991   4.993   0.945   3.626 -0.8864  0.4173  2.0794
 6834TIP3   OH241992   5.587   0.092  11.013  0.2305 -0.0414  0.3402
 6834TIP3    H141993   5.524   0.141  10.960  0.6749 -0.0708 -0.2306
 6834TIP3    H241994   5.659   0.154  11.028  0.4768 -0.2893  0.2063
 6835TIP3   OH241995   1.488   4.165   3.535 -0.1916  0.2887 -0.2558
 6835TIP3    H141996   1.559   4.124   3.487  1.2014  1.1859  0.9404
 6835TIP3    H241997   1.478   4.111   3.614 -0.0511  0.7849  0.1114
 6836TIP3   OH241998   4.933   6.700  13.839 -0.1563 -0.2568  0.1123
 6836TIP3    H141999   4.910   6.749  13.919 -0.5485  1.7986 -1.1872
 6836TIP3    H242000   4.975   6.765  13.783 -0.2709 -1.5622 -1.5453
 6837TIP3   OH242001   2.357   4.307   3.336 -0.4531  0.2167 -0.6965
 6837TIP3    H142002   2.365   4.225   3.385 -1.8296  0.0177 -0.7809
 6837TIP3    H242003   2.343   4.374   3.404  0.5583  0.3820 -0.6356
 6838TIP3   OH242004   5.313   0.654   4.236  0.1607  0.0707  0.2975
 6838TIP3    H142005   5.358   0.727   4.194 -1.8513  1.2260  0.0158
 6838TIP3    H242006   5.382   0.593   4.259  1.8505  1.7562 -0.0767
 6839TIP3   OH242007   1.676   1.420  11.620  0.7236 -0.4876  0.1704
 6839TIP3    H142008   1.758   1.404  11.668  0.8843 -1.3977 -0.3907
 6839TIP3    H242009   1.671   1.349  11.557  1.1986  1.3974 -2.1184
 6840TIP3   OH242010   1.145   2.961   6.013 -0.1274 -0.9207 -0.1512
 6840TIP3    H142011   1.240   2.969   6.012  0.3273 -3.3853  3.1921
 6840TIP3    H242012   1.113   3.047   6.042  1.0005  0.0039 -1.5499
 6841TIP3   OH242013   2.095   6.688   0.493  0.1552  0.3782 -0.2755
 6841TIP3    H142014   2.145   6.658   0.569 -0.6564 -1.1597 -0.3104
 6841TIP3    H242015   2.051   6.767   0.523  0.3104  0.1154  0.6758
 6842TIP3   OH242016   1.387   5.991  16.584 -0.5546 -0.6423 -0.7707
 6842TIP3    H142017   1.303   6.035  16.596  0.5001  1.2310  0.0701
 6842TIP3    H242018   1.393   5.977  16.490 -1.3439  0.1679 -0.9557
 6843TIP3   OH242019   2.084   4.559   1.326 -0.6743  0.0758 -0.1684
 6843TIP3    H142020   2.173   4.559   1.291 -0.6041 -1.4593 -0.0911
 6843TIP3    H242021   2.095   4.571   1.421 -0.5061 -0.4129 -0.1197
 6844TIP3   OH242022   3.170   2.403  15.084 -0.2607  0.7669  0.2797
 6844TIP3    H142023   3.189   2.413  15.177  1.8944 -1.5885  0.1772
 6844TIP3    H242024   3.235   2.459  15.040 -0.4631  0.8990  0.1449
 6845TIP3   OH242025   6.288   2.394   6.291 -0.2289  0.2000  0.4215
 6845TIP3    H142026   6.240   2.318   6.259  0.4049  0.5689 -1.5614
 6845TIP3    H242027   6.353   2.358   6.351 -1.1327 -0.5941  0.9572
 6846TIP3   OH242028   0.563   3.982  15.509 -0.1831 -0.1933  0.0164
 6846TIP3    H142029   0.535   3.970  15.600 -0.1727 -0.2878  0.0079
 6846TIP3    H242030   0.489   4.026  15.467 -1.0846 -2.0263 -0.4412
 6847TIP3   OH242031   5.188   1.760   1.063  0.1346  0.1805  0.2062
 6847TIP3    H142032   5.168   1.690   1.001  0.8798 -0.8705  1.1060
 6847TIP3    H242033   5.154   1.728   1.147  1.0434  0.6188  0.7596
 6848TIP3   OH242034   3.159   2.474   3.887  0.3091 -0.3482 -0.3670
 6848TIP3    H142035   3.168   2.417   3.811  1.6649  1.4936 -1.6683
 6848TIP3    H242036   3.088   2.534   3.864 -2.3544 -2.4167  1.7064
 6849TIP3   OH242037   5.857   5.190  14.636 -0.1232 -0.0519  0.2949
 6849TIP3    H142038   5.879   5.101  14.661 -1.7793 -0.2674  1.1029
 6849TIP3    H242039   5.926   5.244  14.675  1.8067 -1.0497 -1.5372
 6850TIP3   OH242040   0.953   5.325   3.745  0.0464 -0.3149 -0.2735
 6850TIP3    H142041   0.901   5.258   3.789 -0.5814 -0.2367 -0.8884
 6850TIP3    H242042   0.986   5.282   3.666  1.2726 -0.4943  0.3091
 6851TIP3   OH242043   1.069   0.764  14.045  0.7708  0.3352  0.1423
 6851TIP3    H142044   1.146   0.707  14.038 -0.4287 -1.5967  1.5536
 6851TIP3    H242045   1.047   0.785  13.954  0.5091 -2.6302 -0.5857
 6852TIP3   OH242046   5.338   1.819  12.126  0.0794 -0.1969 -0.0081
 6852TIP3    H142047   5.430   1.794  12.137 -0.4140 -1.5014  1.4412
 6852TIP3    H242048   5.340   1.915  12.122  1.5870 -0.2322 -1.1300
 6853TIP3   OH242049   2.727   4.859   3.449 -0.4265 -0.0714  1.0568
 6853TIP3    H142050   2.785   4.928   3.417 -0.3154 -0.3721  0.6162
 6853TIP3    H242051   2.780   4.780   3.448 -0.7831 -0.3104  0.8392
 6854TIP3   OH242052   3.161   2.721   2.227  0.4439  0.1352 -0.3555
 6854TIP3    H142053   3.201   2.725   2.140 -0.0697 -1.1124 -0.6640
 6854TIP3    H242054   3.098   2.794   2.228  0.1008 -0.1368 -1.2149
 6855TIP3   OH242055   3.809   3.945  12.665  0.3472 -0.9375 -0.9904
 6855TIP3    H142056   3.818   3.993  12.583 -0.9479 -0.3019 -0.7885
 6855TIP3    H242057   3.873   3.985  12.724 -0.9775  0.8988 -0.6965
 6856TIP3   OH242058   3.900   6.371   4.826 -0.2441 -0.1430 -0.1102
 6856TIP3    H142059   3.814   6.356   4.866 -0.1232  0.8088  0.5286
 6856TIP3    H242060   3.959   6.382   4.900  0.4580 -0.8457 -0.5487
 6857TIP3   OH242061   2.521   5.936   1.192  0.2201 -0.0284  0.2725
 6857TIP3    H142062   2.517   6.030   1.173  1.0462 -0.3111 -1.5010
 6857TIP3    H242063   2.559   5.898   1.113  1.0077 -1.7177  1.4274
 6858TIP3   OH242064   1.438   4.119   4.848 -0.9541 -0.0691  0.0175
 6858TIP3    H142065   1.458   4.131   4.941  0.1313  0.9518 -0.3303
 6858TIP3    H242066   1.488   4.187   4.803 -0.3828 -1.3827 -1.4372
 6859TIP3   OH242067   4.869   4.479  11.050 -0.8151  0.2698  0.4694
 6859TIP3    H142068   4.787   4.527  11.036 -1.0096  0.0160  0.7380
 6859TIP3    H242069   4.928   4.543  11.088 -0.1392  1.1085 -1.8426
 6860TIP3   OH242070   1.397   5.524   2.215  0.5955 -0.5132  0.3557
 6860TIP3    H142071   1.329   5.558   2.273 -1.3302 -0.1117 -1.9736
 6860TIP3    H242072   1.401   5.430   2.235 -0.4015 -0.4811  0.7324
 6861TIP3   OH242073   1.703   4.806   6.478  0.3982  0.0596  0.2819
 6861TIP3    H142074   1.721   4.712   6.483  0.1675 -0.1795 -2.1286
 6861TIP3    H242075   1.779   4.847   6.518  1.9728 -1.1344 -1.2966
 6862TIP3   OH242076   3.462   5.274   5.062 -0.0581  0.1401 -0.0239
 6862TIP3    H142077   3.453   5.278   4.967 -0.1055 -0.8529 -0.0736
 6862TIP3    H242078   3.391   5.217   5.090 -0.7788  1.3662  0.7405
 6863TIP3   OH242079   4.743   3.554  16.373 -0.0506 -0.4003  0.2142
 6863TIP3    H142080   4.673   3.525  16.432  2.1189  0.5128  3.4424
 6863TIP3    H242081   4.701   3.620  16.318 -1.7852  0.0759  1.9836
 6864TIP3   OH242082   3.863   2.597  13.736 -0.0093 -0.4177  0.1280
 6864TIP3    H142083   3.901   2.642  13.812  0.4118  1.4822 -1.1225
 6864TIP3    H242084   3.898   2.509  13.739  0.6970 -0.1050  1.6465
 6865TIP3   OH242085   1.602   4.098  12.784 -0.0044  0.0794 -0.4750
 6865TIP3    H142086   1.623   4.029  12.846 -2.0752 -0.2452 -0.0918
 6865TIP3    H242087   1.604   4.178  12.836  2.5584  0.4312 -0.9507
 6866TIP3   OH242088   6.535   5.016  11.536  0.3837  0.3800  0.2515
 6866TIP3    H142089   6.445   4.993  11.510 -0.0230  1.4663  0.6648
 6866TIP3    H242090   6.542   5.110  11.519  1.4425  0.3120  0.2506
 6867TIP3   OH242091   5.473   4.268  15.256 -0.1403  0.1553 -0.0019
 6867TIP3    H142092   5.518   4.322  15.321 -0.0764  0.4303 -0.2713
 6867TIP3    H242093   5.440   4.330  15.191  1.4517 -0.2406 -1.2599
 6868TIP3   OH242094   3.210   0.421   5.381 -0.0805  0.5598 -0.1144
 6868TIP3    H142095   3.134   0.384   5.336  1.0892 -0.2133 -1.5318
 6868TIP3    H242096   3.281   0.359   5.364  1.0972  1.7244  0.3747
 6869TIP3   OH242097   1.393   3.127   0.317  0.1235 -0.1199 -0.6991
 6869TIP3    H142098   1.361   3.218   0.319  0.0871 -0.0455 -2.6486
 6869TIP3    H242099   1.395   3.101   0.409  2.7934  2.7635  0.2512
 6870TIP3   OH242100   5.933   6.275  12.729  0.4371 -0.1544 -0.6327
 6870TIP3    H142101   5.965   6.334  12.798 -2.6185 -0.0163  0.8519
 6870TIP3    H242102   5.911   6.194  12.775  1.0731 -1.1479 -2.0149
 6871TIP3   OH242103   3.685   1.026  12.466  0.0453  0.2974 -0.0283
 6871TIP3    H142104   3.699   1.086  12.539  1.4989  0.9276 -0.7748
 6871TIP3    H242105   3.749   0.956  12.481 -0.4540 -0.1735 -0.0848
 6872TIP3   OH242106   5.388   4.888  13.554 -0.1356  0.6834 -0.0216
 6872TIP3    H142107   5.310   4.942  13.556  1.3500  3.0757 -1.5900
 6872TIP3    H242108   5.362   4.805  13.594 -3.4368  1.3685 -0.5395
 6873TIP3   OH242109   0.495   6.183   3.235 -0.4388  0.2567  0.4597
 6873TIP3    H142110   0.586   6.177   3.206 -0.8960  0.9065 -1.1787
 6873TIP3    H242111   0.466   6.092   3.239 -0.8081  0.1238 -2.7694
 6874TIP3   OH242112   4.212   1.412  15.876  0.3427 -0.1415  0.5301
 6874TIP3    H142113   4.221   1.393  15.782  0.1315  0.1272  0.4524
 6874TIP3    H242114   4.170   1.334  15.912 -1.1996  0.4384  0.0873
 6875TIP3   OH242115   3.690   0.199  13.552  0.7766  0.7398 -0.0029
 6875TIP3    H142116   3.721   0.109  13.544  0.3139  0.4908  0.8920
 6875TIP3    H242117   3.721   0.228  13.638  0.1957  1.1423  0.0754
 6876TIP3   OH242118   6.314   1.302   3.661 -0.7799 -0.6541  0.4635
 6876TIP3    H142119   6.361   1.248   3.598  1.0350  1.2203  0.1139
 6876TIP3    H242120   6.282   1.376   3.611 -1.8070 -0.5682  1.2224
 6877TIP3   OH242121   0.883   4.115  16.090 -0.5570  0.7407 -0.3017
 6877TIP3    H142122   0.790   4.139  16.087  0.0385  3.2864 -0.6377
 6877TIP3    H242123   0.883   4.022  16.110 -3.1600  0.9790  1.2992
 6878TIP3   OH242124   5.219   3.363  12.703  0.0372 -0.6511  0.0488
 6878TIP3    H142125   5.179   3.412  12.631 -1.2941 -0.9234  0.5622
 6878TIP3    H242126   5.312   3.385  12.699 -0.6485  2.9562  1.0556
 6879TIP3   OH242127   0.847   6.407   4.191 -0.7157  1.3401  0.0302
 6879TIP3    H142128   0.760   6.406   4.149 -1.7250  0.8248  2.0070
 6879TIP3    H242129   0.862   6.316   4.215  0.9018  1.2406 -1.2162
 6880TIP3   OH242130   6.150   3.223  12.512 -0.4072  0.1447  0.4571
 6880TIP3    H142131   6.224   3.284  12.520 -0.5003  0.2111  0.8053
 6880TIP3    H242132   6.098   3.258  12.440 -0.2799  0.2877  0.4341
 6881TIP3   OH242133   4.823   5.274   6.364  0.0884  0.3118 -0.8522
 6881TIP3    H142134   4.842   5.368   6.370  0.2000  0.3228 -1.3522
 6881TIP3    H242135   4.907   5.235   6.341 -0.2998  0.2693 -2.2790
 6882TIP3   OH242136   5.128   2.859   5.588  0.1926  0.4310  0.1800
 6882TIP3    H142137   5.150   2.944   5.627 -0.1184  1.3317 -1.5256
 6882TIP3    H242138   5.032   2.856   5.589  0.1752  0.5648 -0.6930
 6883TIP3   OH242139   2.087   1.054   0.869  0.1783  0.5941 -0.2642
 6883TIP3    H142140   2.024   1.085   0.804 -0.0711  1.4141  0.3562
 6883TIP3    H242141   2.057   1.091   0.952  0.4674 -0.4622  0.3401
 6884TIP3   OH242142   3.751   2.287   3.562 -0.0122 -0.0217  0.0050
 6884TIP3    H142143   3.721   2.318   3.647  0.4175 -1.0026  0.5275
 6884TIP3    H242144   3.807   2.357   3.529 -0.3196  0.4381  0.4446
 6885TIP3   OH242145   5.201   4.464   2.135  0.2509  0.5442  0.0166
 6885TIP3    H142146   5.137   4.534   2.124  1.2457  1.6443  0.9579
 6885TIP3    H242147   5.156   4.385   2.104 -0.6747  1.6788 -1.7185
 6886TIP3   OH242148   1.335   0.939  11.424  0.1815  0.6366 -0.0913
 6886TIP3    H142149   1.276   0.892  11.366  1.1322 -0.8728  0.0888
 6886TIP3    H242150   1.412   0.957  11.371  0.6526  0.1296  0.3991
 6887TIP3   OH242151   1.252   1.634  13.302 -0.4117 -0.1466  0.3267
 6887TIP3    H142152   1.317   1.627  13.233 -1.7195  0.9057 -1.0856
 6887TIP3    H242153   1.265   1.556  13.355  1.6407 -0.2154 -0.1894
 6888TIP3   OH242154   3.255   2.747  10.527  0.3141  0.3346  0.4337
 6888TIP3    H142155   3.194   2.747  10.453  1.9359 -1.1395 -1.0081
 6888TIP3    H242156   3.329   2.799  10.496  1.0438 -0.3555  0.9798
 6889TIP3   OH242157   6.548   0.457  12.516  0.0020  0.3667 -0.5574
 6889TIP3    H142158   6.467   0.496  12.483 -0.7660 -1.4521 -0.9376
 6889TIP3    H242159   6.528   0.364  12.526  1.5205  0.1499  1.0278
 6890TIP3   OH242160   2.887   1.927   5.515 -0.5973 -0.2779  0.1877
 6890TIP3    H142161   2.793   1.915   5.499 -0.6355  0.7846 -0.4390
 6890TIP3    H242162   2.892   1.957   5.606 -1.1125  2.3361 -0.5898
 6891TIP3   OH242163   0.252   0.553  15.935  0.1094 -0.0691 -0.2143
 6891TIP3    H142164   0.187   0.514  15.994  0.9768 -0.2488  0.6587
 6891TIP3    H242165   0.336   0.521  15.968  0.6853  0.6854 -0.9077
 6892TIP3   OH242166   6.514   3.667  15.695  0.4318  0.6686  0.1136
 6892TIP3    H142167   6.510   3.571  15.699 -0.7414  0.7394  2.8638
 6892TIP3    H242168   6.579   3.685  15.627  1.3253 -2.0896  0.1069
 6893TIP3   OH242169   0.323   2.300  12.004 -0.2658  0.1135 -0.5025
 6893TIP3    H142170   0.324   2.224  12.061  2.2813  1.0407  0.8458
 6893TIP3    H242171   0.371   2.272  11.926  0.2199  0.1807 -0.2286
 6894TIP3   OH242172   2.468   1.949  11.894  0.3085  0.0039 -0.2810
 6894TIP3    H142173   2.482   1.878  11.832  1.5803 -0.1841  0.1893
 6894TIP3    H242174   2.469   2.028  11.839 -1.1556 -0.3102 -0.8086
 6895TIP3   OH242175   4.812   3.186  14.973  0.2850  0.5483  0.4129
 6895TIP3    H142176   4.892   3.236  14.988  0.0326  0.9485  0.4376
 6895TIP3    H242177   4.842   3.100  14.943  0.7259  0.6379  0.5951
 6896TIP3   OH242178   6.021   5.215   2.725 -0.2341 -0.6658  0.3010
 6896TIP3    H142179   6.026   5.275   2.799 -1.6268  0.4978 -0.5211
 6896TIP3    H242180   5.940   5.237   2.680  0.2156 -1.8292 -1.1787
 6897TIP3   OH242181   5.985   3.487  14.332  0.1080  0.8039  0.2789
 6897TIP3    H142182   5.989   3.580  14.310 -3.0907  0.6136 -1.7456
 6897TIP3    H242183   5.925   3.483  14.407  0.7163  0.3906  0.7547
 6898TIP3   OH242184   1.016   0.803   0.785 -0.3871 -0.1184 -0.1412
 6898TIP3    H142185   1.082   0.764   0.727 -0.9383 -2.1606  0.5064
 6898TIP3    H242186   1.066   0.853   0.849  0.5302 -1.2311  0.0448
 6899TIP3   OH242187   3.151   0.142  15.360  0.3316 -0.5454  0.1646
 6899TIP3    H142188   3.236   0.172  15.390  0.1767  0.1085 -0.0445
 6899TIP3    H242189   3.088   0.186  15.417  0.0827 -0.0587 -0.4697
 6900TIP3   OH242190   3.822   4.748   5.553 -0.0461 -0.0455 -0.6329
 6900TIP3    H142191   3.841   4.796   5.472  0.7867 -0.7102 -0.8456
 6900TIP3    H242192   3.727   4.757   5.564 -0.1170  0.3828 -1.4666
 6901TIP3   OH242193   6.378   2.519   5.042  0.0874  0.0746 -0.1627
 6901TIP3    H142194   6.449   2.503   4.980 -0.0488 -1.2990  0.0033
 6901TIP3    H242195   6.422   2.555   5.119  0.4384  0.4331 -0.5224
 6902TIP3   OH242196   5.610   2.659  13.865 -0.5866  0.9003  0.4020
 6902TIP3    H142197   5.682   2.597  13.872  0.3453  2.0272  1.2006
 6902TIP3    H242198   5.629   2.727  13.930 -0.8707  2.6901 -1.2761
 6903TIP3   OH242199   1.796   0.508  15.014 -0.4035 -0.7873 -0.4817
 6903TIP3    H142200   1.722   0.566  15.030 -0.3752 -0.7037 -0.6493
 6903TIP3    H242201   1.839   0.498  15.099  0.1386  0.1800 -0.6256
 6904TIP3   OH242202   4.372   2.970  15.756 -0.4376 -0.2663  0.0298
 6904TIP3    H142203   4.417   2.895  15.796 -0.4776  0.3945  1.3928
 6904TIP3    H242204   4.289   2.934  15.725 -1.1676 -0.5337  2.1081
 6905TIP3   OH242205   2.346   4.942   3.264  0.0779  0.0939  0.0336
 6905TIP3    H142206   2.287   4.867   3.276  2.3731 -1.7183  0.6149
 6905TIP3    H242207   2.428   4.915   3.304  0.5596  3.6178  1.8548
 6906TIP3   OH242208   0.866   0.796   5.365  0.3006 -0.3561 -0.8838
 6906TIP3    H142209   0.884   0.742   5.442 -2.2094 -2.1194 -1.3762
 6906TIP3    H242210   0.821   0.873   5.399  0.6562 -0.3348 -0.4636
 6907TIP3   OH242211   1.659   1.869  14.424 -0.8170  0.0102  0.4054
 6907TIP3    H142212   1.634   1.942  14.368 -0.4067  0.4440  0.7730
 6907TIP3    H242213   1.576   1.832  14.455 -1.0342  1.1491  1.2629
 6908TIP3   OH242214   6.046   6.082   5.852 -0.4421 -0.3603  0.7735
 6908TIP3    H142215   6.099   6.133   5.791  0.4453 -1.6291  0.4497
 6908TIP3    H242216   6.077   6.108   5.938 -0.2547 -0.0824  0.6233
 6909TIP3   OH242217   1.742   4.904  12.836 -0.2212  0.4643  0.1055
 6909TIP3    H142218   1.812   4.968  12.849  0.4976 -0.3676  0.3780
 6909TIP3    H242219   1.763   4.832  12.896 -1.1524  0.0749 -0.0144
 6910TIP3   OH242220   0.271   2.511  14.177 -0.2516 -0.9558  0.5019
 6910TIP3    H142221   0.229   2.464  14.105  1.6849 -1.0228 -0.6514
 6910TIP3    H242222   0.266   2.603  14.150  1.4618 -1.0654 -0.3377
 6911TIP3   OH242223   2.030   2.310  14.676  0.0008  0.6366  0.0219
 6911TIP3    H142224   2.065   2.276  14.594 -0.5092  0.1727 -0.0015
 6911TIP3    H242225   1.977   2.385  14.650 -1.9215 -0.7682 -0.3138
 6912TIP3   OH242226   6.227   2.169   5.750  0.2276  0.2508  0.3576
 6912TIP3    H142227   6.318   2.141   5.765  0.4114  1.0024  0.6516
 6912TIP3    H242228   6.233   2.263   5.733  0.0662 -0.3736 -4.3876
 6913TIP3   OH242229   3.259   0.284   3.603 -0.0162 -0.1989  0.5922
 6913TIP3    H142230   3.335   0.343   3.594 -1.0687  1.0104 -0.9432
 6913TIP3    H242231   3.249   0.245   3.516 -0.6564 -0.9975  1.0154
 6914TIP3   OH242232   1.603   2.515   0.377 -0.1182  0.2470 -0.1745
 6914TIP3    H142233   1.532   2.467   0.420  1.8626 -1.4314  1.4441
 6914TIP3    H242234   1.621   2.465   0.297 -0.1727  0.1618 -0.1339
 6915TIP3   OH242235   3.451   2.335   2.282  0.1269  0.1758  0.2697
 6915TIP3    H142236   3.367   2.361   2.320  1.1892  0.7510  2.3627
 6915TIP3    H242237   3.478   2.411   2.230  0.3645  0.8610  1.3766
 6916TIP3   OH242238   1.633   4.432  15.618  0.0504 -0.1686  0.3577
 6916TIP3    H142239   1.646   4.366  15.686  1.8319 -0.6346 -0.3677
 6916TIP3    H242240   1.682   4.399  15.543 -1.2955  0.6700 -0.9388
 6917TIP3   OH242241   5.916   1.455   0.197 -0.3861  0.5942 -0.5766
 6917TIP3    H142242   5.951   1.469   0.109 -1.4651  0.9196 -0.9627
 6917TIP3    H242243   5.877   1.538   0.221  0.4202  0.6898  0.4701
 6918TIP3   OH242244   1.425   5.918  13.091 -1.0561  0.1066  0.5212
 6918TIP3    H142245   1.484   5.993  13.096 -0.8026 -0.0865  0.4257
 6918TIP3    H242246   1.338   5.955  13.106 -1.1172  0.6627 -1.0886
 6919TIP3   OH242247   2.793   1.943  15.182  0.2228  0.3040  0.2218
 6919TIP3    H142248   2.719   1.987  15.224 -0.6717  0.6991 -1.6651
 6919TIP3    H242249   2.857   2.013  15.168 -1.1224  1.1140 -2.6050
 6920TIP3   OH242250   4.737   3.343  16.164  0.2039 -0.0223 -0.6490
 6920TIP3    H142251   4.787   3.349  16.082  2.2078 -0.5892  0.4499
 6920TIP3    H242252   4.717   3.433  16.187  3.1931  0.5518  0.2196
 6921TIP3   OH242253   1.871   3.796  15.777  0.1531 -0.1980 -0.6995
 6921TIP3    H142254   1.835   3.868  15.725 -3.2224  0.1936  1.7999
 6921TIP3    H242255   1.809   3.724  15.766  1.1552 -1.2402  0.1747
 6922TIP3   OH242256   2.700   1.888  14.828 -0.2827 -0.3503  0.3490
 6922TIP3    H142257   2.606   1.888  14.813 -0.1420  0.7292 -0.7533
 6922TIP3    H242258   2.717   1.971  14.873  0.3151  0.2976 -0.9937
 6923TIP3   OH242259   1.484   1.512   4.940 -0.3741 -0.1751  0.1178
 6923TIP3    H142260   1.424   1.474   4.875  1.5799 -0.2912 -1.7523
 6923TIP3    H242261   1.494   1.603   4.913  2.9978 -0.9770 -1.9824
 6924TIP3   OH242262   6.052   4.034   2.648 -0.2147 -0.1676 -0.2254
 6924TIP3    H142263   6.038   4.126   2.669  0.6371 -0.4500  1.8536
 6924TIP3    H242264   5.966   4.001   2.622 -0.7526  0.9540  0.0909
 6925TIP3   OH242265   1.117   6.322  11.518  0.2297 -0.0657  0.6365
 6925TIP3    H142266   1.028   6.290  11.504  0.0558  0.0964  1.3399
 6925TIP3    H242267   1.173   6.265  11.465 -0.1769 -0.8647  1.0692
 6926TIP3   OH242268   2.549   0.484   2.124  0.6459  0.1705  0.6002
 6926TIP3    H142269   2.494   0.539   2.069  0.9713 -0.2833 -0.1889
 6926TIP3    H242270   2.489   0.449   2.191  0.5128  1.7878  1.3714
 6927TIP3   OH242271   2.223   0.266   0.841 -0.1695 -0.4811 -0.1385
 6927TIP3    H142272   2.267   0.270   0.926  0.8496  1.7282 -0.7126
 6927TIP3    H242273   2.161   0.338   0.842 -2.6859 -2.4855 -0.0343
 6928TIP3   OH242274   2.323   5.608  15.486  0.1572 -0.1115 -1.0558
 6928TIP3    H142275   2.244   5.641  15.443 -0.7418  0.9332  1.2295
 6928TIP3    H242276   2.387   5.679  15.475  0.5061 -0.5671 -2.0957
 6929TIP3   OH242277   1.649   3.956  15.693  0.3110 -0.1635 -0.0812
 6929TIP3    H142278   1.567   3.907  15.686  0.3996 -0.3224 -0.0039
 6929TIP3    H242279   1.692   3.944  15.608 -0.6128  1.4707 -0.8159
 6930TIP3   OH242280   1.611   6.019   5.880  0.3346 -0.1821  0.0643
 6930TIP3    H142281   1.564   6.103   5.881  0.9417  0.1615 -0.0767
 6930TIP3    H242282   1.663   6.020   5.960  1.6510  0.3297 -0.7665
 6931TIP3   OH242283   5.492   1.383   4.529 -0.4145  0.5262  0.1979
 6931TIP3    H142284   5.531   1.313   4.581 -1.4129 -1.6875 -1.8568
 6931TIP3    H242285   5.407   1.349   4.503  0.4939  0.9471 -3.8532
 6932TIP3   OH242286   1.727   3.264   4.506 -0.2923 -0.1596  0.3298
 6932TIP3    H142287   1.696   3.175   4.523 -1.4356  0.0335 -0.6388
 6932TIP3    H242288   1.822   3.259   4.520 -0.2119 -1.7401 -0.5072
 6933TIP3   OH242289   2.145   3.241   0.418  0.4351 -0.2858  0.5250
 6933TIP3    H142290   2.218   3.300   0.399  0.7706 -0.6870  0.5809
 6933TIP3    H242291   2.150   3.224   0.512  1.1594 -1.4932  0.2840
 6934TIP3   OH242292   4.420   6.103  12.030 -0.0069  0.4423  0.4205
 6934TIP3    H142293   4.443   6.181  12.081 -3.0072  2.7033 -1.3341
 6934TIP3    H242294   4.360   6.054  12.086  0.0780  0.6350  0.6813
 6935TIP3   OH242295   3.198   5.459   3.669  0.8776 -0.7390  0.0429
 6935TIP3    H142296   3.210   5.554   3.660  1.4649 -0.9259 -1.4006
 6935TIP3    H242297   3.106   5.445   3.647  0.6639 -0.4697  0.7251
 6936TIP3   OH242298   5.915   0.745   2.814  0.5548 -0.5798 -0.4669
 6936TIP3    H142299   5.966   0.723   2.892 -1.5781 -1.9121  0.6533
 6936TIP3    H242300   5.946   0.832   2.788  2.9926 -1.1406  0.4031
 6937TIP3   OH242301   4.213   3.974  10.181  0.6885  0.5412  0.4664
 6937TIP3    H142302   4.281   4.008  10.123  0.1847  1.7310  0.5504
 6937TIP3    H242303   4.146   4.043  10.183 -0.7181 -0.7556  0.0564
 6938TIP3   OH242304   3.821   6.072  12.252  0.2043  0.0134  0.7878
 6938TIP3    H142305   3.811   6.158  12.294 -0.5795  0.1643  0.2994
 6938TIP3    H242306   3.831   6.092  12.159 -2.8712 -0.5222  0.2522
 6939TIP3   OH242307   4.825   0.368   0.435 -0.3280 -0.4785 -0.2117
 6939TIP3    H142308   4.752   0.424   0.409 -0.4218 -0.1642  0.6952
 6939TIP3    H242309   4.884   0.368   0.359  0.5080  2.2486  0.3345
 6940TIP3   OH242310   4.145   0.706   1.982  0.4942  0.0497 -0.0881
 6940TIP3    H142311   4.106   0.652   1.913  1.1878  0.9512 -1.2279
 6940TIP3    H242312   4.081   0.775   1.997  0.3389 -0.1522  0.1905
 6941TIP3   OH242313   4.328   0.016   0.397 -0.6136  0.1296 -0.3828
 6941TIP3    H142314   4.338   0.005   0.492  0.7722  1.1417 -0.3791
 6941TIP3    H242315   4.361  -0.066   0.360 -0.0926  0.1696 -0.0165
 6942TIP3   OH242316   0.284   2.975   0.570 -0.2471  0.2696  0.0993
 6942TIP3    H142317   0.270   2.923   0.649 -0.9365  0.4235  0.0870
 6942TIP3    H242318   0.197   3.007   0.547  0.1295  1.2844  0.0131
 6943TIP3   OH242319   6.288   2.691   4.395 -0.0819 -0.5833  0.0083
 6943TIP3    H142320   6.284   2.616   4.337  0.0601 -0.5272 -0.0743
 6943TIP3    H242321   6.356   2.668   4.459 -0.9555 -1.0876  0.7775
 6944TIP3   OH242322   3.725   0.442  11.403  0.0642 -0.1733 -0.3857
 6944TIP3    H142323   3.758   0.515  11.455 -0.2090  0.4515 -1.0741
 6944TIP3    H242324   3.656   0.480  11.348  1.8159 -0.2834 -2.8405
 6945TIP3   OH242325   3.946   3.755  11.653  0.3942 -0.0457  0.1073
 6945TIP3    H142326   4.037   3.735  11.677  1.7157  2.3514 -2.3127
 6945TIP3    H242327   3.949   3.773  11.559 -2.1546  2.1445  0.3131
 6946TIP3   OH242328   6.655   3.506  16.886 -0.2178  0.3301  0.1095
 6946TIP3    H142329   6.576   3.476  16.929 -0.4086 -0.9841 -1.0795
 6946TIP3    H242330   6.655   3.601  16.898 -0.7490  0.1208  2.0900
 6947TIP3   OH242331   2.113   2.448   1.021  0.4702 -0.5491  0.0826
 6947TIP3    H142332   2.131   2.475   1.111 -0.4981 -0.1703  0.1705
 6947TIP3    H242333   2.178   2.379   1.003 -1.0090 -2.5647  2.0111
 6948TIP3   OH242334   1.562   0.803  16.481 -0.4352 -0.1462  0.2439
 6948TIP3    H142335   1.541   0.888  16.519  0.0734 -0.3345  0.9755
 6948TIP3    H242336   1.575   0.820  16.388 -2.0635  0.2700  0.0679
 6949TIP3   OH242337   4.310   1.284  14.272  0.1777  0.7504 -0.1591
 6949TIP3    H142338   4.271   1.207  14.230  1.1854  1.4575 -2.6067
 6949TIP3    H242339   4.342   1.252  14.356  1.0282 -1.6813 -1.3075
 6950TIP3   OH242340   1.862   6.159   2.505 -0.2268  0.1725  0.7816
 6950TIP3    H142341   1.778   6.206   2.512 -0.2165  0.1447  1.1070
 6950TIP3    H242342   1.838   6.071   2.478 -0.2329  0.4132 -0.0203
 6951TIP3   OH242343   5.228   3.931  11.957  0.4843 -1.0932 -0.9541
 6951TIP3    H142344   5.223   3.846  11.912  0.5888 -0.6981 -1.7223
 6951TIP3    H242345   5.249   3.994  11.888 -0.1947 -0.3447 -0.4922
 6952TIP3   OH242346   0.004   5.187   2.197 -0.2508  0.3913  1.0734
 6952TIP3    H142347  -0.001   5.144   2.282  2.8929  0.2948  1.3224
 6952TIP3    H242348   0.058   5.129   2.143  1.1834  2.2737  0.3286
 6953TIP3   OH242349   3.174   2.551   5.740 -0.2167  0.0092 -0.4702
 6953TIP3    H142350   3.180   2.625   5.801 -0.6550  0.2463 -0.7067
 6953TIP3    H242351   3.256   2.504   5.751  0.2498  0.7639 -0.6111
 6954TIP3   OH242352   3.329   2.545  16.069 -0.0484  0.1764 -0.1960
 6954TIP3    H142353   3.371   2.532  16.154 -0.8820 -1.5986 -0.0108
 6954TIP3    H242354   3.393   2.514  16.005 -0.2047 -0.4508 -0.0583
 6955TIP3   OH242355   5.437   3.991   2.410 -0.2679 -0.4340  0.3699
 6955TIP3    H142356   5.344   3.980   2.429 -0.5848 -1.1357 -1.3917
 6955TIP3    H242357   5.463   3.909   2.368  1.1709 -0.2656  0.8660
 6956TIP3   OH242358   6.419   3.627  10.854 -0.4902  0.0242 -0.2851
 6956TIP3    H142359   6.423   3.542  10.897  1.1671 -1.2609 -2.7650
 6956TIP3    H242360   6.342   3.622  10.798 -1.2562  0.7678  0.6753
 6957TIP3   OH242361   2.707   3.297   3.605  0.0125  0.3066  0.0500
 6957TIP3    H142362   2.790   3.273   3.644  0.0039  0.5643  0.2283
 6957TIP3    H242363   2.657   3.337   3.676 -1.2995 -2.2214  0.6775
 6958TIP3   OH242364   6.692   1.605   2.964 -0.2613 -0.1087 -0.8669
 6958TIP3    H142365   6.628   1.627   3.031  0.4674  0.6455 -0.4035
 6958TIP3    H242366   6.738   1.528   2.999 -0.2274 -0.0315 -0.7441
 6959TIP3   OH242367   4.395   4.392  14.767 -0.0488 -0.1456  0.2648
 6959TIP3    H142368   4.422   4.301  14.781 -1.9863 -0.9161 -0.6230
 6959TIP3    H242369   4.427   4.439  14.844  0.3812 -1.7310  1.0877
 6960TIP3   OH242370   0.517   6.553   2.738  0.8642 -0.4678 -0.1511
 6960TIP3    H142371   0.435   6.585   2.776  1.0723  0.8764 -0.7489
 6960TIP3    H242372   0.505   6.458   2.731 -0.3398 -0.3858  0.4599
 6961TIP3   OH242373   4.849   1.787  12.366  0.4100 -0.1003  0.1723
 6961TIP3    H142374   4.784   1.767  12.434 -0.5686 -1.2879 -1.0633
 6961TIP3    H242375   4.806   1.763  12.284  1.8304  0.6328 -0.8174
 6962TIP3   OH242376   5.244   6.793  15.340 -0.4243 -0.2064  0.0194
 6962TIP3    H142377   5.149   6.795  15.353 -0.4637 -1.1297 -0.0116
 6962TIP3    H242378   5.264   6.872  15.292 -1.1528  0.1073  0.2214
 6963TIP3   OH242379   6.233   5.969  12.609  0.4658  0.3334  0.2993
 6963TIP3    H142380   6.183   5.910  12.552 -0.0662 -0.9023  1.9323
 6963TIP3    H242381   6.171   5.993  12.678  0.4917  3.3776 -0.6161
 6964TIP3   OH242382   2.908   6.677   2.240  0.3372 -0.6645  0.7185
 6964TIP3    H142383   2.975   6.624   2.195  1.7344  0.6820  1.1394
 6964TIP3    H242384   2.855   6.713   2.169  1.9709  0.7209  0.1297
 6965TIP3   OH242385   2.079   6.394   5.566 -0.1705 -0.7115 -0.2533
 6965TIP3    H142386   1.993   6.435   5.563  0.2282  0.2662  0.7585
 6965TIP3    H242387   2.136   6.452   5.516 -0.0146 -1.1486 -0.5909
 6966TIP3   OH242388   5.872   0.382   0.583  0.3823  0.4879 -0.1962
 6966TIP3    H142389   5.818   0.380   0.504  1.0500  0.1496 -0.6551
 6966TIP3    H242390   5.902   0.473   0.589  2.2759  0.0567 -1.7196
 6967TIP3   OH242391   2.044   2.214  12.789  0.4944 -0.0611 -0.2598
 6967TIP3    H142392   2.020   2.258  12.707  1.7529 -0.0051 -0.6275
 6967TIP3    H242393   2.052   2.285  12.852 -0.1466 -0.0688 -0.1607
 6968TIP3   OH242394   4.037   5.997   1.012 -0.6595  0.1866  0.1388
 6968TIP3    H142395   4.080   5.912   1.021 -2.7624 -0.7721  2.4445
 6968TIP3    H242396   3.958   5.978   0.962  0.0466  1.3220 -1.4723
 6969TIP3   OH242397   5.945   4.008   2.323 -0.1486 -0.2686  0.1060
 6969TIP3    H142398   6.035   4.025   2.349 -0.1876 -0.4860  0.3916
 6969TIP3    H242399   5.950   3.989   2.229  0.0631  0.0041  0.0626
 6970TIP3   OH242400   2.174   2.368  17.226  0.2759  0.4573  0.5695
 6970TIP3    H142401   2.198   2.457  17.201 -3.8746  1.9490  1.2304
 6970TIP3    H242402   2.210   2.313  17.155  1.1443  2.8778 -0.9783
 6971TIP3   OH242403   6.654   4.795   6.330 -0.3570  0.4678  0.0173
 6971TIP3    H142404   6.579   4.745   6.361 -0.0181 -0.5212 -0.6995
 6971TIP3    H242405   6.729   4.758   6.377  0.3108 -1.7392 -2.5503
 6972TIP3   OH242406   3.732   5.066  13.857 -0.1507 -0.0782 -0.1139
 6972TIP3    H142407   3.676   5.098  13.927  1.4655 -0.2260  1.3225
 6972TIP3    H242408   3.732   4.971  13.868  1.0094 -0.0323  0.4620
 6973TIP3   OH242409   1.453   0.079  16.503  0.4483  0.1306 -0.2193
 6973TIP3    H142410   1.494   0.007  16.455  1.4702  0.2978  0.3632
 6973TIP3    H242411   1.492   0.158  16.465  1.9423  0.2400  1.4081
 6974TIP3   OH242412   3.408   5.108   1.934  0.6767 -0.1170 -0.4997
 6974TIP3    H142413   3.401   5.012   1.933  0.0079 -0.0921  0.5406
 6974TIP3    H242414   3.318   5.138   1.949  1.0580  0.6352  0.3497
 6975TIP3   OH242415   3.107   2.197  16.071  0.0558  0.3582 -0.3737
 6975TIP3    H142416   3.083   2.241  16.153  0.9996 -0.3662  0.3169
 6975TIP3    H242417   3.055   2.241  16.004 -2.4166 -0.4899  0.8960
 6976TIP3   OH242418   3.497   0.952   0.966  0.2368 -0.5777  0.1222
 6976TIP3    H142419   3.432   1.009   0.927  2.0909  0.9376 -0.9145
 6976TIP3    H242420   3.475   0.949   1.059  0.0084  1.7583  0.1880
 6977TIP3   OH242421   1.667   6.350  15.022 -0.4075 -0.2620  0.7252
 6977TIP3    H142422   1.634   6.273  15.069 -1.6069 -1.8692 -2.5006
 6977TIP3    H242423   1.606   6.420  15.044 -1.1160 -1.0305  1.2638
 6978TIP3   OH242424   1.970   1.658  14.886 -0.1342  0.3749 -0.2077
 6978TIP3    H142425   2.000   1.568  14.875 -1.2061  0.0617 -0.7525
 6978TIP3    H242426   1.961   1.669  14.980 -1.3969 -0.5910 -0.1925
 6979TIP3   OH242427   5.255   0.312   4.324  0.4613  0.0727  0.4793
 6979TIP3    H142428   5.300   0.371   4.385  0.3449  1.2129 -0.4862
 6979TIP3    H242429   5.295   0.227   4.340  1.4586  0.6324  1.1340
 6980TIP3   OH242430   3.713   3.453   5.026 -0.1433  0.1742  0.4498
 6980TIP3    H142431   3.696   3.536   4.980 -1.8115 -0.2176  0.2981
 6980TIP3    H242432   3.762   3.479   5.104  1.1205  1.0593 -0.5790
 6981TIP3   OH242433   2.812   4.976  15.175  0.6828 -0.6121  0.0942
 6981TIP3    H142434   2.859   4.982  15.258  0.0949 -0.5529  0.4340
 6981TIP3    H242435   2.758   5.055  15.172  2.0789  0.3598 -1.2449
 6982TIP3   OH242436   0.352   4.009  16.921  0.1154  0.0556  0.7528
 6982TIP3    H142437   0.440   4.038  16.946  0.5430 -1.5733  1.2930
 6982TIP3    H242438   0.323   4.073  16.856  2.3588 -0.2724 -0.6670
 6983TIP3   OH242439   6.568   2.981   5.615 -0.2177  0.3551  0.2263
 6983TIP3    H142440   6.482   3.004   5.580  0.3243  1.9865 -0.1311
 6983TIP3    H242441   6.564   3.006   5.707 -0.4642 -0.5793  0.4782
 6984TIP3   OH242442   1.165   0.379   1.328  0.3182 -0.5841  0.1117
 6984TIP3    H142443   1.183   0.290   1.357 -1.0997 -0.5678  1.2094
 6984TIP3    H242444   1.231   0.432   1.372  0.7111 -1.0047  0.0413
 6985TIP3   OH242445   0.258   0.365  12.814 -0.3471  0.7924  0.3860
 6985TIP3    H142446   0.313   0.439  12.841  1.3649 -0.1897 -0.2626
 6985TIP3    H242447   0.212   0.340  12.894  0.0655  1.7093  0.9349
 6986TIP3   OH242448   4.646   5.996   5.758  0.6579  0.6889  0.4952
 6986TIP3    H142449   4.638   5.932   5.828  0.3641  2.9131  2.6369
 6986TIP3    H242450   4.579   6.062   5.778 -0.9442  0.3881 -3.1427
 6987TIP3   OH242451   4.784   4.815   2.543  0.4122 -0.3740 -0.5794
 6987TIP3    H142452   4.847   4.773   2.485  0.7491  1.5194 -1.6520
 6987TIP3    H242453   4.833   4.828   2.625  1.4430  0.9682 -1.3571
 6988TIP3   OH242454   3.648   1.990   6.560 -0.0552 -0.7175  0.5572
 6988TIP3    H142455   3.580   1.937   6.602  0.5583 -1.3760  0.7393
 6988TIP3    H242456   3.633   1.977   6.466  1.0662 -2.5825  0.5630
 6989TIP3   OH242457   1.671   0.541  12.158 -0.5036 -0.4417 -0.4959
 6989TIP3    H142458   1.604   0.532  12.090  2.2078 -1.9476 -3.2542
 6989TIP3    H242459   1.703   0.451  12.172 -0.3414 -0.0596  2.2346
 6990TIP3   OH242460   6.762   2.825   6.361 -0.0451 -0.2810 -0.3049
 6990TIP3    H142461   6.743   2.765   6.434 -0.8304 -0.7053 -0.8372
 6990TIP3    H242462   6.840   2.787   6.319 -1.3024 -1.7611 -1.4530
 6991TIP3   OH242463   3.919   4.670   0.826 -0.9137 -0.0266 -1.1272
 6991TIP3    H142464   3.825   4.671   0.845 -1.1045  1.4283 -1.9741
 6991TIP3    H242465   3.924   4.683   0.731  0.0969 -2.5496 -1.4980
 6992TIP3   OH242466   1.596   2.313   2.140 -0.4230  0.3515 -0.1504
 6992TIP3    H142467   1.510   2.342   2.167  0.0822  1.5279  0.2562
 6992TIP3    H242468   1.580   2.240   2.080 -1.8253  2.7324 -2.8574
 6993TIP3   OH242469   2.214   2.666  16.643  0.3343 -0.4460  0.2729
 6993TIP3    H142470   2.278   2.619  16.590 -1.8255 -1.5664 -1.5455
 6993TIP3    H242471   2.248   2.755  16.649  1.5308 -0.7293 -1.5556
 6994TIP3   OH242472   6.332   0.210  17.041 -0.0991  0.0380  0.4888
 6994TIP3    H142473   6.423   0.191  17.016 -0.6880 -0.4487 -1.5264
 6994TIP3    H242474   6.281   0.186  16.963 -1.8847  1.0106  1.3017
 6995TIP3   OH242475   4.420   4.511   2.946 -0.5687  0.7367 -0.0720
 6995TIP3    H142476   4.331   4.484   2.970 -0.2237  0.0288  0.4409
 6995TIP3    H242477   4.475   4.437   2.972  0.4116  1.9090  1.3021
 6996TIP3   OH242478   5.406   2.223   0.510  0.0622  0.2204  0.9390
 6996TIP3    H142479   5.354   2.303   0.515  1.1174  0.8846  2.5744
 6996TIP3    H242480   5.493   2.250   0.540  1.7860 -0.5589 -2.7777
 6997TIP3   OH242481   0.368   5.699  15.756 -0.1561 -0.1924  0.1893
 6997TIP3    H142482   0.393   5.651  15.677 -0.4696  0.2876 -0.2074
 6997TIP3    H242483   0.273   5.692  15.760 -0.1384 -0.2541  0.5510
 6998TIP3   OH242484   2.314   6.367  12.827 -0.7282 -0.0946 -0.2771
 6998TIP3    H142485   2.276   6.436  12.774 -2.5995  0.1935  1.3229
 6998TIP3    H242486   2.255   6.292  12.818 -2.9371  0.8917  3.5712
 6999TIP3   OH242487   0.380   5.666   1.205  0.2573 -0.5432  0.2796
 6999TIP3    H142488   0.374   5.572   1.191 -0.1098 -0.2549 -1.8501
 6999TIP3    H242489   0.460   5.692   1.159  0.5520  0.1400  1.1570
 7000TIP3   OH242490   5.567   3.190  14.280 -0.2925 -0.6191  0.6434
 7000TIP3    H142491   5.650   3.191  14.232  0.0660  1.8854  1.1769
 7000TIP3    H242492   5.500   3.205  14.213  0.3080  4.4363  0.7915
 7001TIP3   OH242493   1.889   3.602  13.788  0.1408  0.1257 -0.3413
 7001TIP3    H142494   1.874   3.619  13.881 -1.6327  0.8311 -0.7176
 7001TIP3    H242495   1.877   3.507  13.779 -2.8926  0.4196 -0.3159
 7002TIP3   OH242496   5.113   1.494   2.474  0.4682  0.2131  0.4436
 7002TIP3    H142497   5.147   1.519   2.388  1.0335 -2.1756 -0.0973
 7002TIP3    H242498   5.136   1.401   2.482 -1.0285 -0.0262  2.4858
 7003TIP3   OH242499   4.233   6.568   1.748  0.0304 -0.3069 -0.2441
 7003TIP3    H142500   4.221   6.589   1.841 -1.8032 -0.3859 -0.4303
 7003TIP3    H242501   4.226   6.472   1.745 -0.0008 -0.2969 -0.4636
 7004TIP3   OH242502   6.134   5.017  12.502 -0.2718 -0.4760 -0.3807
 7004TIP3    H142503   6.097   5.061  12.426  1.7323 -0.8692 -1.6494
 7004TIP3    H242504   6.219   4.985  12.473  0.1400 -1.5223  1.7431
 7005TIP3   OH242505   1.941   3.961  14.291  0.6019 -0.2021 -0.3100
 7005TIP3    H142506   2.034   3.966  14.310  0.5826 -0.3603 -0.1657
 7005TIP3    H242507   1.905   4.043  14.322  0.5489 -0.5130  0.4663
 7006TIP3   OH242508   1.499   3.595  14.595  0.8432  0.2979 -0.3154
 7006TIP3    H142509   1.556   3.640  14.532  1.2125 -1.7304 -1.5197
 7006TIP3    H242510   1.558   3.533  14.640  0.3863  1.0474  1.4110
 7007TIP3   OH242511   2.437   6.603   1.486 -0.3632 -0.3220  0.1197
 7007TIP3    H142512   2.513   6.660   1.475 -1.6221  1.0906 -1.9215
 7007TIP3    H242513   2.460   6.547   1.560  2.4041  0.4253 -0.0580
 7008TIP3   OH242514   1.078   2.545  13.642  0.5146  0.5928  0.0531
 7008TIP3    H142515   1.034   2.630  13.650 -3.0816 -1.1339  1.2708
 7008TIP3    H242516   1.026   2.497  13.578  2.0516 -0.9199 -0.1312
 7009TIP3   OH242517   5.429   4.603  12.556 -0.8173 -0.0469 -0.0150
 7009TIP3    H142518   5.449   4.579  12.465 -2.0736 -1.2520 -0.0097
 7009TIP3    H242519   5.404   4.521  12.597 -2.6377  0.8305  0.7675
 7010TIP3   OH242520   3.475   2.676  13.101  0.1137  0.8078  0.2997
 7010TIP3    H142521   3.475   2.770  13.083  0.2890  0.5521 -1.2283
 7010TIP3    H242522   3.568   2.653  13.108  0.0425  1.0088  2.3737
 7011TIP3   OH242523   3.068   4.389  13.957 -0.1952 -0.1644  0.1893
 7011TIP3    H142524   3.107   4.476  13.954 -0.4229 -0.0977 -2.3275
 7011TIP3    H242525   3.013   4.391  14.035 -2.6301  3.0625 -1.3926
 7012TIP3   OH242526   4.905   4.137  15.478  0.0695  0.1722  0.4295
 7012TIP3    H142527   4.824   4.187  15.493  0.1779  0.5196 -0.1287
 7012TIP3    H242528   4.950   4.139  15.563  0.0142  0.9180  0.4506
 7013TIP3   OH242529   3.831   3.943  16.974  0.8667 -0.0362  0.2884
 7013TIP3    H142530   3.924   3.949  16.952  0.3174  0.1054 -2.4553
 7013TIP3    H242531   3.792   4.021  16.935 -0.6878 -1.2051 -0.6481
 7014TIP3   OH242532   1.020   1.472   1.197  0.0619  0.5081  0.1490
 7014TIP3    H142533   0.945   1.465   1.257 -1.1143 -0.5875 -1.3782
 7014TIP3    H242534   0.985   1.519   1.121  0.6340 -0.8784 -1.0030
 7015TIP3   OH242535   5.700   3.595  13.704  0.7240 -0.2628 -0.0019
 7015TIP3    H142536   5.708   3.503  13.682 -0.5266 -0.5350  0.5569
 7015TIP3    H242537   5.606   3.612  13.699  0.7927  0.6211  1.2506
 7016TIP3   OH242538   0.047   6.686   2.310  0.2928 -0.5846 -0.0210
 7016TIP3    H142539   0.058   6.628   2.234 -0.4350  0.8980 -1.3278
 7016TIP3    H242540   0.092   6.641   2.381  0.3324 -2.4151 -1.1321
 7017TIP3   OH242541   0.878   6.066  14.436  0.4415  0.4505  0.3203
 7017TIP3    H142542   0.784   6.069  14.422  0.3625 -2.1316 -0.1045
 7017TIP3    H242543   0.902   6.157  14.455 -2.0099  1.2681 -0.1451
 7018TIP3   OH242544   1.189   6.186  14.034  0.3368  0.0237 -0.2420
 7018TIP3    H142545   1.208   6.280  14.035 -0.2486  0.1676  1.3391
 7018TIP3    H242546   1.261   6.147  14.084 -0.5854 -0.0558  1.1027
 7019TIP3   OH242547   5.869   4.782  14.453 -0.2202  0.2167 -0.4655
 7019TIP3    H142548   5.787   4.737  14.434  0.2612 -0.5532 -0.7528
 7019TIP3    H242549   5.938   4.720  14.427  0.4542  0.7123  0.0841
 7020TIP3   OH242550   5.699   2.915   4.452 -0.0574 -0.2769 -0.8560
 7020TIP3    H142551   5.642   2.933   4.526  0.3534  0.3355 -0.6872
 7020TIP3    H242552   5.655   2.956   4.377 -0.1417 -0.3328 -0.8377
 7021TIP3   OH242553   1.453   3.347   4.130  1.1333  0.5203 -0.0442
 7021TIP3    H142554   1.441   3.440   4.149  1.7805  0.3414  1.4081
 7021TIP3    H242555   1.393   3.302   4.190  0.4461  0.0133 -1.0966
 7022TIP3   OH242556   3.559   5.118  16.315  0.1800  0.0553 -0.9333
 7022TIP3    H142557   3.638   5.092  16.269  0.7536 -0.4478  0.2973
 7022TIP3    H242558   3.562   5.071  16.398  0.8625  3.3297  1.0904
 7023TIP3   OH242559   3.663   1.486  11.216  0.1303  0.1359 -0.3581
 7023TIP3    H142560   3.598   1.505  11.285  0.6506  0.0490  0.1581
 7023TIP3    H242561   3.624   1.414  11.166 -0.5194  0.5858 -0.5229
 7024TIP3   OH242562   2.722   1.435  11.428 -0.2979  0.4421  0.5939
 7024TIP3    H142563   2.662   1.430  11.502 -1.9007 -0.7626 -0.7251
 7024TIP3    H242564   2.673   1.399  11.354  2.0506 -0.5911 -0.5611
 7025TIP3   OH242565   4.097   6.414  13.988  0.6289 -0.4137  0.0742
 7025TIP3    H142566   4.115   6.481  13.922  1.2781  0.8617  1.4845
 7025TIP3    H242567   4.001   6.405  13.986  0.5796  0.1035 -0.5554
 7026TIP3   OH242568   2.259   0.908   2.908  0.0314  0.1634 -0.2364
 7026TIP3    H142569   2.221   0.912   2.995  1.3250  0.5013  0.3316
 7026TIP3    H242570   2.353   0.919   2.922  0.1574  1.3875 -1.7725
 7027TIP3   OH242571   6.199   3.183   1.769 -0.1791 -0.2396  0.1603
 7027TIP3    H142572   6.223   3.216   1.855  0.3551 -1.2315  0.4187
 7027TIP3    H242573   6.124   3.235   1.742 -1.3721 -0.9496  1.9188
 7028TIP3   OH242574   0.291   6.602  12.431  0.2349 -0.3742 -0.8386
 7028TIP3    H142575   0.224   6.565  12.488  0.9112 -1.5915 -0.7868
 7028TIP3    H242576   0.333   6.526  12.391  1.8442  0.3259 -0.5617
 7029TIP3   OH242577   4.158   1.851   0.776 -0.3619 -0.2867 -0.2166
 7029TIP3    H142578   4.173   1.898   0.858  1.0957  1.5731 -1.4758
 7029TIP3    H242579   4.205   1.902   0.710  0.5166 -3.0288 -1.8448
 7030TIP3   OH242580   1.182   6.281   2.486  0.0017  0.0753 -0.0809
 7030TIP3    H142581   1.197   6.351   2.550  1.4808 -0.5235  0.2618
 7030TIP3    H242582   1.199   6.322   2.401 -0.0819  0.3771  0.0475
 7031TIP3   OH242583   0.388   6.395   6.547 -0.2874  0.0052 -0.1824
 7031TIP3    H142584   0.317   6.452   6.575  0.8596  0.9676  0.8599
 7031TIP3    H242585   0.419   6.354   6.628  0.9687  0.3447 -0.4725
 7032TIP3   OH242586   4.744   0.379   4.941  0.1504  0.1336 -0.4052
 7032TIP3    H142587   4.748   0.353   5.034 -2.7879  0.5284 -0.0644
 7032TIP3    H242588   4.835   0.375   4.911  1.0189 -1.3965  2.1045
 7033TIP3   OH242589   0.532   1.231  14.830 -0.1168  0.2732  0.1841
 7033TIP3    H142590   0.499   1.210  14.743  0.6131 -0.7646  0.1334
 7033TIP3    H242591   0.462   1.205  14.890 -0.4141  0.5097 -0.0601
 7034TIP3   OH242592   2.377   1.712   5.760 -0.5924  0.3038  0.3110
 7034TIP3    H142593   2.397   1.675   5.845  2.1377  0.2825 -0.2706
 7034TIP3    H242594   2.358   1.804   5.777  3.7664  1.3376  0.7125
 7035TIP3   OH242595   5.222   6.705  13.973 -0.2647  0.3511  0.1626
 7035TIP3    H142596   5.202   6.745  13.889 -2.1591 -1.8917 -0.5746
 7035TIP3    H242597   5.291   6.641  13.954 -1.5209 -1.0163 -0.0326
 7036TIP3   OH242598   1.174   4.178   1.918  0.3680 -0.5262 -0.4790
 7036TIP3    H142599   1.260   4.137   1.907  1.1952  1.2579 -0.9973
 7036TIP3    H242600   1.145   4.196   1.829  0.6321  1.1532 -0.2538
 7037TIP3   OH242601   1.326   3.020   1.080  0.0914 -0.4427  0.2700
 7037TIP3    H142602   1.419   3.012   1.102  0.0677 -0.8583  0.2275
 7037TIP3    H242603   1.305   3.112   1.099  1.1942  0.4806 -2.4437
 7038TIP3   OH242604   0.533   3.628  14.613 -0.1269  0.6739 -0.7577
 7038TIP3    H142605   0.553   3.572  14.688  0.3631  1.1916 -0.4964
 7038TIP3    H242606   0.439   3.620  14.601 -0.0444 -0.3237 -0.8219
 7039TIP3   OH242607   2.593   0.747   0.862  0.6521 -0.7755 -0.2323
 7039TIP3    H142608   2.548   0.793   0.791 -0.3910 -0.2504  0.7263
 7039TIP3    H242609   2.606   0.659   0.829  0.5393 -0.4315 -1.2246
 7040TIP3   OH242610   3.373   3.732  13.929  0.2252  0.4189 -0.0882
 7040TIP3    H142611   3.381   3.827  13.929  1.0128  0.3680  1.0145
 7040TIP3    H242612   3.455   3.701  13.892  1.4060  0.1232  2.5527
 7041TIP3   OH242613   3.850   6.200  16.694 -0.2298 -0.2216 -0.3879
 7041TIP3    H142614   3.794   6.146  16.749 -0.1338 -1.5250 -1.5067
 7041TIP3    H242615   3.938   6.189  16.731  0.2928 -3.1175 -2.1170
 7042TIP3   OH242616   2.500   1.114  16.867 -0.1621  0.2579 -0.2814
 7042TIP3    H142617   2.456   1.199  16.875 -2.2583 -0.8660  1.0272
 7042TIP3    H242618   2.557   1.110  16.943  0.4410  0.7463 -0.6994
 7043TIP3   OH242619   0.945   6.439   0.976 -0.7503  0.0395 -0.5983
 7043TIP3    H142620   0.898   6.431   1.059 -1.3139  0.4764 -0.8677
 7043TIP3    H242621   1.032   6.470   1.000 -1.2126  1.1038 -0.2450
 7044TIP3   OH242622   3.316   6.714   4.006 -0.3524  0.0458  0.5274
 7044TIP3    H142623   3.374   6.754   4.071  0.1193 -0.1851  0.2502
 7044TIP3    H242624   3.304   6.782   3.940 -0.1015 -0.0322  0.4009
 7045TIP3   OH242625   5.499   0.483   3.436 -0.1508 -0.2237 -0.8186
 7045TIP3    H142626   5.581   0.434   3.437  0.4614  0.7704  0.9657
 7045TIP3    H242627   5.507   0.541   3.360  0.1516 -1.1184 -1.4970
 7046TIP3   OH242628   2.968   0.569  15.212  0.1275  0.3265 -0.1402
 7046TIP3    H142629   2.917   0.619  15.276  0.4992  0.8534 -0.2472
 7046TIP3    H242630   3.053   0.614  15.209  1.1234 -1.3742  1.1100
 7047TIP3   OH242631   0.199   3.309   1.406 -0.0123  0.3135 -0.6418
 7047TIP3    H142632   0.251   3.374   1.454  0.2866  0.8594 -1.6709
 7047TIP3    H242633   0.114   3.351   1.392  0.2603  0.5999 -1.5201
 7048TIP3   OH242634   3.086   3.044  13.939  0.4646  0.0477 -1.1082
 7048TIP3    H142635   3.041   3.118  13.900 -0.4933  0.9073  1.4295
 7048TIP3    H242636   3.172   3.078  13.963  0.3683  0.0749 -0.7975
 7049TIP3   OH242637   0.096   5.973   2.887 -0.0051  0.4024 -0.3758
 7049TIP3    H142638   0.177   5.984   2.936  0.0082  1.0466 -0.5441
 7049TIP3    H242639   0.034   6.032   2.930  0.2376  1.6475 -1.6614
 7050TIP3   OH242640   2.357   2.495   5.121 -0.0994  0.4305 -0.1588
 7050TIP3    H142641   2.453   2.487   5.126 -0.1355 -0.9278 -1.1496
 7050TIP3    H242642   2.338   2.579   5.162  1.6035  1.1701 -0.7904
 7051TIP3   OH242643   1.428   1.448  11.957  0.2287  0.1754 -0.0254
 7051TIP3    H142644   1.475   1.365  11.965 -1.4029 -0.8197 -0.1329
 7051TIP3    H242645   1.408   1.456  11.863  0.7475  0.9165 -0.0784
 7052TIP3   OH242646   3.635   1.751  16.511 -0.5041 -0.5656  0.2281
 7052TIP3    H142647   3.618   1.754  16.417 -1.3698  0.9815  0.3962
 7052TIP3    H242648   3.599   1.833  16.544  2.0551  0.1215  1.5581
 7053TIP3   OH242649   0.595   6.751   5.064 -0.4692  0.4805 -0.3575
 7053TIP3    H142650   0.570   6.777   4.975 -0.3959  3.9927  0.4844
 7053TIP3    H242651   0.691   6.761   5.065 -0.3099 -0.9225 -0.2313
 7054TIP3   OH242652   6.059   2.395   5.983 -0.4042 -0.2298  0.0065
 7054TIP3    H142653   6.051   2.415   5.890  0.0030 -1.0386 -0.2174
 7054TIP3    H242654   6.024   2.306   5.991 -0.4892 -0.1434  0.6334
 7055TIP3   OH242655   4.069   4.700   5.206 -0.2660  0.7055 -0.0596
 7055TIP3    H142656   4.018   4.714   5.126  0.3620 -1.0794 -0.8470
 7055TIP3    H242657   4.047   4.773   5.263 -0.5921  2.1440 -1.9456
 7056TIP3   OH242658   5.073   1.984  16.405  0.7653  0.0642 -0.1449
 7056TIP3    H142659   5.073   1.889  16.395 -0.3490 -0.3269  2.6606
 7056TIP3    H242660   5.012   2.016  16.338 -0.0974 -1.3718 -0.0809
 7057TIP3   OH242661   5.592   0.329  13.403  0.7029  0.4032  0.0499
 7057TIP3    H142662   5.676   0.317  13.358 -0.8533  0.4967 -3.1383
 7057TIP3    H242663   5.537   0.258  13.371 -1.4057  2.2132 -0.6260
 7058TIP3   OH242664   6.364   1.885   5.823  0.7339 -0.0658 -0.5646
 7058TIP3    H142665   6.306   1.841   5.761  0.2306  0.4683 -0.4735
 7058TIP3    H242666   6.359   1.831   5.902 -0.7490  0.7319 -0.0750
 7059TIP3   OH242667   5.532   3.111  11.605 -0.1222  0.3956  0.4557
 7059TIP3    H142668   5.570   3.176  11.546  0.1871 -0.5455 -0.4094
 7059TIP3    H242669   5.445   3.146  11.626  0.6433  1.8674  1.3085
 7060TIP3   OH242670   6.222   0.129  16.802  0.0026  0.1427 -0.1396
 7060TIP3    H142671   6.273   0.081  16.737  0.0028 -0.9823  0.6509
 7060TIP3    H242672   6.152   0.068  16.827  0.5510  0.1543  1.5884
 7061TIP3   OH242673   2.761   5.887   1.483 -0.2857  0.0208 -0.9281
 7061TIP3    H142674   2.670   5.888   1.452  0.2369  0.0632 -2.5286
 7061TIP3    H242675   2.814   5.892   1.404  1.1401 -0.8929 -0.0858
 7062TIP3   OH242676   0.478   3.625  11.992  0.5461  0.2226 -0.2343
 7062TIP3    H142677   0.398   3.624  12.044 -0.6588 -1.1484 -2.0059
 7062TIP3    H242678   0.546   3.593  12.052 -0.1952  1.3938  1.2942
 7063TIP3   OH242679   3.337   4.592   0.179 -0.2548  0.6141 -0.5053
 7063TIP3    H142680   3.371   4.607   0.267  0.0406 -1.4994 -0.2053
 7063TIP3    H242681   3.406   4.542   0.135 -1.3348 -0.3510 -1.1649
 7064TIP3   OH242682   2.105   2.819   0.359 -0.2852  0.3209  0.5846
 7064TIP3    H142683   2.030   2.878   0.359 -0.5964 -0.0782  0.2539
 7064TIP3    H242684   2.121   2.802   0.452  0.2018  1.4174  0.7217
 7065TIP3   OH242685   5.084   5.079   5.009 -0.4335  0.3727 -0.1696
 7065TIP3    H142686   5.099   5.156   5.064 -0.3222  0.1615  0.0962
 7065TIP3    H242687   5.059   5.010   5.071 -0.5378  0.1963 -0.4076
 7066TIP3   OH242688   3.063   2.264   3.424 -0.3842 -0.2980 -0.4025
 7066TIP3    H142689   2.976   2.231   3.401 -0.7183  0.7718 -0.7145
 7066TIP3    H242690   3.110   2.267   3.341 -0.2393 -0.2961 -0.3208
 7067TIP3   OH242691   5.161   4.618  13.050 -0.1280 -0.1230  0.0456
 7067TIP3    H142692   5.145   4.598  12.957  0.6749  1.8800 -0.5677
 7067TIP3    H242693   5.081   4.662  13.079 -0.0796 -0.0623  0.0862
 7068TIP3   OH242694   6.131   6.662  16.962 -0.8138 -0.1575  0.4275
 7068TIP3    H142695   6.173   6.626  17.040 -2.2379 -2.3069  0.2999
 7068TIP3    H242696   6.164   6.609  16.890  0.3263  1.6701 -0.4643
 7069TIP3   OH242697   1.491   6.650   1.768 -0.4658 -0.3559  0.6194
 7069TIP3    H142698   1.549   6.661   1.692  0.2136 -0.5595  1.0958
 7069TIP3    H242699   1.504   6.560   1.795 -0.7281 -0.2904  0.9620
 7070TIP3   OH242700   4.429   5.324   1.187 -0.5238  0.2477 -0.3015
 7070TIP3    H142701   4.427   5.234   1.156  2.3579 -0.5957  1.5593
 7070TIP3    H242702   4.364   5.328   1.256  0.1954 -0.8215  0.4622
 7071TIP3   OH242703   1.542   0.060  13.208  0.2311 -0.4179 -0.1483
 7071TIP3    H142704   1.449   0.044  13.194  0.4794 -1.2391 -1.0112
 7071TIP3    H242705   1.545   0.129  13.274 -0.9778 -1.2649  0.8473
 7072TIP3   OH242706   2.842   5.181  16.951  1.2794 -0.5752  0.1204
 7072TIP3    H142707   2.812   5.143  16.869  1.3151 -0.6941  0.1615
 7072TIP3    H242708   2.917   5.235  16.927  0.6721  0.2026 -0.0646
 7073TIP3   OH242709   6.055   5.442  11.277 -1.0047  0.0556  0.2638
 7073TIP3    H142710   6.050   5.420  11.370 -2.1569 -0.3001  0.1196
 7073TIP3    H242711   6.121   5.512  11.274 -1.3975  0.5031  1.4259
 7074TIP3   OH242712   1.091   6.386   0.252 -0.1456  0.1678 -0.0805
 7074TIP3    H142713   1.068   6.478   0.241 -0.6655 -0.0418 -0.8575
 7074TIP3    H242714   1.093   6.351   0.163 -1.1414 -0.8431  0.2586
 7075TIP3   OH242715   5.250   0.742   0.832  0.3016  0.1551 -0.4453
 7075TIP3    H142716   5.169   0.693   0.845 -0.6645  2.0371  1.2222
 7075TIP3    H242717   5.314   0.696   0.887  0.7427 -1.9524 -2.5542
 7076TIP3   OH242718   6.582   6.122   1.850 -0.8686  0.3033 -0.2736
 7076TIP3    H142719   6.574   6.039   1.803  1.0296  1.0400 -2.0609
 7076TIP3    H242720   6.540   6.186   1.793 -2.7041  0.5879  1.2937
 7077TIP3   OH242721   1.089   1.416  15.034 -0.7500  0.0419  0.3684
 7077TIP3    H142722   1.153   1.352  15.065 -0.5058  0.4747  0.7649
 7077TIP3    H242723   1.118   1.437  14.945 -1.1922 -0.8579 -0.0041
 7078TIP3   OH242724   6.161   0.737  12.259  0.0268  0.5660 -0.2997
 7078TIP3    H142725   6.245   0.769  12.225  0.9953 -1.2951  0.2152
 7078TIP3    H242726   6.120   0.814  12.297  2.2835  1.2363  0.9849
 7079TIP3   OH242727   2.513   0.155  13.924 -0.1271 -0.6393  0.1666
 7079TIP3    H142728   2.590   0.189  13.878  1.2508 -2.1585  1.2226
 7079TIP3    H242729   2.503   0.066  13.891 -0.2808 -1.0984  1.4099
 7080TIP3   OH242730   3.203   4.437   1.068 -0.0061  0.0884  0.1887
 7080TIP3    H142731   3.133   4.447   1.131 -0.3093 -0.5903 -0.0373
 7080TIP3    H242732   3.273   4.393   1.116  0.7681  1.8648  0.7697
 7081TIP3   OH242733   5.060   6.188   0.218  0.7151 -0.5847 -0.3470
 7081TIP3    H142734   5.093   6.112   0.171  0.2138 -1.3615  0.5274
 7081TIP3    H242735   5.047   6.254   0.150  2.9882 -0.5906 -0.8754
 7082TIP3   OH242736   4.464   6.102  13.608 -0.2872  0.2521 -0.1045
 7082TIP3    H142737   4.548   6.077  13.648  0.0120  0.3379 -0.6698
 7082TIP3    H242738   4.441   6.184  13.652 -1.2700 -0.9554  1.7489
 7083TIP3   OH242739   0.401   3.099   6.069 -0.0817 -0.2411 -0.2452
 7083TIP3    H142740   0.430   3.080   6.159  0.6413  0.4535 -0.3199
 7083TIP3    H242741   0.395   3.194   6.065 -1.5975 -0.3343 -0.4968
 7084TIP3   OH242742   6.228   5.521   3.699  1.0437  0.2502  0.3793
 7084TIP3    H142743   6.263   5.601   3.660  3.1249 -0.5557  0.4735
 7084TIP3    H242744   6.276   5.450   3.656  0.1649 -0.8874  1.2014
 7085TIP3   OH242745   2.773   1.294   0.599  0.2887  0.1449 -0.2117
 7085TIP3    H142746   2.698   1.351   0.583  1.4751  1.3422 -1.8493
 7085TIP3    H242747   2.806   1.272   0.512  2.5801  0.6728  0.4446
 7086TIP3   OH242748   0.573   4.364   4.513  0.0054 -0.5703  0.1952
 7086TIP3    H142749   0.518   4.298   4.557 -1.4289  0.2962 -0.2568
 7086TIP3    H242750   0.613   4.413   4.585 -1.0588 -0.2036  0.5518
 7087TIP3   OH242751   2.059   2.613  15.726  0.6117  0.0349  0.0627
 7087TIP3    H142752   2.106   2.657  15.655  1.1048 -1.5080 -0.5930
 7087TIP3    H242753   1.973   2.656  15.728  0.1644 -0.6408 -2.2256
 7088TIP3   OH242754   5.185   4.091   4.630 -0.1362 -0.1738 -0.3825
 7088TIP3    H142755   5.217   4.021   4.686  1.1089  0.1092 -0.7162
 7088TIP3    H242756   5.104   4.057   4.592  0.7083 -1.6295 -0.9237
 7089TIP3   OH242757   6.399   2.603   2.654 -0.5673 -0.1572  0.7744
 7089TIP3    H142758   6.373   2.527   2.603  0.6681 -1.5074  2.0589
 7089TIP3    H242759   6.470   2.644   2.604  0.1109 -1.0244  0.9987
 7090TIP3   OH242760   0.424   4.567  10.602 -0.3075  0.6100 -0.4207
 7090TIP3    H142761   0.425   4.657  10.635 -0.7425 -0.7984  4.1233
 7090TIP3    H242762   0.515   4.540  10.602 -0.2756  0.7193 -0.6939
 7091TIP3   OH242763   2.439   2.572   0.755 -0.4072 -0.3250 -0.0532
 7091TIP3    H142764   2.385   2.624   0.814 -0.0029  0.1432 -0.0852
 7091TIP3    H242765   2.447   2.625   0.676 -0.2191 -0.5604 -0.1948
 7092TIP3   OH242766   2.138   0.682   0.465  0.0026  0.4435  0.3529
 7092TIP3    H142767   2.067   0.745   0.467 -2.4489 -2.1406  2.0052
 7092TIP3    H242768   2.130   0.639   0.379  1.7122  2.2475 -0.7993
 7093TIP3   OH242769   4.051   2.602  10.859 -0.3186  0.1657  0.1307
 7093TIP3    H142770   4.083   2.598  10.768  1.2225  1.5385  0.5542
 7093TIP3    H242771   4.111   2.546  10.908 -0.2669  0.5438  0.5098
 7094TIP3   OH242772   2.809   6.042   5.605  0.0476 -0.7471 -0.1614
 7094TIP3    H142773   2.870   6.012   5.538  0.6175  1.2076 -0.5779
 7094TIP3    H242774   2.735   5.982   5.598 -1.2188  0.9237 -4.5684
 7095TIP3   OH242775   1.403   2.505   1.612 -0.0138  0.0723 -0.1963
 7095TIP3    H142776   1.374   2.574   1.554  1.8977  0.0658 -1.2381
 7095TIP3    H242777   1.496   2.524   1.629  0.0115 -1.0504  1.2210
 7096TIP3   OH242778   6.149   6.300  11.416 -0.2022  0.5551  0.3784
 7096TIP3    H142779   6.100   6.378  11.390 -0.4267 -0.2429 -1.8407
 7096TIP3    H242780   6.241   6.327  11.411 -0.2880  0.7894  0.0340
 7097TIP3   OH242781   6.368   3.576  15.347  0.6970 -0.4749 -0.1480
 7097TIP3    H142782   6.443   3.634  15.351  1.1787 -1.1370  1.6782
 7097TIP3    H242783   6.406   3.488  15.343 -0.0105 -0.7230 -2.2320
 7098TIP3   OH242784   1.494   2.112  14.375  0.4362  0.2277 -0.4639
 7098TIP3    H142785   1.491   2.119  14.280  1.6294  2.4483 -0.4003
 7098TIP3    H242786   1.423   2.167  14.406 -0.8767 -1.6074 -0.0172
 7099TIP3   OH242787   4.901   2.957  12.477  0.2771 -0.9639 -0.6561
 7099TIP3    H142788   4.821   3.001  12.448  0.9727 -0.3221 -1.6863
 7099TIP3    H242789   4.972   3.006  12.435  1.1323 -2.4776 -1.0674
 7100TIP3   OH242790   5.233   3.444  11.470 -0.6436  0.2090 -0.5216
 7100TIP3    H142791   5.237   3.360  11.424  0.5748  1.7811 -3.5216
 7100TIP3    H242792   5.143   3.473  11.458 -1.1312 -0.6894  0.7085
 7101TIP3   OH242793   0.801   2.096   6.009 -0.7280 -0.1261  0.9076
 7101TIP3    H142794   0.744   2.139   5.944  2.3402  3.0425 -0.0106
 7101TIP3    H242795   0.811   2.007   5.977 -2.2608  0.2792 -0.8853
 7102TIP3   OH242796   2.922   0.110  14.599  0.3846 -0.0878  0.6375
 7102TIP3    H142797   2.858   0.049  14.562  1.5450 -1.0436  0.1214
 7102TIP3    H242798   2.906   0.192  14.552 -0.1601 -0.4415  0.1840
 7103TIP3   OH242799   4.879   5.723   1.300 -0.2966  0.2441 -0.0166
 7103TIP3    H142800   4.871   5.640   1.347  1.4440  0.8595  1.4948
 7103TIP3    H242801   4.857   5.702   1.209 -0.1698 -1.8023  0.3905
 7104TIP3   OH242802   4.593   3.097   2.979 -0.0087  0.1272 -1.0106
 7104TIP3    H142803   4.553   3.179   2.950  0.0578  0.2799 -0.6781
 7104TIP3    H242804   4.630   3.059   2.900  1.9606  1.5273 -0.8344
 7105TIP3   OH242805   6.800   1.700   5.663  0.0151  0.0900 -0.5102
 7105TIP3    H142806   6.744   1.628   5.691 -0.5351 -0.2529 -2.3359
 7105TIP3    H242807   6.888   1.664   5.661 -0.1038 -0.2046 -0.3501
 7106TIP3   OH242808   5.129   1.434   4.472 -0.4979  0.5328 -0.3601
 7106TIP3    H142809   5.174   1.454   4.390  0.5709 -0.6395 -0.1004
 7106TIP3    H242810   5.154   1.504   4.532  0.3791  0.3083 -0.4515
 7107TIP3   OH242811   0.488   0.007   4.802 -0.3128  0.1372  0.2932
 7107TIP3    H142812   0.571  -0.028   4.770 -0.4072  1.2376 -1.2968
 7107TIP3    H242813   0.423  -0.058   4.776 -0.1843  0.2716 -0.3936
 7108TIP3   OH242814   4.902   3.602  15.363  0.2648  0.0086 -0.0490
 7108TIP3    H142815   4.992   3.581  15.338 -0.0864 -1.9282  0.2039
 7108TIP3    H242816   4.881   3.680  15.312  0.9599 -1.4026 -2.6799
 7109TIP3   OH242817   5.653   1.026  11.724 -0.6872 -0.0743 -0.0470
 7109TIP3    H142818   5.707   1.020  11.803 -1.7285  2.1651  0.9046
 7109TIP3    H242819   5.709   1.069  11.660 -0.1193 -1.1434 -0.2865
 7110TIP3   OH242820   0.581   0.110  16.433 -0.4601  0.2898  0.0193
 7110TIP3    H142821   0.500   0.072  16.468  0.3795  0.4162  2.2860
 7110TIP3    H242822   0.603   0.055  16.358 -1.5606 -1.0219  0.6020
 7111TIP3   OH242823   4.814   0.700  15.407  0.5070  0.0999 -0.2498
 7111TIP3    H142824   4.882   0.653  15.455 -0.1864  0.6319  1.3634
 7111TIP3    H242825   4.762   0.742  15.476 -2.4755 -1.6485 -1.2477
 7112TIP3   OH242826   1.996   1.741  17.189 -0.0947 -0.5720  0.0792
 7112TIP3    H142827   2.031   1.821  17.148 -0.6638  1.0913  2.5579
 7112TIP3    H242828   2.073   1.700  17.229 -0.1414  0.1737  0.9759
 7113TIP3   OH242829   1.678   5.197  16.476 -0.0130  0.3934  0.4379
 7113TIP3    H142830   1.598   5.247  16.461  0.6591  1.0350 -1.1427
 7113TIP3    H242831   1.679   5.184  16.571 -1.1061  1.8607  0.6964
 7114TIP3   OH242832   0.176   2.384   6.305 -0.5786  0.3915 -0.0413
 7114TIP3    H142833   0.212   2.456   6.357 -0.1539 -0.6275  1.1305
 7114TIP3    H242834   0.096   2.359   6.351 -1.1216  0.5710 -0.8593
 7115TIP3   OH242835   2.449   5.867   3.106 -1.0079 -0.4746  0.2757
 7115TIP3    H142836   2.413   5.955   3.097  0.5054  0.3552  1.8110
 7115TIP3    H242837   2.459   5.836   3.016 -0.5946  1.3523 -0.3430
 7116TIP3   OH242838   5.368   2.783  14.031  0.1042 -0.5734  0.3956
 7116TIP3    H142839   5.392   2.703  13.983 -0.9877 -1.0980  0.6956
 7116TIP3    H242840   5.439   2.794  14.095  0.1355 -1.4569  0.5271
 7117TIP3   OH242841   1.085   3.663   3.070 -0.4275  0.2470  0.1633
 7117TIP3    H142842   1.110   3.609   3.145  2.1267  0.1197 -0.6724
 7117TIP3    H242843   1.111   3.611   2.994  0.1050  1.7555 -0.7232
 7118TIP3   OH242844   1.646   6.098  13.275 -0.0076 -0.1866  0.4918
 7118TIP3    H142845   1.663   6.188  13.300 -1.1823  0.5397 -1.1268
 7118TIP3    H242846   1.593   6.062  13.346  1.2509  0.0800  1.5942
 7119TIP3   OH242847   2.114   3.249  15.418 -0.0083 -0.3449 -0.4156
 7119TIP3    H142848   2.092   3.157  15.433  0.0720 -0.6773 -2.1511
 7119TIP3    H242849   2.036   3.298  15.444  0.0224 -0.8740  0.7089
 7120TIP3   OH242850   1.864   5.889   2.475 -0.2457 -0.5389 -0.1088
 7120TIP3    H142851   1.920   5.811   2.469  0.5276  0.1004 -2.1580
 7120TIP3    H242852   1.775   5.856   2.464  0.0171 -1.2176 -0.2398
 7121TIP3   OH242853   3.341   3.273   0.896 -0.0541  0.2184 -0.1086
 7121TIP3    H142854   3.437   3.277   0.897  0.0091  1.2010 -2.5024
 7121TIP3    H242855   3.316   3.259   0.987  2.3775 -0.6220  0.4877
 7122TIP3   OH242856   3.124   5.671  12.520  0.3843  0.4010  0.1773
 7122TIP3    H142857   3.164   5.608  12.460 -0.1764  0.4956 -0.3034
 7122TIP3    H242858   3.132   5.630  12.606  0.8974  0.1127  0.0010
 7123TIP3   OH242859   2.490   1.977  11.267  0.0071 -0.0356  0.1936
 7123TIP3    H142860   2.461   1.998  11.356 -0.7136  0.7314 -0.2180
 7123TIP3    H242861   2.416   1.932  11.227 -0.0023  0.4047 -0.3012
 7124TIP3   OH242862   6.287   1.406   0.405 -0.2454  0.0582 -0.3866
 7124TIP3    H142863   6.207   1.353   0.406  0.6875 -1.4635  1.5394
 7124TIP3    H242864   6.337   1.372   0.331 -0.5709 -0.2890 -0.4497
 7125TIP3   OH242865   3.742   3.431  11.130  0.0462 -0.1868  0.6428
 7125TIP3    H142866   3.812   3.468  11.077  1.8710 -2.8825  1.0134
 7125TIP3    H242867   3.767   3.451  11.221 -0.8411  0.6956  0.7156
 7126TIP3   OH242868   2.810   0.635   3.962  0.5875 -0.0245  0.1182
 7126TIP3    H142869   2.873   0.677   3.903 -1.9158  1.6234 -1.5927
 7126TIP3    H242870   2.737   0.697   3.967 -0.2490 -1.0667  3.3591
 7127TIP3   OH242871   6.137   4.410   2.509  0.5916  0.2548 -0.1393
 7127TIP3    H142872   6.224   4.426   2.471  0.5276  0.6892 -0.1083
 7127TIP3    H242873   6.085   4.377   2.435 -0.0710  2.9127 -0.9565
 7128TIP3   OH242874   3.494   0.444  11.057  0.1090  0.6658  0.1303
 7128TIP3    H142875   3.479   0.389  10.980 -1.8927  1.1427  0.1255
 7128TIP3    H242876   3.492   0.383  11.131  1.1103  0.3352 -0.0967
 7129TIP3   OH242877   5.806   0.768  14.672 -0.1145  0.0073  0.4460
 7129TIP3    H142878   5.882   0.762  14.731 -0.5647  0.5644  1.0957
 7129TIP3    H242879   5.844   0.762  14.585  0.5544 -1.0097  0.7764
 7130TIP3   OH242880   5.919   4.803   3.436 -0.6180  0.1502 -0.1517
 7130TIP3    H142881   5.984   4.735   3.418  0.2499  0.6629  0.9002
 7130TIP3    H242882   5.858   4.763   3.498  0.5641  0.6490  1.4044
 7131TIP3   OH242883   3.611   4.957  13.572  0.1960  0.2079 -0.5057
 7131TIP3    H142884   3.638   4.972  13.663  0.0665  1.7380 -0.6808
 7131TIP3    H242885   3.549   5.028  13.553 -0.2476 -0.4366 -1.6074
 7132TIP3   OH242886   3.237   3.349  12.522  0.4442  0.0629 -0.2024
 7132TIP3    H142887   3.246   3.440  12.548 -1.6046 -0.0245  1.0443
 7132TIP3    H242888   3.145   3.328  12.538  0.9740 -2.3848  0.0740
 7133TIP3   OH242889   5.475   4.143  14.249  0.1501  0.3728 -0.1684
 7133TIP3    H142890   5.563   4.136  14.286  0.2951 -0.9916 -0.7043
 7133TIP3    H242891   5.445   4.052  14.242 -0.3861  0.6574 -2.1683
 7134TIP3   OH242892   6.530   0.871   5.370 -0.0348  0.2573 -0.6044
 7134TIP3    H142893   6.501   0.937   5.307 -0.1286 -2.7181 -3.9572
 7134TIP3    H242894   6.458   0.808   5.373  0.5765 -0.4100  1.4729
 7135TIP3   OH242895   5.699   0.594   3.769  0.2486 -0.1173 -0.2010
 7135TIP3    H142896   5.717   0.501   3.779 -3.8718 -0.9574  1.4698
 7135TIP3    H242897   5.670   0.623   3.856 -1.4942  1.9095 -1.3565
 7136TIP3   OH242898   2.120   4.630  16.844 -0.0746  0.2535 -0.0807
 7136TIP3    H142899   2.087   4.707  16.890  1.2428  0.6527  0.2290
 7136TIP3    H242900   2.173   4.584  16.910 -0.4789 -0.6782 -0.3935
 7137TIP3   OH242901   3.340   1.051  12.877  0.3246 -0.3535  0.7494
 7137TIP3    H142902   3.289   0.971  12.887 -1.0040  0.5523  1.7737
 7137TIP3    H242903   3.286   1.107  12.821 -0.5468  1.1158  2.8949
 7138TIP3   OH242904   3.739   0.475   5.915 -0.4826  0.2584 -0.2457
 7138TIP3    H142905   3.741   0.454   5.821 -0.8564  0.5635 -0.3275
 7138TIP3    H242906   3.823   0.444   5.948  0.4044  1.6671 -1.0257
 7139TIP3   OH242907   6.074   3.977   5.348  0.2221 -0.0870 -0.2182
 7139TIP3    H142908   6.027   3.894   5.343 -0.6249  0.4260 -1.0053
 7139TIP3    H242909   6.167   3.952   5.349 -0.0302 -1.0952  1.0384
 7140TIP3   OH242910   4.411   5.481  15.049 -0.5091 -0.3479 -0.3014
 7140TIP3    H142911   4.390   5.401  15.000 -0.1410  0.6504 -2.1869
 7140TIP3    H242912   4.356   5.476  15.127 -2.0940 -1.4314 -1.4159
 7141TIP3   OH242913   3.264   3.480  17.035  0.0030 -0.0934 -0.3707
 7141TIP3    H142914   3.218   3.483  16.952 -0.1409  0.0245 -0.2875
 7141TIP3    H242915   3.274   3.387  17.055  0.3078 -0.1255 -0.6671
 7142TIP3   OH242916   0.665   3.455  14.833  0.5982 -0.4967 -0.7837
 7142TIP3    H142917   0.709   3.370  14.823 -0.5755 -1.0094 -1.9929
 7142TIP3    H242918   0.610   3.444  14.910 -0.3931 -1.2654 -1.5628
 7143TIP3   OH242919   6.490   3.354  10.983 -0.4640  0.7412 -0.1722
 7143TIP3    H142920   6.581   3.360  11.013 -0.2728  3.3440 -1.0654
 7143TIP3    H242921   6.439   3.386  11.057 -0.6608 -0.2904  0.1599
 7144TIP3   OH242922   6.349   0.879  11.991  0.1665  0.3960  0.8076
 7144TIP3    H142923   6.402   0.933  11.933 -1.0932  0.6013 -0.1954
 7144TIP3    H242924   6.383   0.898  12.079  0.4838  2.0037  0.3783
 7145TIP3   OH242925   1.834   6.713  12.979  0.7773  0.0964  0.3498
 7145TIP3    H142926   1.893   6.699  12.904  1.1117 -0.0615  0.6380
 7145TIP3    H242927   1.875   6.784  13.029  1.2539 -0.6763  1.0798
 7146TIP3   OH242928   2.934   6.034  10.779  0.7265 -0.0641  0.3829
 7146TIP3    H142929   2.937   5.972  10.852 -0.2598  0.4272  0.8617
 7146TIP3    H242930   2.939   5.980  10.701  1.0193 -0.6576  0.8070
 7147TIP3   OH242931   3.183   5.940  11.053  0.6538  0.0165  0.3914
 7147TIP3    H142932   3.118   5.908  10.991  0.5187  0.5261  0.2627
 7147TIP3    H242933   3.151   5.911  11.139  1.4102 -1.6542  0.1569
 7148TIP3   OH242934   0.242   1.902   2.591  0.2691 -0.5581 -0.3383
 7148TIP3    H142935   0.261   1.992   2.618  1.3452 -1.3277  1.7257
 7148TIP3    H242936   0.162   1.879   2.637 -0.5337 -0.3890 -1.6040
 7149TIP3   OH242937   0.874   3.989   0.298  0.1978  0.3197  0.1451
 7149TIP3    H142938   0.898   3.953   0.213 -0.3457  0.2792  0.0046
 7149TIP3    H242939   0.929   3.943   0.360  0.8808  0.6306 -0.2228
 7150TIP3   OH242940   5.730   1.758  17.074  0.0187  0.6456  0.3553
 7150TIP3    H142941   5.802   1.818  17.088  0.6186  0.1171 -0.3791
 7150TIP3    H242942   5.683   1.794  16.999  2.8950 -1.9509 -3.0538
 7151TIP3   OH242943   5.218   1.105   5.638 -0.0718 -0.0657 -0.5744
 7151TIP3    H142944   5.156   1.169   5.604 -2.2509 -2.0286 -0.6040
 7151TIP3    H242945   5.207   1.110   5.733 -0.4808 -0.5776 -0.5901
 7152TIP3   OH242946   3.523   1.983   4.005 -0.8519 -0.0121 -0.2748
 7152TIP3    H142947   3.470   2.040   3.950 -0.0488  0.5945 -0.4308
 7152TIP3    H242948   3.611   2.019   4.000 -0.3905 -1.0723 -0.1054
 7153TIP3   OH242949   0.360   6.490  12.095  0.4675 -0.3541  1.1491
 7153TIP3    H142950   0.443   6.492  12.142  0.4622 -0.3382  1.1575
 7153TIP3    H242951   0.331   6.581  12.093  0.8099 -0.2500  0.5140
 7154TIP3   OH242952   1.113   3.821   2.654  0.1601  0.3042  0.2329
 7154TIP3    H142953   1.074   3.829   2.567  1.0604 -1.0570 -0.3330
 7154TIP3    H242954   1.197   3.776   2.638  0.9503  1.2003  1.6502
 7155TIP3   OH242955   4.807   4.473  14.244  0.5287  0.2010 -1.0886
 7155TIP3    H142956   4.894   4.457  14.208  1.2192  0.8264  0.2080
 7155TIP3    H242957   4.792   4.567  14.229  0.1403  0.1214 -1.2014
 7156TIP3   OH242958   2.873   1.574  12.358  0.2893  0.5594 -0.1782
 7156TIP3    H142959   2.934   1.557  12.286  0.2419 -0.6755  0.0550
 7156TIP3    H242960   2.786   1.565  12.317  0.2285 -1.7146  0.3092
 7157TIP3   OH242961   4.074   6.711  11.917  1.0108  0.4089  0.1926
 7157TIP3    H142962   4.054   6.734  11.826 -0.2797 -1.8096 -0.1520
 7157TIP3    H242963   4.076   6.795  11.963 -0.3554  1.4380 -1.5046
 7158TIP3   OH242964   3.442   3.699  13.309 -0.6454  0.1678  0.0201
 7158TIP3    H142965   3.512   3.675  13.369 -0.5623  1.0384  0.2816
 7158TIP3    H242966   3.371   3.637  13.328  0.0015 -0.6514 -0.1784
 7159TIP3   OH242967   6.534   6.094   5.041  0.2897 -0.1451 -0.0549
 7159TIP3    H142968   6.530   6.184   5.010  0.6175 -0.9721 -2.7183
 7159TIP3    H242969   6.444   6.072   5.063  0.0724  0.5643 -0.2077
 7160TIP3   OH242970   3.006   2.368  13.848  0.7477  0.1836  0.4157
 7160TIP3    H142971   3.089   2.320  13.852  0.0425 -1.1792 -0.4131
 7160TIP3    H242972   2.972   2.363  13.938  0.2745 -1.7109  0.1705
 7161TIP3   OH242973   5.278   5.455  13.600  0.2576 -0.0478  0.2343
 7161TIP3    H142974   5.256   5.367  13.632 -0.4490  0.0705  0.0973
 7161TIP3    H242975   5.337   5.490  13.666  1.5646 -1.0902 -0.3483
 7162TIP3   OH242976   1.038   4.258   5.350  0.3575 -0.2767  0.1892
 7162TIP3    H142977   1.114   4.252   5.408  1.3994  3.2916 -0.5510
 7162TIP3    H242978   0.968   4.292   5.406  0.4309  0.0787  0.0689
 7163TIP3   OH242979   2.915   2.477   0.334 -0.5692  0.2501 -0.4530
 7163TIP3    H142980   2.880   2.477   0.423  1.1796  0.3411  0.2661
 7163TIP3    H242981   2.967   2.557   0.329 -1.0373  0.4945 -1.7292
 7164TIP3   OH242982   0.857   1.036  11.850  0.3097 -0.5469 -0.3339
 7164TIP3    H142983   0.886   1.072  11.766  1.4516  1.0144  0.6748
 7164TIP3    H242984   0.773   1.079  11.867  0.0687 -0.8785 -0.6804
 7165TIP3   OH242985   5.171   2.808   2.960 -0.0584  0.3100 -0.2361
 7165TIP3    H142986   5.259   2.843   2.951  1.3674 -2.8071  0.2500
 7165TIP3    H242987   5.155   2.762   2.878 -1.5212  1.2920 -0.5465
 7166TIP3   OH242988   5.302   3.545  14.208  0.2407 -0.3651  0.2128
 7166TIP3    H142989   5.239   3.545  14.136 -0.5276 -1.2365  0.8661
 7166TIP3    H242990   5.325   3.638  14.219  0.1380 -0.1899 -0.9402
 7167TIP3   OH242991   3.929   5.965  14.358 -0.3101  0.3017  0.2734
 7167TIP3    H142992   3.920   5.881  14.403 -0.1040  0.0962 -0.0672
 7167TIP3    H242993   3.881   6.027  14.413  2.3443  0.6761  2.4181
 7168TIP3   OH242994   3.254   0.927   2.225 -0.3940 -0.0310 -0.0932
 7168TIP3    H142995   3.162   0.901   2.215 -0.2545 -0.0664 -1.3937
 7168TIP3    H242996   3.304   0.851   2.197  0.0751 -0.5443  1.9987
 7169TIP3   OH242997   3.940   4.548  16.607 -0.4056 -1.0953 -0.2904
 7169TIP3    H142998   3.900   4.624  16.649 -0.5711 -0.3782 -1.6779
 7169TIP3    H242999   4.027   4.542  16.646  0.1585  0.7004 -1.1728
 7170TIP3   OH243000   4.473   3.113  16.568 -0.2292 -0.2553 -0.3014
 7170TIP3    H143001   4.455   3.161  16.488 -0.6632 -1.2308 -0.8121
 7170TIP3    H243002   4.566   3.090  16.563 -0.0255  0.5032 -0.0598
 7171TIP3   OH243003   3.113   4.655  16.294  0.1245 -0.6533  0.0429
 7171TIP3    H143004   3.083   4.729  16.242 -0.0171 -1.2414 -0.7360
 7171TIP3    H243005   3.191   4.623  16.249  0.5713 -0.5771  0.7446
 7172TIP3   OH243006   1.742   1.387   0.317  0.3383 -0.4529  0.1477
 7172TIP3    H143007   1.760   1.453   0.384  0.5670 -0.6477  0.2812
 7172TIP3    H243008   1.692   1.434   0.250  1.2265  0.0764 -0.1709
 7173TIP3   OH243009   2.373   5.708  15.928  0.2919  0.5221  0.4756
 7173TIP3    H143010   2.347   5.797  15.903 -1.5665  0.1152  0.8351
 7173TIP3    H243011   2.343   5.699  16.019  0.0032 -0.6408  0.2800
 7174TIP3   OH243012   3.335   5.709  12.144  0.0915  0.2838  0.0720
 7174TIP3    H143013   3.401   5.669  12.201  0.6921  0.0869 -0.7380
 7174TIP3    H243014   3.251   5.676  12.177  0.3061  1.3025  1.7216
 7175TIP3   OH243015   4.070   0.273   5.197 -0.1066 -0.3959  0.1026
 7175TIP3    H143016   4.101   0.301   5.284 -2.1130 -1.4852  1.2473
 7175TIP3    H243017   4.101   0.342   5.138  1.2438  0.4425  1.6741
 7176TIP3   OH243018   5.782   2.560  14.278  0.4885  0.8486  0.0814
 7176TIP3    H143019   5.825   2.525  14.356  2.0074  3.4943  0.5451
 7176TIP3    H243020   5.695   2.587  14.308 -0.1809 -1.0226  0.0208
 7177TIP3   OH243021   4.881   3.825   2.171 -0.0329 -0.8784  0.7044
 7177TIP3    H143022   4.929   3.892   2.219  1.9306 -0.7727 -1.2535
 7177TIP3    H243023   4.834   3.873   2.102  0.3506 -1.3746  0.0861
 7178TIP3   OH243024   5.460   0.290   1.539 -0.3322 -0.1224 -0.6538
 7178TIP3    H143025   5.432   0.380   1.557  0.3575 -0.1717  0.7910
 7178TIP3    H243026   5.379   0.241   1.526 -0.7609  0.4755 -0.2701
 7179TIP3   OH243027   1.057   1.547  12.720  0.2311 -0.4922  0.1706
 7179TIP3    H143028   1.063   1.630  12.768  1.5097 -1.3305  1.5522
 7179TIP3    H243029   0.998   1.493  12.772 -0.5693 -0.4891 -0.7060
 7180TIP3   OH243030   4.991   0.826   1.785  0.5219 -0.7754  0.3036
 7180TIP3    H143031   4.938   0.760   1.740  0.4049 -0.5346  0.0861
 7180TIP3    H243032   4.988   0.903   1.727  0.4735 -0.5059  0.6602
 7181TIP3   OH243033   2.880   4.559  14.761 -0.3841  0.2477  0.4561
 7181TIP3    H143034   2.975   4.573  14.771 -0.1945 -0.6739  0.0563
 7181TIP3    H243035   2.873   4.475  14.717 -1.4059  0.1526  0.7740
 7182TIP3   OH243036   2.911   5.838  11.737  0.2363  0.4633  0.2553
 7182TIP3    H143037   2.836   5.888  11.704  0.4689  0.7338  0.1202
 7182TIP3    H243038   2.983   5.865  11.680  0.0867 -1.0493 -0.6984
 7183TIP3   OH243039   2.865   3.555   4.952 -0.3965  0.1209 -0.0798
 7183TIP3    H143040   2.790   3.497   4.958  0.8596 -1.5976 -0.2335
 7183TIP3    H243041   2.828   3.642   4.936 -2.3313 -0.6164  0.2087
 7184TIP3   OH243042   5.303   3.979   2.780 -0.2611 -0.1286  0.5705
 7184TIP3    H143043   5.238   4.039   2.815  1.7268  2.1352  0.6442
 7184TIP3    H243044   5.253   3.900   2.758 -3.1675  1.7641 -0.2242
 7185TIP3   OH243045   5.133   2.843  15.699 -0.4688  0.2445 -0.0745
 7185TIP3    H143046   5.154   2.852  15.791  2.3250  0.6957 -0.6867
 7185TIP3    H243047   5.140   2.932  15.664  1.6111 -0.3197 -1.2512
 7186TIP3   OH243048   0.432   3.137  14.783  0.0930  0.0943  0.0486
 7186TIP3    H143049   0.374   3.093  14.846 -1.0277  1.3507 -0.0625
 7186TIP3    H243050   0.496   3.070  14.759  1.0357 -0.2630  3.0624
 7187TIP3   OH243051   0.668   6.365   1.500 -0.4365 -0.0890 -0.1620
 7187TIP3    H143052   0.654   6.385   1.408  0.4627 -2.5633 -0.9093
 7187TIP3    H243053   0.759   6.389   1.517 -0.0932 -1.1375 -0.4137
 7188TIP3   OH243054   5.430   4.444  16.370  0.6418  0.2056  0.1833
 7188TIP3    H143055   5.406   4.479  16.284 -2.6827 -0.3906  0.7427
 7188TIP3    H243056   5.460   4.355  16.352 -0.4110 -0.0608 -0.3876
 7189TIP3   OH243057   2.122   4.140  15.281  0.7044  0.3555  0.7019
 7189TIP3    H143058   2.169   4.218  15.309 -0.8077  0.8582  1.9697
 7189TIP3    H243059   2.155   4.070  15.338  1.2705  0.2966  0.3050
 7190TIP3   OH243060   5.193   3.064  13.930 -0.2676  0.6725 -0.5062
 7190TIP3    H143061   5.271   3.009  13.938  0.1053  1.0769 -1.3061
 7190TIP3    H243062   5.227   3.152  13.915 -0.8771  0.7627 -1.4436
 7191TIP3   OH243063   6.709   2.566  16.505  0.2458 -0.3104  0.0152
 7191TIP3    H143064   6.617   2.556  16.480 -0.6215 -0.4144  2.9298
 7191TIP3    H243065   6.727   2.660  16.497 -0.3517 -0.1845  0.1583
 7192TIP3   OH243066   3.894   2.486  14.631 -0.2878 -0.4516 -0.1939
 7192TIP3    H143067   3.923   2.577  14.636 -0.7004 -0.3571  0.5240
 7192TIP3    H243068   3.948   2.441  14.696 -0.0544 -0.7402 -0.5765
 7193TIP3   OH243069   0.215   6.607  13.879 -0.5737 -0.1202  0.6141
 7193TIP3    H143070   0.200   6.565  13.795  0.8453 -1.9434  1.2081
 7193TIP3    H243071   0.270   6.683  13.859  1.3443 -1.5760  0.0269
 7194TIP3   OH243072   3.453   0.430  15.715  0.5871  0.0261 -0.3871
 7194TIP3    H143073   3.515   0.399  15.780 -0.2541 -1.0336 -0.0701
 7194TIP3    H243074   3.503   0.492  15.662  0.9702  1.8198  1.9575
 7195TIP3   OH243075   4.135   1.513  13.482  0.1883 -0.4784 -0.1185
 7195TIP3    H143076   4.074   1.556  13.422  0.1559  0.8724  0.8302
 7195TIP3    H243077   4.085   1.500  13.563  0.0052 -2.9459 -0.5426
 7196TIP3   OH243078   4.526   5.591  16.439  0.5156  0.3929 -0.0101
 7196TIP3    H143079   4.554   5.582  16.530  2.5482  3.3972 -0.1866
 7196TIP3    H243080   4.604   5.572  16.387  1.5306  5.1360 -0.6896
 7197TIP3   OH243081   3.869   5.163  16.412 -0.6125 -0.2269 -0.1378
 7197TIP3    H143082   3.818   5.082  16.410 -1.3452  0.2119  0.3953
 7197TIP3    H243083   3.893   5.179  16.320 -0.2582 -1.1639 -0.2195
 7198TIP3   OH243084   1.548   1.291   1.347 -0.1894 -0.2723  0.5716
 7198TIP3    H143085   1.638   1.322   1.338 -0.3107  0.3852  1.5454
 7198TIP3    H243086   1.514   1.291   1.258  1.5014 -2.8311 -0.1834
 7199TIP3   OH243087   4.997   3.016  10.580 -0.1289 -0.4587 -0.2143
 7199TIP3    H143088   5.019   3.073  10.653  2.9859 -0.0050 -1.3672
 7199TIP3    H243089   5.008   3.072  10.502 -0.1041 -1.8088 -1.2076
 7200TIP3   OH243090   6.075   2.211  17.183  0.1456 -0.7721 -0.7081
 7200TIP3    H143091   6.014   2.167  17.242  0.8308  0.4384  1.0032
 7200TIP3    H243092   6.162   2.190  17.217  0.5971 -0.5306 -1.6572
 7201TIP3   OH243093   0.084   4.991   5.533 -0.4408  0.7944 -0.5079
 7201TIP3    H143094   0.077   4.898   5.550  1.4393  0.5855 -0.5871
 7201TIP3    H243095  -0.005   5.020   5.515 -1.3089 -0.6246  1.2496
 7202TIP3   OH243096   5.587   4.881   3.116 -0.1316 -0.0787  0.3165
 7202TIP3    H143097   5.660   4.845   3.064 -0.2646 -0.0562  0.1126
 7202TIP3    H243098   5.627   4.951   3.168  0.4387 -1.4862  1.8335
 7203TIP3   OH243099   5.127   1.563   1.262  0.5104  0.2725  0.5974
 7203TIP3    H143100   5.048   1.587   1.213  2.5089  1.9577 -2.1600
 7203TIP3    H243101   5.119   1.611   1.344 -2.1608 -1.1609  1.2807
 7204TIP3   OH243102   6.630   3.163   0.938  0.0846  0.6239 -0.3026
 7204TIP3    H143103   6.676   3.086   0.972  0.6036  0.5655 -1.1077
 7204TIP3    H243104   6.655   3.167   0.846  0.7261  2.2422 -0.0823
 7205TIP3   OH243105   4.749   4.641  16.409  0.5179  0.3117  0.4072
 7205TIP3    H143106   4.679   4.623  16.346  1.2061  1.6383 -0.7770
 7205TIP3    H243107   4.814   4.572  16.394 -1.2887 -2.1393  2.8480
 7206TIP3   OH243108   1.786   0.447  16.096  0.3235 -0.4587  0.2155
 7206TIP3    H143109   1.776   0.382  16.026 -0.1420 -0.3582  0.1825
 7206TIP3    H243110   1.824   0.523  16.052 -0.7026 -0.1160 -0.0986
 7207TIP3   OH243111   6.355   6.274  16.819 -0.7548  0.4982  0.0324
 7207TIP3    H143112   6.419   6.343  16.801 -1.1119  0.6528 -0.6848
 7207TIP3    H243113   6.338   6.234  16.733  0.2168 -1.1739  0.5726
 7208TIP3   OH243114   3.030   2.783   4.295  0.0539 -0.0274  0.1974
 7208TIP3    H143115   3.071   2.746   4.217 -2.4493 -0.9431 -0.7538
 7208TIP3    H243116   3.072   2.737   4.368  1.0280 -0.5817 -0.6898
 7209TIP3   OH243117   6.060   6.631   0.095 -0.2072 -0.4510  0.0685
 7209TIP3    H143118   5.980   6.659   0.052 -1.1776 -0.0466  1.9973
 7209TIP3    H243119   6.049   6.537   0.110 -1.5869  0.0236  2.6374
 7210TIP3   OH243120   4.746   5.914  12.684 -0.4420 -0.0310 -0.1405
 7210TIP3    H143121   4.827   5.865  12.668  1.0683  1.8890  1.0097
 7210TIP3    H243122   4.742   5.977  12.613 -1.0189 -0.2204 -0.2764
 7211TIP3   OH243123   0.994   4.178  13.193  0.0711 -0.0516 -0.2087
 7211TIP3    H143124   0.901   4.182  13.168  0.1638  0.3209 -0.5164
 7211TIP3    H243125   1.012   4.266  13.227  0.0519 -0.4377  0.8079
 7212TIP3   OH243126   6.084   6.044   1.349  0.6768  0.1577  0.2171
 7212TIP3    H143127   6.098   6.120   1.294 -1.0743  0.1848 -0.2519
 7212TIP3    H243128   6.117   5.970   1.298  0.6961  0.3958 -0.1154
 7213TIP3   OH243129   0.118   0.578   4.506  0.0025  0.0866 -0.2324
 7213TIP3    H143130   0.138   0.515   4.437 -1.4563 -0.2508 -0.3833
 7213TIP3    H243131   0.188   0.643   4.500  1.4961 -1.4542 -0.1229
 7214TIP3   OH243132   1.068   1.806   4.511  0.4352 -0.2716  0.1684
 7214TIP3    H143133   1.058   1.852   4.593 -2.5030  0.4613 -0.4846
 7214TIP3    H243134   0.985   1.761   4.498  0.7899 -0.3638 -2.3931
 7215TIP3   OH243135   1.009   0.490  16.550 -0.2763 -0.0511 -0.6600
 7215TIP3    H143136   0.933   0.495  16.492 -0.7012 -0.5475 -0.1595
 7215TIP3    H243137   0.986   0.546  16.624 -0.3424 -0.5290 -0.3108
 7216TIP3   OH243138   2.294   3.954  13.606  0.4950  0.2004 -0.1705
 7216TIP3    H143139   2.265   3.979  13.518 -1.0013  0.0923  0.2537
 7216TIP3    H243140   2.253   3.868  13.620 -0.0655  0.6364  0.9757
 7217TIP3   OH243141   0.723   3.189  11.384  0.1298 -0.0581  0.3009
 7217TIP3    H143142   0.660   3.248  11.427 -0.3308  0.0495 -0.4886
 7217TIP3    H243143   0.777   3.247  11.330 -1.7914 -0.5000 -2.2889
 7218TIP3   OH243144   5.617   5.106   6.094 -0.7753 -0.0884  0.3332
 7218TIP3    H143145   5.626   5.165   6.169 -3.3869 -1.3968  1.8288
 7218TIP3    H243146   5.548   5.145   6.041 -1.2065 -0.8040  0.3521
 7219TIP3   OH243147   1.039   6.475  15.316  0.0592  0.3620 -0.0077
 7219TIP3    H143148   1.029   6.565  15.347  1.2016  0.5244 -0.0687
 7219TIP3    H243149   1.100   6.482  15.242 -0.2279 -0.4021 -0.3248
 7220TIP3   OH243150   3.420   6.064  11.040 -0.0850  0.3918 -0.1113
 7220TIP3    H143151   3.410   6.158  11.025  1.3549  0.6973  0.6653
 7220TIP3    H243152   3.331   6.030  11.041 -0.5750  1.3475 -2.7915
 7221TIP3   OH243153   6.321   5.705   4.955 -0.8382  0.4377 -0.2605
 7221TIP3    H143154   6.226   5.696   4.965 -0.7759  1.3732  1.7199
 7221TIP3    H243155   6.339   5.796   4.979  0.7189 -0.1614  1.0803
 7222TIP3   OH243156   5.843   6.571  16.675  0.1030  0.9898 -0.7265
 7222TIP3    H143157   5.846   6.549  16.582  2.5468 -1.4935 -0.1964
 7222TIP3    H243158   5.931   6.605  16.694 -0.1011  0.7439  0.8157
 7223TIP3   OH243159   5.943   0.827   1.040 -0.0092  0.2108 -0.7754
 7223TIP3    H143160   5.888   0.775   1.098  0.6844  0.4690  0.1318
 7223TIP3    H243161   5.938   0.916   1.074 -3.2803  1.4436 -3.8081
 7224TIP3   OH243162   1.930   6.757  10.665 -0.0611  0.4706 -0.2474
 7224TIP3    H143163   1.998   6.696  10.635 -1.6193 -1.0053 -0.9752
 7224TIP3    H243164   1.848   6.718  10.635 -1.2879  1.9357  1.0095
 7225TIP3   OH243165   5.914   2.398  16.522 -0.4309  0.0464  0.0392
 7225TIP3    H143166   5.881   2.418  16.610 -1.8374  2.8669 -1.0051
 7225TIP3    H243167   5.841   2.419  16.464  0.9893 -0.2074 -1.9241
 7226TIP3   OH243168   2.652   6.784   1.802 -0.5801 -0.3524  0.0178
 7226TIP3    H143169   2.708   6.796   1.879 -1.0288  2.2197  0.0210
 7226TIP3    H243170   2.710   6.744   1.736 -0.1127 -2.3263  1.5078
 7227TIP3   OH243171   2.655   1.909  16.300 -0.7344  0.2979 -0.1962
 7227TIP3    H143172   2.718   1.958  16.248 -0.3617 -1.0346 -1.0560
 7227TIP3    H243173   2.646   1.825  16.254 -0.4629 -0.9105  1.8485
 7228TIP3   OH243174   4.367   3.822   0.276 -0.0082  0.0931  0.1905
 7228TIP3    H143175   4.379   3.744   0.222  0.2136  0.9278 -1.0169
 7228TIP3    H243176   4.452   3.866   0.275  0.4846 -0.6678  2.5957
 7229TIP3   OH243177   2.964   0.207  15.824 -0.2742  0.4244 -0.3248
 7229TIP3    H143178   3.042   0.164  15.860  0.8924  1.5902 -1.3265
 7229TIP3    H243179   2.892   0.176  15.878  0.5233 -2.4711 -0.7580
 7230TIP3   OH243180   2.374   4.069   6.575 -0.6215  0.0172  0.1559
 7230TIP3    H143181   2.303   4.092   6.516  0.5899  1.3949 -0.8149
 7230TIP3    H243182   2.428   4.008   6.525  0.6692  1.5599 -0.3699
 7231TIP3   OH243183   2.782   0.842   6.006  0.0013 -0.7028 -0.0028
 7231TIP3    H143184   2.756   0.822   6.096 -2.0325 -1.0817 -0.6173
 7231TIP3    H243185   2.877   0.830   6.005  0.1481 -0.1102  2.2146
 7232TIP3   OH243186   4.034   2.665   3.065 -0.4536  0.0537  0.4355
 7232TIP3    H143187   4.050   2.579   3.027  0.3171  0.3431  0.0914
 7232TIP3    H243188   4.059   2.727   2.996 -1.7154  0.5560  0.3904
 7233TIP3   OH243189   1.850   5.634  12.384 -0.0839  0.2369  0.1271
 7233TIP3    H143190   1.862   5.567  12.451 -0.0024  1.4408  1.3727
 7233TIP3    H243191   1.930   5.686  12.387 -0.6208  1.1028  0.0599
 7234TIP3   OH243192   5.236   6.679   3.281  0.2066 -0.0914 -0.5280
 7234TIP3    H143193   5.232   6.690   3.375  0.1836 -0.7971 -0.4367
 7234TIP3    H243194   5.187   6.599   3.264  0.2610 -0.0058 -1.1314
 7235TIP3   OH243195   2.505   4.480  16.548 -0.4132 -0.2784  0.2607
 7235TIP3    H143196   2.506   4.412  16.615  0.7858  1.3956  2.0567
 7235TIP3    H243197   2.589   4.471  16.503 -0.4922 -0.3274  0.1219
 7236TIP3   OH243198   4.678   6.128  11.922 -0.2989 -0.4569  0.1559
 7236TIP3    H143199   4.694   6.044  11.964  0.2670  0.4378  1.7844
 7236TIP3    H243200   4.585   6.145  11.937 -0.0445 -0.0246  1.3032
 7237TIP3   OH243201   5.541   6.287  15.150  0.0892  0.0320  0.2403
 7237TIP3    H143202   5.509   6.356  15.092  1.5328  2.4252  2.1276
 7237TIP3    H243203   5.478   6.216  15.139 -0.3808  0.8192 -3.2650
 7238TIP3   OH243204   5.102   2.770  11.670 -0.0364 -0.1247  0.5610
 7238TIP3    H143205   5.142   2.686  11.688  0.6320  0.0093 -0.2164
 7238TIP3    H243206   5.097   2.774  11.574 -2.2033 -0.2701  0.6117
 7239TIP3   OH243207   5.091   3.086  15.554 -0.5393  0.0989 -0.3012
 7239TIP3    H143208   5.096   3.117  15.644 -0.2657 -3.3365  0.9981
 7239TIP3    H243209   5.182   3.085  15.524 -0.2246 -1.6167  0.5572
 7240TIP3   OH243210   4.762   0.953  11.979 -0.8171 -0.5296 -0.5502
 7240TIP3    H143211   4.799   1.039  11.961 -3.0715  0.6101 -0.1775
 7240TIP3    H243212   4.671   0.961  11.950 -1.7120 -2.0198  1.6457
 7241TIP3   OH243213   0.039   0.832  15.480 -0.5506 -0.0001  0.5596
 7241TIP3    H143214   0.111   0.813  15.420 -0.6756  1.8037 -0.2473
 7241TIP3    H243215   0.070   0.805  15.566  2.7619  4.1259  0.9765
 7242TIP3   OH243216   5.838   3.137  16.060  0.3867  0.0848  0.1846
 7242TIP3    H143217   5.761   3.079  16.064 -0.0141  0.5803 -0.2212
 7242TIP3    H243218   5.905   3.092  16.112  0.6403 -1.5861 -1.4925
 7243TIP3   OH243219   0.197   4.996  13.065  0.2673 -0.3249 -0.0623
 7243TIP3    H143220   0.223   4.999  12.973  1.9255  1.8113  0.4046
 7243TIP3    H243221   0.110   5.036  13.068 -0.0825 -1.0123 -0.7476
 7244TIP3   OH243222   5.163   2.587  14.589  0.1632  0.3946  0.4101
 7244TIP3    H143223   5.176   2.597  14.683  0.9627  1.4885  0.2017
 7244TIP3    H243224   5.104   2.512  14.581  0.7090 -0.2097  1.7398
 7245TIP3   OH243225   4.563   2.415  14.679  0.6308  0.5051 -0.2415
 7245TIP3    H143226   4.621   2.415  14.603  0.9834 -0.5680  0.0078
 7245TIP3    H243227   4.520   2.330  14.676 -0.6825  1.1328 -0.2104
 7246TIP3   OH243228   0.645   1.220   1.554 -0.3724 -0.1278 -0.3206
 7246TIP3    H143229   0.691   1.144   1.590  0.1048  0.8384  1.2249
 7246TIP3    H243230   0.696   1.295   1.585 -2.1683  0.9253  0.2305
 7247TIP3   OH243231   1.064   0.999  15.070  0.1743  0.2583  0.0699
 7247TIP3    H143232   1.052   1.094  15.068 -0.1282  0.2179 -1.2278
 7247TIP3    H243233   1.039   0.970  14.982  0.5808 -0.9875  0.3422
 7248TIP3   OH243234   3.762   2.961  11.635  0.2199 -0.2162  0.0275
 7248TIP3    H143235   3.855   2.960  11.613  0.9525  2.7441  2.2716
 7248TIP3    H243236   3.719   2.992  11.555  1.2277 -0.8581 -0.7921
 7249TIP3   OH243237   2.193   5.281  12.594  0.3098  0.0054 -0.1288
 7249TIP3    H143238   2.138   5.208  12.566  0.3374 -0.5231  1.1341
 7249TIP3    H243239   2.186   5.282  12.689  0.0463  1.8794 -0.1244
 7250TIP3   OH243240   5.773   2.072  12.008  0.1535  0.1947 -0.1062
 7250TIP3    H143241   5.701   2.036  11.956 -2.1225  2.8697  0.8995
 7250TIP3    H243242   5.783   2.010  12.081 -1.1348 -0.2425 -0.2735
 7251TIP3   OH243243   4.264   0.460   2.733  0.4892  0.3124 -0.0352
 7251TIP3    H143244   4.286   0.418   2.816  0.0781  1.5443  0.7307
 7251TIP3    H243245   4.336   0.521   2.717 -1.1840  2.8760  1.4427
 7252TIP3   OH243246   2.218   0.603  13.174  0.1013 -0.1406  0.5009
 7252TIP3    H143247   2.167   0.625  13.252 -2.8149 -1.5540 -0.8480
 7252TIP3    H243248   2.210   0.679  13.117 -1.0641 -0.5708  0.0647
 7253TIP3   OH243249   2.691   1.065  13.579 -0.4230 -0.0111 -0.0262
 7253TIP3    H143250   2.600   1.060  13.551  0.3361  1.4222 -3.2393
 7253TIP3    H243251   2.729   0.981  13.554 -0.5154  0.0063 -0.2287
 7254TIP3   OH243252   2.008   5.749   5.335 -0.1404  0.1009  0.5121
 7254TIP3    H143253   1.965   5.665   5.352  1.2700 -0.2958  2.4371
 7254TIP3    H243254   2.086   5.726   5.284  0.1340  0.2581  0.8577
 7255TIP3   OH243255   6.734   3.173  14.624 -0.3825 -0.5152  0.2539
 7255TIP3    H143256   6.737   3.077  14.629 -2.7736 -0.8421 -1.9490
 7255TIP3    H243257   6.648   3.196  14.658 -0.4123  0.6995 -0.5783
 7256TIP3   OH243258   5.065   3.594   1.067  0.0175 -0.1399  0.3554
 7256TIP3    H143259   5.103   3.681   1.079  0.1573 -0.1279 -0.1648
 7256TIP3    H243260   5.102   3.542   1.138  0.6833 -0.0230  0.1020
 7257TIP3   OH243261   6.391   3.420  13.471  0.0473 -0.4741 -0.1095
 7257TIP3    H143262   6.372   3.420  13.565  1.0193  1.4814  0.1427
 7257TIP3    H243263   6.346   3.342  13.438  0.0553 -1.4854  2.0308
 7258TIP3   OH243264   4.269   2.688  12.658 -0.0796 -0.6986  0.1186
 7258TIP3    H143265   4.200   2.625  12.638 -0.6029 -0.0795 -0.0673
 7258TIP3    H243266   4.348   2.649  12.621 -0.2095 -1.6987  0.8531
 7259TIP3   OH243267   0.653   2.478   3.861 -0.0534 -0.0620 -0.1787
 7259TIP3    H143268   0.598   2.519   3.928  0.4394  0.6010 -0.1761
 7259TIP3    H243269   0.741   2.511   3.878 -0.0718  0.8479 -1.7163
 7260TIP3   OH243270   6.658   5.780   4.422  0.3480 -0.4720 -0.5889
 7260TIP3    H143271   6.600   5.770   4.346  1.1862 -1.8941 -1.0834
 7260TIP3    H243272   6.647   5.699   4.471  0.6669 -0.0364  0.2223
 7261TIP3   OH243273   0.063   4.750  14.034  0.7528 -0.1192  0.3496
 7261TIP3    H143274   0.140   4.746  13.977  0.7907  0.4566  0.3539
 7261TIP3    H243275   0.082   4.687  14.104  1.4947  0.4617  0.6785
 7262TIP3   OH243276   1.310   3.409   0.377  0.0783  0.4450 -1.0965
 7262TIP3    H143277   1.240   3.473   0.393 -0.0057 -0.0238  0.5088
 7262TIP3    H243278   1.358   3.446   0.303  1.1212  3.3463  0.8287
 7263TIP3   OH243279   1.750   0.435  13.885 -0.9175  1.1407  0.9085
 7263TIP3    H143280   1.673   0.426  13.942 -0.2502 -0.0440  1.6517
 7263TIP3    H243281   1.782   0.346  13.873 -1.3618  1.2511 -1.8329
 7264TIP3   OH243282   4.988   2.147  13.480 -0.2085  0.4752  0.1815
 7264TIP3    H143283   4.921   2.161  13.413  1.3426 -1.1259 -1.8444
 7264TIP3    H243284   5.002   2.052  13.481  1.3807  0.6807  1.1772
 7265TIP3   OH243285   0.155   0.505  16.874  0.6176  0.2586  0.1572
 7265TIP3    H143286   0.239   0.459  16.875  0.1242 -0.6696  1.5628
 7265TIP3    H243287   0.167   0.578  16.935 -0.4164 -1.5457  2.6955
 7266TIP3   OH243288   6.226   1.860  12.671  0.1299 -0.2419 -0.4473
 7266TIP3    H143289   6.282   1.907  12.609 -0.6143  0.2109 -0.7917
 7266TIP3    H243290   6.287   1.816  12.730  0.8483 -0.1206 -1.0827
 7267TIP3   OH243291   3.124   1.798   5.442 -0.2073 -0.4057 -0.0290
 7267TIP3    H143292   3.047   1.823   5.492 -0.4329  0.0736 -0.6101
 7267TIP3    H243293   3.184   1.872   5.450 -0.6115  0.0625 -1.2063
 7268TIP3   OH243294   5.838   5.097   6.656 -0.0906 -0.5515 -0.1677
 7268TIP3    H143295   5.929   5.095   6.626 -0.1048 -1.5193 -0.1625
 7268TIP3    H243296   5.843   5.078   6.750 -0.2576  0.0185 -0.0347
 7269TIP3   OH243297   3.903   6.117  11.084 -0.2922  0.3350 -0.5212
 7269TIP3    H143298   3.908   6.167  11.165 -0.5598  0.7120 -0.7312
 7269TIP3    H243299   3.873   6.030  11.110 -0.9929  0.6404 -0.2908
 7270TIP3   OH243300   2.848   0.723  11.575  0.2089 -0.2215 -0.3984
 7270TIP3    H143301   2.877   0.638  11.542  2.1563 -0.5929  1.9581
 7270TIP3    H243302   2.885   0.786  11.514 -0.4425 -1.0064 -1.6370
 7271TIP3   OH243303   6.410   4.563  11.278  0.1280 -0.3086  0.1551
 7271TIP3    H143304   6.417   4.468  11.263  0.6518 -0.3640  0.7058
 7271TIP3    H243305   6.493   4.598  11.246 -0.6141  0.1469 -1.3295
 7272TIP3   OH243306   3.117   6.794   1.010 -0.4780  0.1331 -0.3455
 7272TIP3    H143307   3.094   6.702   0.994 -1.6090  0.4685 -0.7920
 7272TIP3    H243308   3.212   6.798   0.996 -0.2966 -1.0998  0.3961
 7273TIP3   OH243309   1.933   0.301   4.745  0.0035 -0.0925  0.1353
 7273TIP3    H143310   1.960   0.230   4.686 -1.1563 -0.9596  0.6161
 7273TIP3    H243311   1.839   0.291   4.754 -0.5609  2.7404 -1.3639
 7274TIP3   OH243312   6.621   6.141  12.115  0.1233 -0.6417 -0.5736
 7274TIP3    H143313   6.569   6.214  12.079  1.2463  0.3348 -0.2875
 7274TIP3    H243314   6.665   6.178  12.191  1.4761 -1.3244 -0.9805
 7275TIP3   OH243315   5.021   3.624   5.698  0.3557 -0.0482  0.5518
 7275TIP3    H143316   4.944   3.593   5.652  0.4108  0.6796 -0.0595
 7275TIP3    H243317   5.065   3.681   5.635  2.0591 -1.4204  0.4371
 7276TIP3   OH243318   5.051   5.871  13.022  0.2580  0.1643  0.2936
 7276TIP3    H143319   5.112   5.942  13.003 -1.5628  1.6469 -0.1818
 7276TIP3    H243320   4.965   5.906  13.003 -0.6538 -2.5882 -1.2362
 7277TIP3   OH243321   3.250   4.446  10.362 -0.2962  0.4554 -0.6899
 7277TIP3    H143322   3.204   4.488  10.435 -0.5644  2.2220 -1.8127
 7277TIP3    H243323   3.181   4.401  10.313 -0.5095  1.2831 -1.1660
 7278TIP3   OH243324   5.142   3.543  16.021 -0.4125  0.1787  0.2352
 7278TIP3    H143325   5.099   3.510  15.943  1.4297  3.7034 -2.5822
 7278TIP3    H243326   5.089   3.618  16.048  1.4557  1.8752 -0.6153
 7279TIP3   OH243327   0.016   5.057   3.240  0.1769  0.5225  0.1524
 7279TIP3    H143328   0.105   5.020   3.243 -0.1338 -0.2276  0.1661
 7279TIP3    H243329   0.010   5.096   3.152  0.7057  1.0627  0.3453
 7280TIP3   OH243330   1.902   5.508   4.299 -0.1287  0.4932 -0.0006
 7280TIP3    H143331   1.916   5.508   4.205 -1.6181 -1.1298 -0.2617
 7280TIP3    H243332   1.808   5.492   4.310  0.3760 -1.8146  1.7575
 7281TIP3   OH243333   4.098   4.195  12.697  0.4838  0.1701  0.1683
 7281TIP3    H143334   4.068   4.193  12.788  2.3435 -1.4956  0.8143
 7281TIP3    H243335   4.047   4.265  12.657 -0.3763  0.9798  2.4893
 7282TIP3   OH243336   6.754   0.769   1.579  0.1544 -0.3870 -0.2141
 7282TIP3    H143337   6.780   0.720   1.501  0.9250  1.8132 -1.4202
 7282TIP3    H243338   6.671   0.811   1.554  2.0100  3.0115 -1.2128
 7283TIP3   OH243339   5.075   5.733   0.159  0.0895  0.0413 -0.6894
 7283TIP3    H143340   4.994   5.713   0.205  0.2109  0.8022 -0.1143
 7283TIP3    H243341   5.107   5.648   0.128  0.1323 -0.5327  0.8529
 7284TIP3   OH243342   6.709   5.311   4.703  0.7148  0.6233 -0.0065
 7284TIP3    H143343   6.760   5.281   4.778  1.8256  0.0948 -0.9505
 7284TIP3    H243344   6.623   5.270   4.715  1.5730 -1.3313 -0.1987
 7285TIP3   OH243345   4.869   5.974  15.175  0.4585 -0.2980  0.0164
 7285TIP3    H143346   4.797   5.912  15.163  1.4896 -1.4442 -0.5271
 7285TIP3    H243347   4.909   5.947  15.258  0.0184  0.5949  0.5241
 7286TIP3   OH243348   1.839   4.847  16.487 -0.3538  0.2223 -0.0985
 7286TIP3    H143349   1.882   4.920  16.532  0.8027 -0.2390 -0.4018
 7286TIP3    H243350   1.897   4.829  16.412 -1.6135  0.2203 -1.0936
 7287TIP3   OH243351   0.782   6.756  14.422 -0.3836 -0.5024 -0.1546
 7287TIP3    H143352   0.763   6.702  14.498 -1.3994  0.1686  0.0971
 7287TIP3    H243353   0.809   6.695  14.354  0.3887 -1.1247  0.6938
 7288TIP3   OH243354   6.540   3.389   1.787  0.1526  0.3830  0.1588
 7288TIP3    H143355   6.483   3.465   1.790 -0.9124 -0.4268  2.6614
 7288TIP3    H243356   6.503   3.334   1.718  1.0711  2.1237 -1.8448
 7289TIP3   OH243357   0.644   6.457  15.525 -0.2759 -0.2713  0.0269
 7289TIP3    H143358   0.721   6.499  15.488 -2.0854  2.9571 -0.4537
 7289TIP3    H243359   0.643   6.484  15.617 -1.0422  0.0546 -0.0701
 7290TIP3   OH243360   0.707   1.825  16.888  0.2074  0.0235 -0.0388
 7290TIP3    H143361   0.653   1.747  16.901 -0.0159 -0.0624 -1.3251
 7290TIP3    H243362   0.797   1.793  16.897  0.1047 -0.2975 -0.1353
 7291TIP3   OH243363   5.112   1.713   5.553 -0.5897 -0.3338 -0.1599
 7291TIP3    H143364   5.128   1.786   5.613 -0.7690 -1.1936  0.9715
 7291TIP3    H243365   5.179   1.722   5.486 -0.2317  0.5233  0.2915
 7292TIP3   OH243366   1.844   5.943  15.145  0.7122 -0.4608  0.0163
 7292TIP3    H143367   1.890   5.884  15.086  3.5224  0.3486  1.2302
 7292TIP3    H243368   1.832   5.891  15.225  2.3563  0.2147  0.7571
 7293TIP3   OH243369   0.952   4.331   3.227 -0.5346  0.2332 -0.2753
 7293TIP3    H143370   0.980   4.373   3.145  0.2922 -0.7346 -0.5017
 7293TIP3    H243371   0.987   4.388   3.295 -1.5051  1.2257 -0.5735
 7294TIP3   OH243372   5.656   6.780  11.437  0.4186  0.0736  0.3654
 7294TIP3    H143373   5.733   6.723  11.438  1.3093  1.1511 -1.1365
 7294TIP3    H243374   5.632   6.790  11.529  0.5491 -2.2230  0.7208
 7295TIP3   OH243375   5.989   3.780  14.184  0.5408  0.2095 -0.2506
 7295TIP3    H143376   5.916   3.832  14.150  1.2384  1.3660 -0.0316
 7295TIP3    H243377   5.980   3.786  14.279  0.3108 -0.5423 -0.2198
 7296TIP3   OH243378   3.081   2.451  11.630 -0.5196  0.0258  0.0786
 7296TIP3    H143379   3.139   2.467  11.704 -0.6220  0.6255  0.0313
 7296TIP3    H243380   3.137   2.408  11.565  0.1919  1.6087 -0.4160
 7297TIP3   OH243381   2.956   0.019   5.389 -0.2122 -0.5316  0.8196
 7297TIP3    H143382   2.897   0.004   5.463  0.2915  0.1242  1.3667
 7297TIP3    H243383   2.923  -0.039   5.320 -1.9590  0.3598  0.8445
 7298TIP3   OH243384   2.900   1.760   3.092  0.0093 -0.2149  0.0738
 7298TIP3    H143385   2.968   1.824   3.111 -0.1466  0.3628 -1.2001
 7298TIP3    H243386   2.841   1.765   3.167  1.0277 -0.2702  0.8893
 7299TIP3   OH243387   4.930   4.509   5.527 -1.1966  0.3780 -0.1164
 7299TIP3    H143388   4.894   4.598   5.531  1.8274  1.6785  0.6675
 7299TIP3    H243389   4.993   4.512   5.455  0.3225 -0.5338  1.1198
 7300TIP3   OH243390   5.075   2.505   3.227  0.6443  0.1949  0.0227
 7300TIP3    H143391   5.123   2.429   3.259  0.7545  0.7435  1.2164
 7300TIP3    H243392   5.139   2.577   3.230  0.1187  0.6555  0.3807
 7301TIP3   OH243393   4.244   4.082   0.274  0.4499 -0.1664 -0.1761
 7301TIP3    H143394   4.320   4.114   0.226  0.4442 -0.3214 -0.2908
 7301TIP3    H243395   4.260   3.988   0.283  0.2742 -0.1978 -0.1976
 7302TIP3   OH243396   0.257   4.755  13.428 -0.1496 -0.0081  0.1844
 7302TIP3    H143397   0.225   4.825  13.484 -1.6099 -1.5183  1.3403
 7302TIP3    H243398   0.273   4.682  13.488 -0.1393 -1.1504 -1.1505
 7303TIP3   OH243399   2.512   3.044   3.596  0.0617 -0.1512  0.2792
 7303TIP3    H143400   2.499   3.024   3.689 -0.3233  1.5164  0.6296
 7303TIP3    H243401   2.605   3.030   3.581  0.3388  0.5524  1.2148
 7304TIP3   OH243402   1.197   2.791  11.969 -0.0679  0.2717  0.3614
 7304TIP3    H143403   1.215   2.697  11.960 -1.6587 -0.0539  0.4017
 7304TIP3    H243404   1.258   2.832  11.906  0.0010 -0.8477 -0.3389
 7305TIP3   OH243405   1.041   4.912  14.174  0.0629  0.3003 -0.0402
 7305TIP3    H143406   0.980   4.986  14.185  0.2307  0.4375 -0.0308
 7305TIP3    H243407   1.018   4.876  14.088  1.9786  2.2524 -1.4994
 7306TIP3   OH243408   2.020   3.165   2.418 -0.3408  0.3297  0.7154
 7306TIP3    H143409   2.075   3.159   2.497 -0.3483  0.1790  0.7092
 7306TIP3    H243410   2.025   3.078   2.379  0.5071  0.6878 -0.0172
 7307TIP3   OH243411   4.279   4.233  16.267 -0.0836  0.0898 -0.0798
 7307TIP3    H143412   4.319   4.164  16.214 -0.5685 -0.2830  0.0294
 7307TIP3    H243413   4.205   4.265  16.214 -0.6175 -0.3388  0.3913
 7308TIP3   OH243414   6.564   1.473   2.767 -0.1326  0.4384  0.5430
 7308TIP3    H143415   6.610   1.524   2.834 -1.4160 -0.4947  2.2205
 7308TIP3    H243416   6.529   1.539   2.707 -0.5322  1.4538  1.8361
 7309TIP3   OH243417   4.756   5.560   1.854  0.0477 -0.0128  0.2308
 7309TIP3    H143418   4.778   5.652   1.835 -1.4194  0.4707  0.7177
 7309TIP3    H243419   4.761   5.517   1.768 -0.4809  0.8149 -0.2386
 7310TIP3   OH243420   0.209   6.219  12.210  0.4029  1.2228 -0.4390
 7310TIP3    H143421   0.168   6.264  12.136  0.7924  0.3510 -1.2172
 7310TIP3    H243422   0.137   6.183  12.260  0.1111  2.2197 -0.1073
 7311TIP3   OH243423   6.751   6.814   0.592  0.5880  0.3975 -0.7234
 7311TIP3    H143424   6.729   6.849   0.506 -0.3028  1.2093 -0.1895
 7311TIP3    H243425   6.801   6.735   0.574  1.7197  1.3599 -1.9763
 7312TIP3   OH243426   2.404   1.786  16.191 -0.2887 -0.0864  0.5304
 7312TIP3    H143427   2.369   1.713  16.242 -1.0018 -1.1244 -1.3563
 7312TIP3    H243428   2.330   1.818  16.140  0.2486  1.3312  0.5998
 7313TIP3   OH243429   3.919   3.170   1.934  0.6118  0.0954 -0.1775
 7313TIP3    H143430   3.918   3.076   1.954 -1.0058 -0.0049 -0.5948
 7313TIP3    H243431   3.858   3.180   1.862  0.2629  1.5737  0.2902
 7314TIP3   OH243432   2.179   1.429  11.994  0.1337  0.5800  0.0540
 7314TIP3    H143433   2.130   1.427  11.912  1.0974 -2.9434 -0.6242
 7314TIP3    H243434   2.257   1.481  11.974 -0.3884  1.0757 -0.7527
 7315TIP3   OH243435   2.915   2.786   4.614  0.4826  0.1087 -0.4053
 7315TIP3    H143436   2.939   2.834   4.693 -0.6017  0.4961 -0.2910
 7315TIP3    H243437   2.848   2.840   4.573 -0.5190 -1.1384 -0.4694
 7316TIP3   OH243438   1.889   1.822   2.215  0.2251 -0.0866  0.4860
 7316TIP3    H143439   1.828   1.756   2.248  0.9261 -0.7817  0.4116
 7316TIP3    H243440   1.878   1.897   2.274  0.1171 -0.6208  1.1565
 7317TIP3   OH243441   5.931   0.835  17.236 -0.1402 -0.2885  0.3025
 7317TIP3    H143442   5.977   0.872  17.310  0.2098 -0.6986  0.2915
 7317TIP3    H243443   5.926   0.741  17.254 -1.1687 -0.2333  0.4137
 7318TIP3   OH243444   0.242   1.020   4.804 -0.5533 -0.4721 -0.3001
 7318TIP3    H143445   0.268   1.035   4.895  0.2992  1.0895 -0.7692
 7318TIP3    H243446   0.156   1.060   4.797  0.2500  1.2616 -0.6690
 7319TIP3   OH243447   4.812   3.381  15.664  0.6246  0.1411  0.0040
 7319TIP3    H143448   4.765   3.390  15.747  0.5584 -0.0315 -0.0148
 7319TIP3    H243449   4.771   3.306  15.621  0.2976  0.5515 -0.4234
 7320TIP3   OH243450   1.318   4.047  16.825  0.8410 -0.2449 -0.1744
 7320TIP3    H143451   1.322   4.080  16.735 -1.6707 -1.0823 -0.6660
 7320TIP3    H243452   1.268   4.113  16.872  2.3694  0.3179  0.7389
 7321TIP3   OH243453   6.310   4.145   1.002  0.5208  0.2668 -0.0902
 7321TIP3    H143454   6.262   4.225   0.985  1.9493  1.5603  1.5423
 7321TIP3    H243455   6.260   4.102   1.072 -0.1227 -0.1827 -0.8111
 7322TIP3   OH243456   4.846   1.679   3.391 -0.3251 -0.2021 -0.5794
 7322TIP3    H143457   4.802   1.603   3.431 -2.3275  0.7648 -0.8445
 7322TIP3    H243458   4.858   1.740   3.464  0.2009 -0.2806 -0.5970
 7323TIP3   OH243459   2.326   2.860   6.522 -0.0025 -0.1571 -0.2175
 7323TIP3    H143460   2.231   2.867   6.536  0.1265 -0.6136  0.9583
 7323TIP3    H243461   2.342   2.766   6.517 -0.0887 -0.1232 -4.1261
 7324TIP3   OH243462   1.367   5.433   4.629 -0.0370 -0.0227 -0.4430
 7324TIP3    H143463   1.347   5.349   4.672 -1.3120  0.0606 -0.8142
 7324TIP3    H243464   1.299   5.492   4.663 -0.2221  0.3914 -1.5211
 7325TIP3   OH243465   6.015   4.525   0.362  0.1224  0.2912 -0.0995
 7325TIP3    H143466   6.045   4.615   0.374  2.2594 -0.3459 -0.3331
 7325TIP3    H243467   6.050   4.477   0.437 -0.7621 -0.4294 -0.1193
 7326TIP3   OH243468   3.227   1.145  16.378  0.7454 -0.1608 -0.1313
 7326TIP3    H143469   3.218   1.144  16.283  0.2777 -0.9938 -0.0865
 7326TIP3    H243470   3.217   1.237  16.402  1.5799  0.1616 -0.9449
 7327TIP3   OH243471   0.467   1.107  13.683 -0.3273 -0.1703 -0.2472
 7327TIP3    H143472   0.417   1.147  13.612 -2.3911 -0.8890  0.7094
 7327TIP3    H243473   0.439   1.015  13.683  0.0596 -0.3194  1.0979
 7328TIP3   OH243474   2.613   3.542  15.300 -0.8116  0.0159  0.4541
 7328TIP3    H143475   2.677   3.608  15.325 -0.3270 -0.7099  1.1657
 7328TIP3    H243476   2.549   3.590  15.246  0.2075  0.7895 -0.0983
 7329TIP3   OH243477   1.284   4.355   2.772 -0.7008 -0.7703 -0.0545
 7329TIP3    H143478   1.319   4.296   2.705  1.5544 -0.4927  0.7628
 7329TIP3    H243479   1.326   4.326   2.854  1.0686  2.2809  0.2727
 7330TIP3   OH243480   3.337   0.773  11.953  0.6595 -0.0074  0.0139
 7330TIP3    H143481   3.351   0.689  11.909  2.8632 -0.5117  1.5526
 7330TIP3    H243482   3.270   0.816  11.900  0.2284 -2.2763 -1.4271
 7331TIP3   OH243483   5.083   4.325  10.976  0.1911  0.3819  0.2226
 7331TIP3    H143484   5.007   4.382  10.972  0.4964  0.7057 -1.6694
 7331TIP3    H243485   5.138   4.362  11.045 -0.2171  1.5996 -0.0971
 7332TIP3   OH243486   2.813   4.053  13.508 -0.4468  1.2680 -0.2987
 7332TIP3    H143487   2.727   4.046  13.550 -0.8688  2.1351 -0.9809
 7332TIP3    H243488   2.832   3.965  13.478 -1.3584  1.1736 -0.6208
 7333TIP3   OH243489   5.193   4.830   5.156 -0.0902 -0.3379  0.0497
 7333TIP3    H143490   5.212   4.858   5.245 -0.2259  0.6312 -0.2126
 7333TIP3    H243491   5.272   4.852   5.107 -1.1541  2.1756 -0.7082
 7334TIP3   OH243492   5.885   6.004  14.134  0.1109 -0.3694 -0.2949
 7334TIP3    H143493   5.837   5.923  14.153 -0.6692  0.3135  0.7652
 7334TIP3    H243494   5.961   5.975  14.085  0.6797 -1.9562  1.3980
 7335TIP3   OH243495   6.326   4.080   1.655  0.2791 -0.6317  0.0316
 7335TIP3    H143496   6.342   4.108   1.565  0.5161 -1.8751 -0.3285
 7335TIP3    H243497   6.301   3.988   1.647 -0.4782 -0.5458  1.1715
 7336TIP3   OH243498   1.564   3.256  13.559 -0.1143  0.0351 -0.1396
 7336TIP3    H143499   1.572   3.291  13.647  0.7269 -1.3441  0.3650
 7336TIP3    H243500   1.596   3.166  13.566  0.7861  0.1572 -2.0162
 7337TIP3   OH243501   5.883   3.547   3.774 -0.1582 -0.0944 -0.2192
 7337TIP3    H143502   5.845   3.635   3.769 -1.8040 -0.8241 -1.1374
 7337TIP3    H243503   5.976   3.561   3.759 -0.4837  1.4288 -1.0533
 7338TIP3   OH243504   6.199   6.743   5.318  0.1605 -0.3200 -0.4725
 7338TIP3    H143505   6.114   6.773   5.286  0.2981  0.0832 -0.4638
 7338TIP3    H243506   6.206   6.653   5.287 -0.9479 -0.8956  0.8089
 7339TIP3   OH243507   6.544   0.032  16.741 -0.2387 -0.2058  0.4915
 7339TIP3    H143508   6.562   0.121  16.710 -0.2764 -0.2830  0.2407
 7339TIP3    H243509   6.541   0.039  16.836  0.4161 -0.0660  0.5025
 7340TIP3   OH243510   0.389   1.499  13.073  0.2155  0.1732 -0.4271
 7340TIP3    H143511   0.404   1.593  13.088 -1.9780  0.6153 -0.6014
 7340TIP3    H243512   0.295   1.493  13.054  0.0470 -2.2180  0.8119
 7341TIP3   OH243513   6.269   2.186  13.836  0.2204  0.5817 -0.3163
 7341TIP3    H143514   6.244   2.235  13.914  1.7122  0.2188  0.4332
 7341TIP3    H243515   6.297   2.101  13.869 -1.5710 -0.5565 -1.5228
 7342TIP3   OH243516   0.300   6.501   4.003  0.0999 -0.0102  0.2485
 7342TIP3    H143517   0.211   6.466   3.999  0.6193 -1.6133  1.4685
 7342TIP3    H243518   0.293   6.591   3.970 -2.5743  1.0289  3.1484
 7343TIP3   OH243519   6.766   4.705  13.544 -0.5505  0.4019  0.0143
 7343TIP3    H143520   6.812   4.622  13.535 -1.5543 -0.6839  3.5751
 7343TIP3    H243521   6.835   4.770  13.557  0.1336 -0.4470  0.6825
 7344TIP3   OH243522   6.682   4.066  12.184 -0.2213  0.9663 -0.0087
 7344TIP3    H143523   6.598   4.046  12.225  0.3217 -1.1429  0.1918
 7344TIP3    H243524   6.740   4.087  12.257  0.7690 -2.8788  0.5104
 7345TIP3   OH243525   0.773   3.337   3.246 -0.1121  0.3137 -0.0992
 7345TIP3    H143526   0.777   3.291   3.330 -1.5386  0.5116  0.0958
 7345TIP3    H243527   0.783   3.429   3.268  4.0146  0.1532 -0.6022
 7346TIP3   OH243528   4.191   6.557  12.968 -0.2789 -0.4096 -0.1303
 7346TIP3    H143529   4.226   6.643  12.987  1.0348 -0.6038 -1.4870
 7346TIP3    H243530   4.097   6.566  12.981  0.0234  0.6774  1.6326
 7347TIP3   OH243531   6.299   6.196  13.238 -0.4251  0.1035 -0.0379
 7347TIP3    H143532   6.394   6.197  13.226 -0.4245 -1.0584 -0.2596
 7347TIP3    H243533   6.280   6.106  13.265 -1.6607 -0.1597 -1.6837
 7348TIP3   OH243534   3.194   4.559  10.587 -0.2814  0.5717  0.3235
 7348TIP3    H143535   3.280   4.533  10.619 -1.4528 -1.1437  2.3509
 7348TIP3    H243536   3.164   4.625  10.649 -0.1700  1.7418 -0.8178
 7349TIP3   OH243537   6.685   2.693  12.996 -0.1463  0.4967  0.2016
 7349TIP3    H143538   6.744   2.768  12.992  0.5317 -0.0803 -1.3417
 7349TIP3    H243539   6.689   2.655  12.908 -0.5347 -1.3000  0.9251
 7350TIP3   OH243540   0.360   2.951  15.282 -0.0109  0.0945 -0.5382
 7350TIP3    H143541   0.326   2.866  15.255 -0.6920  0.4403 -0.7924
 7350TIP3    H243542   0.363   2.946  15.377 -2.4622  0.6474 -0.3698
 7351TIP3   OH243543   0.619   2.077  16.353 -0.3654 -0.5453  0.1316
 7351TIP3    H143544   0.618   2.099  16.260  0.4442 -2.9934 -0.5252
 7351TIP3    H243545   0.528   2.059  16.375 -0.4631 -0.7012 -0.3961
 7352TIP3   OH243546   3.997   1.446   0.433 -0.2821  0.0829 -0.0159
 7352TIP3    H143547   4.046   1.490   0.503  1.3275  1.3231 -1.8195
 7352TIP3    H243548   4.042   1.362   0.422 -0.0801  0.1936 -0.0440
 7353TIP3   OH243549   0.025   1.284  10.762  0.5571  0.2891  0.6892
 7353TIP3    H143550   0.091   1.320  10.702  1.4341 -2.0663  0.1230
 7353TIP3    H243551  -0.011   1.208  10.716 -0.3572 -0.2707  2.2524
 7354TIP3   OH243552   4.100   3.640   5.204  0.6475 -0.2140  0.4268
 7354TIP3    H143553   4.012   3.639   5.242  1.1086 -1.1039  1.5476
 7354TIP3    H243554   4.157   3.667   5.277  1.5155 -1.5223  0.2681
 7355TIP3   OH243555   1.754   3.998  12.424 -0.4276 -0.4205  0.1434
 7355TIP3    H143556   1.835   3.950  12.405 -0.4509  0.1520 -1.5927
 7355TIP3    H243557   1.728   4.036  12.340 -1.0399  1.6870  1.2184
 7356TIP3   OH243558   0.039   1.213   5.519 -0.3678 -0.1284 -0.6107
 7356TIP3    H143559  -0.022   1.168   5.577  1.4568 -0.7537  0.8982
 7356TIP3    H243560   0.010   1.304   5.521 -1.1677 -0.3792  0.1709
 7357TIP3   OH243561   3.127   5.753   2.783  0.7767 -0.6650  0.0049
 7357TIP3    H143562   3.110   5.710   2.699  3.4885  1.0858 -1.5922
 7357TIP3    H243563   3.186   5.693   2.829  2.3309  0.0230 -1.0265
 7358TIP3   OH243564   2.968   1.716   0.495  0.2696  0.5556  0.0229
 7358TIP3    H143565   2.886   1.667   0.496  0.9724 -0.7129  1.9066
 7358TIP3    H243566   2.979   1.744   0.404 -0.2706 -2.7160 -1.1790
 7359TIP3   OH243567   0.404   1.842  10.996  0.1217  0.3082  0.2850
 7359TIP3    H143568   0.413   1.766  10.937  1.2545  1.8185 -1.6103
 7359TIP3    H243569   0.395   1.804  11.083  1.0210 -2.0036 -0.5528
 7360TIP3   OH243570   3.846   6.156   5.832  0.4825  0.3314  0.0349
 7360TIP3    H143571   3.806   6.237   5.864  0.6631  0.8118 -0.9022
 7360TIP3    H243572   3.868   6.175   5.740  0.9904 -0.6104 -0.0517
 7361TIP3   OH243573   0.130   5.380  17.094  0.0873 -0.8083  0.0126
 7361TIP3    H143574   0.146   5.391  17.000  1.0894 -0.9817  0.1535
 7361TIP3    H243575   0.072   5.304  17.100  0.0328 -0.8060 -0.4645
 7362TIP3   OH243576   0.774   2.727   5.736  0.3215  0.1671 -0.3313
 7362TIP3    H143577   0.863   2.752   5.762  0.4526 -0.9537  0.3510
 7362TIP3    H243578   0.784   2.695   5.647  0.6809 -0.3565 -0.1075
 7363TIP3   OH243579   4.229   2.667  15.235  0.1990  0.0289 -0.0922
 7363TIP3    H143580   4.251   2.644  15.325 -0.0862  1.2162  0.3083
 7363TIP3    H243581   4.312   2.663  15.188  1.0129  2.5608  0.9714
 7364TIP3   OH243582   2.958   3.748  11.396 -0.2714  0.0814  0.1446
 7364TIP3    H143583   2.887   3.700  11.437 -0.4444  1.5336  1.6733
 7364TIP3    H243584   2.992   3.689  11.329 -3.9279 -0.0756 -1.8033
 7365TIP3   OH243585   5.191   5.202   5.670 -0.0443 -0.8884  0.1108
 7365TIP3    H143586   5.098   5.209   5.692 -0.6060  1.4903 -2.4810
 7365TIP3    H243587   5.209   5.108   5.674 -2.2893 -1.3503  1.4770
 7366TIP3   OH243588   5.627   4.522   2.428 -0.2515 -0.6579 -0.5795
 7366TIP3    H143589   5.663   4.447   2.380  1.8707 -0.0839  0.0396
 7366TIP3    H243590   5.627   4.593   2.364  0.2919 -0.5013 -0.4037
 7367TIP3   OH243591   4.848   2.885  13.176  0.6379 -0.7923  0.2321
 7367TIP3    H143592   4.775   2.879  13.114  0.5552 -0.9812  0.3464
 7367TIP3    H243593   4.905   2.953  13.140 -0.2008  0.2315  0.7673
 7368TIP3   OH243594   5.698   3.732   2.619  0.3918  0.4329 -0.0365
 7368TIP3    H143595   5.655   3.786   2.686  1.8665  0.1739  1.1603
 7368TIP3    H243596   5.725   3.653   2.666  0.1199 -0.4463 -1.2993
 7369TIP3   OH243597   6.297   1.864   0.327 -0.2402 -0.2809 -0.0056
 7369TIP3    H143598   6.237   1.790   0.323 -1.2497  0.5677 -1.5951
 7369TIP3    H243599   6.265   1.917   0.401 -0.8283 -0.3644 -0.1957
 7370TIP3   OH243600   5.293   1.406   5.689 -0.0843  0.0633  0.0131
 7370TIP3    H143601   5.283   1.368   5.777  0.0234  0.5146  0.2245
 7370TIP3    H243602   5.208   1.394   5.647  0.4000 -1.8106 -0.4892
 7371TIP3   OH243603   3.603   3.042  11.434 -0.2710  0.1827 -0.5134
 7371TIP3    H143604   3.605   3.065  11.341  0.9865  0.9078 -0.3374
 7371TIP3    H243605   3.624   3.124  11.479 -1.2963 -0.0603  0.4440
 7372TIP3   OH243606   0.728   2.752  13.917 -0.6326 -0.7213  0.0957
 7372TIP3    H143607   0.712   2.704  13.999 -0.9267 -1.4093 -0.3549
 7372TIP3    H243608   0.822   2.771  13.919 -0.6999 -0.4279  0.7500
 7373TIP3   OH243609   3.276   3.987   1.480  0.1865 -0.7598  0.0120
 7373TIP3    H143610   3.277   3.914   1.542  2.9741  0.7216  1.9468
 7373TIP3    H243611   3.270   3.945   1.394  1.3130 -3.2800  1.0481
 7374TIP3   OH243612   6.755   0.172  16.079 -0.1558 -0.2930  0.1961
 7374TIP3    H143613   6.739   0.160  16.172  0.4674  0.7308  0.4534
 7374TIP3    H243614   6.671   0.204  16.045 -0.3434 -0.5341  0.4251
 7375TIP3   OH243615   6.265   5.972  15.134  0.0873 -0.3465  0.5866
 7375TIP3    H143616   6.341   5.995  15.188  0.9000  0.4511 -0.8384
 7375TIP3    H243617   6.209   6.049  15.137 -0.2010 -0.5637  0.8373
 7376TIP3   OH243618   2.800   0.193  16.122  0.1998  0.0001  0.5433
 7376TIP3    H143619   2.895   0.201  16.128 -0.0180  1.8960  3.2405
 7376TIP3    H243620   2.773   0.165  16.209 -1.7061 -1.1288 -0.3546
 7377TIP3   OH243621   2.628   4.795   6.375  0.7252 -0.1862 -0.1674
 7377TIP3    H143622   2.559   4.861   6.380  0.4852 -0.4571  0.1718
 7377TIP3    H243623   2.598   4.725   6.433  0.9823 -0.5860 -0.5129
 7378TIP3   OH243624   3.459   1.467  16.408 -0.4214 -0.2030  0.1428
 7378TIP3    H143625   3.412   1.441  16.328  0.9913 -1.8655 -0.2209
 7378TIP3    H243626   3.451   1.562  16.411  0.3426  0.0156 -2.5525
 7379TIP3   OH243627   5.936   3.474  12.689 -0.3303  0.0397  0.2098
 7379TIP3    H143628   5.861   3.434  12.645 -2.3016  0.9719  2.5474
 7379TIP3    H243629   5.948   3.422  12.768 -0.0102  1.3012  1.0126
 7380TIP3   OH243630   4.194   2.140  13.464 -0.4978  0.1627  0.1625
 7380TIP3    H143631   4.138   2.189  13.524 -1.6484  0.8484 -1.3930
 7380TIP3    H243632   4.133   2.091  13.409  0.4379  0.4612 -1.1980
 7381TIP3   OH243633   4.276   2.319   3.796 -0.6217  0.2941  0.4509
 7381TIP3    H143634   4.270   2.402   3.749  0.3211  0.4130  0.5224
 7381TIP3    H243635   4.369   2.310   3.817 -0.5998 -1.1312 -0.1805
 7382TIP3   OH243636   1.665   3.379   3.933  0.3311  0.2955  0.4410
 7382TIP3    H143637   1.638   3.314   3.868 -0.4508  1.8273 -0.8230
 7382TIP3    H243638   1.599   3.373   4.002  0.4123 -0.4246  0.4607
 7383TIP3   OH243639   0.619   6.696  16.955  0.3764  0.1633 -0.4071
 7383TIP3    H143640   0.529   6.673  16.975  0.9130  0.5333  3.0655
 7383TIP3    H243641   0.614   6.744  16.872 -2.3749 -0.9998 -1.0320
 7384TIP3   OH243642   2.763   5.662  12.871 -0.6795  0.2436  0.7795
 7384TIP3    H143643   2.813   5.602  12.927 -1.5221 -0.7376  0.5118
 7384TIP3    H243644   2.819   5.673  12.794  0.2095  1.1133  1.5280
 7385TIP3   OH243645   5.610   2.469   4.903 -0.3291  0.3297 -0.6522
 7385TIP3    H143646   5.561   2.446   4.982 -0.1931 -1.0046 -0.9267
 7385TIP3    H243647   5.670   2.396   4.890  2.1335  2.1153 -0.0531
 7386TIP3   OH243648   6.713   3.858   3.530  0.3962  0.1513 -0.0183
 7386TIP3    H143649   6.774   3.885   3.463  0.2678 -0.3707 -0.3567
 7386TIP3    H243650   6.626   3.876   3.493  0.3040 -0.8100 -0.3085
 7387TIP3   OH243651   5.445   1.073   2.410 -0.3712 -0.0328 -0.5312
 7387TIP3    H143652   5.409   1.025   2.485  0.2933 -0.5368 -0.5341
 7387TIP3    H243653   5.452   1.163   2.442  0.9006 -0.4287  0.3875
 7388TIP3   OH243654   0.609   6.502  12.821  0.0824  0.4204  0.2200
 7388TIP3    H143655   0.583   6.567  12.886  0.8689  2.0173 -0.9767
 7388TIP3    H243656   0.669   6.549  12.763 -0.3574 -0.9950 -1.4847
 7389TIP3   OH243657   5.738   1.956  11.055  0.4690  0.0439 -0.3264
 7389TIP3    H143658   5.692   2.026  11.008 -2.4652 -0.7359  1.1816
 7389TIP3    H243659   5.733   1.881  10.996 -0.6316 -0.1476 -0.0120
 7390TIP3   OH243660   0.144   2.521  11.710 -0.1832  0.0753  0.6057
 7390TIP3    H143661   0.108   2.593  11.658  2.3222  0.6705 -0.4760
 7390TIP3    H243662   0.238   2.523  11.692 -0.0740 -4.3800 -0.7162
 7391TIP3   OH243663   0.226   1.949  17.026 -0.2391  0.2688 -0.6462
 7391TIP3    H143664   0.287   2.010  16.985  0.6981 -0.5023 -0.4469
 7391TIP3    H243665   0.251   1.948  17.118  0.8241 -1.5481 -0.8899
 7392TIP3   OH243666   2.169   0.164   3.394 -0.4201 -0.2663 -0.3250
 7392TIP3    H143667   2.246   0.218   3.412 -0.3758 -0.2930 -0.4355
 7392TIP3    H243668   2.109   0.183   3.466 -0.9012  0.8331 -0.9824
 7393TIP3   OH243669   2.295   4.111   2.468  0.0339  0.0529  0.0092
 7393TIP3    H143670   2.364   4.062   2.512 -0.4885 -0.8292 -0.1118
 7393TIP3    H243671   2.283   4.065   2.384 -0.0158  0.7984 -0.4002
 7394TIP3   OH243672   6.687   0.863   5.060  0.1438 -0.2606 -0.2772
 7394TIP3    H143673   6.748   0.800   5.020  0.2346 -1.1241  1.1371
 7394TIP3    H243674   6.601   0.837   5.027 -0.0278 -2.1711  1.4114
 7395TIP3   OH243675   3.247   4.953  11.033  0.2053 -0.5478 -0.0247
 7395TIP3    H143676   3.318   4.938  10.971  0.7237 -0.8053  0.6203
 7395TIP3    H243677   3.191   5.018  10.990  1.8695  1.1627  0.2754
 7396TIP3   OH243678   6.628   0.806  12.831 -0.0407  0.2065  0.2264
 7396TIP3    H143679   6.721   0.785  12.833  0.3811  1.9283  1.1747
 7396TIP3    H243680   6.596   0.782  12.917 -0.3891 -0.0576  0.0223
 7397TIP3   OH243681   5.791   4.256   2.365 -0.0579 -0.3390  0.5397
 7397TIP3    H143682   5.824   4.167   2.371  1.8392  0.3924  5.1761
 7397TIP3    H243683   5.699   4.250   2.391 -0.2710 -0.9961 -0.3086
 7398TIP3   OH243684   5.457   2.232  10.738 -0.0239  0.3433 -0.2502
 7398TIP3    H143685   5.431   2.324  10.738  2.3326  1.0848  0.7046
 7398TIP3    H243686   5.432   2.201  10.651 -1.9778  1.5038 -0.1688
 7399TIP3   OH243687   2.388   4.765  15.376  0.2219 -0.8674 -0.4631
 7399TIP3    H143688   2.358   4.782  15.466  0.4912 -1.0730 -0.3337
 7399TIP3    H243689   2.328   4.816  15.321  2.0157  1.9174 -0.0251
 7400TIP3   OH243690   0.314   5.329  13.847  0.3119  0.1259 -0.2931
 7400TIP3    H143691   0.260   5.408  13.843  0.0666 -0.0809 -1.2458
 7400TIP3    H243692   0.307   5.301  13.939 -2.1203 -0.5092 -0.5890
 7401TIP3   OH243693   5.666   5.615   3.959 -0.2218 -0.0802  0.0179
 7401TIP3    H143694   5.660   5.679   3.888 -1.8698  0.1945  0.3690
 7401TIP3    H243695   5.749   5.635   4.001  0.6695 -0.0744 -1.6519
 7402TIP3   OH243696   0.449   3.536   1.131 -0.3728  0.1790 -0.7794
 7402TIP3    H143697   0.422   3.488   1.052 -0.5329 -0.7803 -0.1600
 7402TIP3    H243698   0.371   3.585   1.156 -0.6181 -0.2418 -0.7016
 7403TIP3   OH243699   2.592   5.383  14.212  0.0161 -0.0557 -0.2201
 7403TIP3    H143700   2.597   5.299  14.165  3.2444 -0.1798  0.1487
 7403TIP3    H243701   2.668   5.432  14.182 -0.2384  1.6070  1.6601
 7404TIP3   OH243702   6.163   6.373   5.854  0.0410  0.1168  0.7625
 7404TIP3    H143703   6.148   6.432   5.928 -0.3808  1.8943 -0.6719
 7404TIP3    H243704   6.092   6.392   5.793 -0.8003 -2.7535  0.6954
 7405TIP3   OH243705   2.586   0.142   6.152  0.1704 -0.2542 -0.2912
 7405TIP3    H143706   2.603   0.066   6.208 -0.5846 -3.2797 -3.8091
 7405TIP3    H243707   2.506   0.180   6.187  0.2229 -1.4222  1.2183
 7406TIP3   OH243708   3.296   6.672   4.369  0.8501  0.0610  0.4462
 7406TIP3    H143709   3.349   6.609   4.320 -0.3164  0.2660 -1.1896
 7406TIP3    H243710   3.222   6.621   4.402  1.4192  0.0116  1.6958
 7407TIP3   OH243711   4.161   0.650  14.435  0.2512 -0.2170 -0.2384
 7407TIP3    H143712   4.198   0.612  14.356 -2.6031 -0.3053 -1.6590
 7407TIP3    H243713   4.098   0.585  14.466  2.2283 -0.8206  3.0101
 7408TIP3   OH243714   2.720   5.732  16.071  0.4200 -0.0005  0.6386
 7408TIP3    H143715   2.765   5.736  16.156  0.8897 -0.4760  0.4217
 7408TIP3    H243716   2.656   5.803  16.074 -1.6121 -1.7492  2.5536
 7409TIP3   OH243717   4.526   6.492   1.842  0.3766 -0.1413 -0.3281
 7409TIP3    H143718   4.616   6.505   1.813  0.8265 -0.9123  0.6811
 7409TIP3    H243719   4.473   6.545   1.781  1.2781 -1.5540 -2.4298
 7410TIP3   OH243720   5.171   4.538  14.849  0.1869 -0.0726 -1.1403
 7410TIP3    H143721   5.169   4.618  14.797  0.1926  0.8486  0.1993
 7410TIP3    H243722   5.241   4.485  14.810  0.5727  0.8322 -1.7037
 7411TIP3   OH243723   6.562   3.669   0.892  0.0109 -0.1203  0.3374
 7411TIP3    H143724   6.555   3.583   0.850  1.0230 -0.6897  1.2822
 7411TIP3    H243725   6.490   3.672   0.954 -1.1984  0.5279 -1.0491
 7412TIP3   OH243726   2.971   4.325   3.628  0.3833 -0.0002  0.5107
 7412TIP3    H143727   3.064   4.330   3.651  0.1896 -0.7605  1.5492
 7412TIP3    H243728   2.943   4.417   3.622  0.7652  0.2657  2.1513
 7413TIP3   OH243729   1.286   3.562   2.290 -0.0824 -0.4433  0.6339
 7413TIP3    H143730   1.309   3.541   2.199 -0.3305 -1.5654  0.8123
 7413TIP3    H243731   1.353   3.625   2.318  0.2760 -0.4508 -0.1730
 7414TIP3   OH243732   2.917   4.809  17.069  0.5112  0.8044  0.2104
 7414TIP3    H143733   2.832   4.824  17.028 -0.1631  1.1521  1.6788
 7414TIP3    H243734   2.980   4.849  17.008 -0.4146  0.9759 -0.6537
 7415TIP3   OH243735   3.551   6.674  11.893  0.3071  0.2303  0.4874
 7415TIP3    H143736   3.461   6.707  11.899  0.2617  0.5169 -1.2047
 7415TIP3    H243737   3.605   6.753  11.887  0.2622  0.1576 -2.7975
 7416TIP3   OH243738   2.862   6.654  14.658  0.3321  0.2516 -0.7590
 7416TIP3    H143739   2.840   6.713  14.730 -0.2049  1.7350 -2.0813
 7416TIP3    H243740   2.957   6.645  14.663  0.2662 -0.0538  0.3883
 7417TIP3   OH243741   3.741   1.354   1.953  0.7743  0.6591  0.2636
 7417TIP3    H143742   3.648   1.332   1.958  1.1166 -1.4800 -1.5613
 7417TIP3    H243743   3.785   1.286   2.005  1.4205  0.8074 -0.0752
 7418TIP3   OH243744   3.181   0.026  15.676  0.2423 -0.0229  0.5320
 7418TIP3    H143745   3.087   0.018  15.660  0.2275  0.1613  0.5215
 7418TIP3    H243746   3.192   0.115  15.708  0.3155 -0.2819  1.2477
 7419TIP3   OH243747   5.501   1.899   3.669  0.1804 -0.0042 -0.0273
 7419TIP3    H143748   5.488   1.974   3.612  0.8225  0.5492  0.5318
 7419TIP3    H243749   5.536   1.936   3.750 -0.9580 -0.7505  0.8253
 7420TIP3   OH243750   4.798   4.759  12.188  0.1940 -0.6204 -0.0731
 7420TIP3    H143751   4.752   4.833  12.150  1.5211  0.9003  1.1403
 7420TIP3    H243752   4.804   4.779  12.281  1.5103 -1.7255  0.1169
 7421TIP3   OH243753   5.706   5.937  15.590 -0.4157  0.0957  0.0282
 7421TIP3    H143754   5.737   5.848  15.602 -2.7130 -0.5925  1.3199
 7421TIP3    H243755   5.765   5.974  15.524  2.1488 -1.5235  1.2654
 7422TIP3   OH243756   2.330   0.923  16.804 -0.1275  0.2705  0.3710
 7422TIP3    H143757   2.372   0.845  16.840 -0.5430 -0.6660 -1.0891
 7422TIP3    H243758   2.391   0.995  16.825  1.7659 -0.8860 -0.8128
 7423TIP3   OH243759   2.037   1.320  13.630  0.8893  0.2666 -0.4779
 7423TIP3    H143760   1.943   1.335  13.616  0.2113 -3.0774 -0.3297
 7423TIP3    H243761   2.050   1.330  13.724  0.6177  0.3241 -0.4459
 7424TIP3   OH243762   1.926   2.860  15.769  0.0062  0.3394 -0.3370
 7424TIP3    H143763   1.923   2.933  15.706 -0.9995 -0.2840 -1.0340
 7424TIP3    H243764   1.841   2.863  15.813  0.3814  0.2492  0.4068
 7425TIP3   OH243765   2.217   4.864   1.389 -0.1581  0.1922 -0.5546
 7425TIP3    H143766   2.282   4.845   1.456  0.2460  0.2515 -0.9279
 7425TIP3    H243767   2.237   4.804   1.317 -0.8930 -0.2152 -0.4321
 7426TIP3   OH243768   2.688   1.270  13.174 -0.6090 -0.5166  0.5593
 7426TIP3    H143769   2.718   1.361  13.177  0.4609 -0.7272 -1.7054
 7426TIP3    H243770   2.765   1.218  13.198 -0.0938 -0.9148 -1.7082
 7427TIP3   OH243771   0.025   2.578  15.323 -0.0714 -0.2872 -0.5210
 7427TIP3    H143772   0.038   2.490  15.288  0.7563  0.0630 -1.1220
 7427TIP3    H243773   0.027   2.566  15.418 -0.5139 -0.9922 -0.5955
 7428TIP3   OH243774   4.340   5.781  15.120  0.1879 -0.1081 -0.5064
 7428TIP3    H143775   4.373   5.870  15.114  0.2672 -0.1931 -1.3491
 7428TIP3    H243776   4.402   5.737  15.179  1.1473 -0.0519 -1.4409
 7429TIP3   OH243777   1.296   4.776   1.335 -0.2232 -0.1830 -0.1812
 7429TIP3    H143778   1.357   4.819   1.276 -2.0078  2.6986 -0.0914
 7429TIP3    H243779   1.211   4.779   1.289 -1.0042 -0.8380  1.1519
 7430TIP3   OH243780   1.193   5.799  14.686 -0.0905 -0.0942 -0.0394
 7430TIP3    H143781   1.175   5.893  14.682 -0.6496 -0.2423 -1.3130
 7430TIP3    H243782   1.252   5.782  14.613  1.0646 -0.5378  0.9545
 7431TIP3   OH243783   4.562   0.907   0.446 -0.0513  0.3959  0.2398
 7431TIP3    H143784   4.545   0.881   0.355 -0.7757 -0.7071  0.6691
 7431TIP3    H243785   4.479   0.945   0.475  0.2991  1.1065  0.3349
 7432TIP3   OH243786   6.095   6.451  16.349  0.5374 -0.3639 -0.4239
 7432TIP3    H143787   6.110   6.367  16.307 -0.0371 -1.3560  1.2509
 7432TIP3    H243788   6.021   6.436  16.408  1.3529  0.8854  1.0133
 7433TIP3   OH243789   6.763   6.180  12.353  0.1342 -0.0639 -0.4009
 7433TIP3    H143790   6.769   6.163  12.447  2.9851 -1.5663 -0.7532
 7433TIP3    H243791   6.732   6.097  12.316  2.2176 -0.6156 -1.0241
 7434TIP3   OH243792   0.449   0.134   4.113 -0.3826  0.5096  0.0019
 7434TIP3    H143793   0.426   0.083   4.191 -2.0658  0.4697 -0.4957
 7434TIP3    H243794   0.474   0.068   4.048 -0.8625  0.4312 -0.1002
 7435TIP3   OH243795   0.416   0.919   1.653 -0.9745 -0.1720 -0.2632
 7435TIP3    H143796   0.482   0.850   1.658 -2.5262 -2.3169 -4.4247
 7435TIP3    H243797   0.334   0.872   1.636 -2.7029  2.6156 -0.1984
 7436TIP3   OH243798   4.804   3.457  14.357  0.1127  0.3198  0.4011
 7436TIP3    H143799   4.859   3.525  14.395  0.1347  0.6519 -0.2016
 7436TIP3    H243800   4.853   3.426  14.281 -0.4506  0.5049 -0.0450
 7437TIP3   OH243801   3.152   1.259   1.216 -0.3440  0.0067  0.2999
 7437TIP3    H143802   3.179   1.347   1.189  2.0214 -0.6932  0.1999
 7437TIP3    H243803   3.179   1.203   1.143 -1.5442 -0.8735  0.5104
 7438TIP3   OH243804   3.919   6.342  14.203  0.3139 -0.2902 -0.1279
 7438TIP3    H143805   3.876   6.425  14.184  0.6427 -0.1053 -0.0548
 7438TIP3    H243806   3.940   6.346  14.296 -0.5159 -0.8449  0.0985
 7439TIP3   OH243807   5.490   6.342  11.649  0.3304 -0.0591  0.3322
 7439TIP3    H143808   5.449   6.428  11.639  0.7820  0.1362  0.1333
 7439TIP3    H243809   5.581   6.356  11.624  0.1288 -0.8738 -0.9263
 7440TIP3   OH243810   0.420   3.323   1.640 -0.2425 -0.2801 -0.2994
 7440TIP3    H143811   0.428   3.231   1.616  0.5176 -0.4782  0.6561
 7440TIP3    H243812   0.408   3.322   1.735  0.6952  0.6504 -0.1559
 7441TIP3   OH243813   6.766   1.348   3.296 -0.0178  0.0299 -1.3216
 7441TIP3    H143814   6.802   1.406   3.363 -0.8600 -1.6070  0.6685
 7441TIP3    H243815   6.674   1.374   3.288 -0.3012 -0.7277 -0.6989
 7442TIP3   OH243816   2.771   4.172  12.671 -0.4260 -0.3815 -0.0191
 7442TIP3    H143817   2.812   4.139  12.751 -1.6131  0.2507  0.9008
 7442TIP3    H243818   2.750   4.094  12.620 -0.6809 -0.8692  0.8219
 7443TIP3   OH243819   5.621   0.022  12.164 -0.0475  0.1064 -0.1974
 7443TIP3    H143820   5.590   0.106  12.131  0.3108 -0.1872 -1.3261
 7443TIP3    H243821   5.713   0.017  12.135 -0.2933 -1.0090 -0.8440
 7444TIP3   OH243822   6.240   0.043  14.873 -0.4823  0.4497 -0.0572
 7444TIP3    H143823   6.187   0.123  14.876 -0.6464  0.3539 -0.3699
 7444TIP3    H243824   6.242   0.013  14.964  1.2296  1.8669  0.4354
 7445TIP3   OH243825   1.199   3.928   5.164 -0.5616  0.4384  0.1740
 7445TIP3    H143826   1.281   3.902   5.206 -1.6009  0.4409  2.3372
 7445TIP3    H243827   1.211   3.903   5.073  1.2716 -0.9391  0.7145
 7446TIP3   OH243828   5.995   3.003   3.865 -0.6122  0.4860 -0.4519
 7446TIP3    H143829   6.030   3.029   3.950 -0.8131  1.4240 -0.6442
 7446TIP3    H243830   5.904   2.980   3.883 -0.2872 -0.6165 -0.1885
 7447TIP3   OH243831   3.711   0.785   0.893 -0.0214  1.0403  0.2019
 7447TIP3    H143832   3.689   0.706   0.843  1.3971  1.4537 -1.1396
 7447TIP3    H243833   3.629   0.834   0.897 -0.7043 -0.0732  0.2767
 7448TIP3   OH243834   0.601   3.793   2.012  0.0545 -0.1025 -0.2376
 7448TIP3    H143835   0.682   3.744   2.026  0.5068  0.5963 -0.2973
 7448TIP3    H243836   0.574   3.819   2.100 -0.0676 -0.2858 -0.2223
 7449TIP3   OH243837   3.389   0.046  11.237  0.2643  0.4977 -0.3672
 7449TIP3    H143838   3.396   0.033  11.332 -0.9750 -1.4579 -0.4807
 7449TIP3    H243839   3.308   0.096  11.225 -1.9226 -2.7202 -0.4735
 7450TIP3   OH243840   5.168   4.996  16.119 -0.1642  0.0358 -0.3619
 7450TIP3    H143841   5.111   4.941  16.067  0.8965 -0.6509 -0.8380
 7450TIP3    H243842   5.248   4.944  16.130  1.5903  2.0548 -2.3213
 7451TIP3   OH243843   2.040   3.595   1.734 -0.0754 -0.5095 -0.0946
 7451TIP3    H143844   2.051   3.683   1.698  1.2811  1.0632  3.6767
 7451TIP3    H243845   2.127   3.555   1.729 -0.5004 -1.3823 -0.9983
 7452TIP3   OH243846   4.837   2.001   6.431 -0.0731  0.0855 -0.4255
 7452TIP3    H143847   4.921   1.978   6.391  0.4114 -0.8885  1.1034
 7452TIP3    H243848   4.797   1.918   6.453 -0.6312  0.5849  0.5049
 7453TIP3   OH243849   0.164   3.862   6.567 -0.1953 -0.1072 -0.1326
 7453TIP3    H143850   0.085   3.812   6.590 -1.8270  2.3636  0.0388
 7453TIP3    H243851   0.177   3.843   6.474  1.0824 -3.1276  0.5553
 7454TIP3   OH243852   3.426   0.517  11.810  0.4653 -0.4016  0.2387
 7454TIP3    H143853   3.409   0.491  11.719  3.4940 -0.7248 -0.3550
 7454TIP3    H243854   3.365   0.465  11.862  0.9914 -2.8957 -1.4379
 7455TIP3   OH243855   2.721   0.361  17.036 -0.4805 -0.3904 -0.0355
 7455TIP3    H143856   2.663   0.398  17.103 -2.1725 -0.5993 -1.2901
 7455TIP3    H243857   2.792   0.424  17.028 -1.5183  0.8697  0.2761
 7456TIP3   OH243858   2.207   1.982  14.025  0.5297 -0.5390 -0.4483
 7456TIP3    H143859   2.117   1.971  14.054  0.5743 -1.0250 -0.4818
 7456TIP3    H243860   2.249   2.031  14.096  0.3821 -0.8153 -0.1662
 7457TIP3   OH243861   4.912   0.390  11.755 -0.4010  0.0946  0.1116
 7457TIP3    H143862   4.920   0.332  11.832 -0.4064  1.4788  1.1918
 7457TIP3    H243863   4.996   0.435  11.750 -0.5371  0.2895 -0.4764
 7458TIP3   OH243864   2.505   1.376  11.254  0.3050 -0.0965 -0.1273
 7458TIP3    H143865   2.453   1.307  11.213  1.8442 -0.5778 -1.3595
 7458TIP3    H243866   2.440   1.439  11.285 -1.1391 -1.9407  0.8316
 7459TIP3   OH243867   3.983   0.309  12.677 -0.2196 -0.0895 -0.4683
 7459TIP3    H143868   3.978   0.388  12.731  0.9620 -0.3588  0.0749
 7459TIP3    H243869   3.918   0.250  12.715 -0.7888  0.4552 -0.5910
 7460TIP3   OH243870   2.408   5.821   0.039  0.1931  0.1265  0.5734
 7460TIP3    H143871   2.467   5.862  -0.025 -0.2584 -0.0048  0.0581
 7460TIP3    H243872   2.412   5.878   0.116  2.3019 -0.7984  1.2051
 7461TIP3   OH243873   0.035   3.016   2.976 -0.1775  0.4175 -0.0578
 7461TIP3    H143874   0.122   3.040   2.946 -0.6009  1.8220 -0.2293
 7461TIP3    H243875   0.023   2.926   2.945 -0.2255  1.4358 -3.3429
 7462TIP3   OH243876   6.045   1.765  12.460  0.2356 -0.4596 -0.0387
 7462TIP3    H143877   6.098   1.793  12.534 -0.6505 -0.6060  0.6661
 7462TIP3    H243878   5.999   1.844  12.431  1.9976  0.0401 -1.6749
 7463TIP3   OH243879   3.412   1.326   3.304 -0.9510  0.2135 -0.1994
 7463TIP3    H143880   3.454   1.243   3.280 -0.4294  0.2535  0.5353
 7463TIP3    H243881   3.353   1.304   3.376 -1.0609  0.4212 -0.2240
 7464TIP3   OH243882   2.541   0.150   0.960  0.1948  0.4501  0.0893
 7464TIP3    H143883   2.606   0.159   0.891 -0.0298  0.4453 -0.1253
 7464TIP3    H243884   2.581   0.191   1.036  0.1956  1.0207 -0.2129
 7465TIP3   OH243885   2.469   2.698   7.121  0.3827 -0.6805 -0.7103
 7465TIP3    H143886   2.426   2.673   7.039 -1.8270 -0.5857  0.3245
 7465TIP3    H243887   2.459   2.793   7.125  2.0596 -0.4575 -1.1173
 7466TIP3   OH243888   3.854   1.747  14.636  0.4371  0.0311  0.4054
 7466TIP3    H143889   3.797   1.764  14.560  0.4851 -0.8989  0.1579
 7466TIP3    H243890   3.895   1.832  14.654  1.6467 -0.0380 -1.6316
 7467TIP3   OH243891   3.659   4.755   3.468  0.2231 -0.0524 -0.4653
 7467TIP3    H143892   3.586   4.693   3.474  0.1603  0.0499 -0.1751
 7467TIP3    H243893   3.728   4.706   3.422  0.2805 -0.4389  0.0245
 7468TIP3   OH243894   0.085   6.467  17.088 -0.0197 -0.0694 -0.3183
 7468TIP3    H143895   0.121   6.379  17.091 -1.3375 -0.6145  0.0389
 7468TIP3    H243896   0.106   6.498  17.000  2.4853  0.1913  0.2816
 7469TIP3   OH243897   4.749   0.700   5.332  0.0722 -0.4745 -0.0691
 7469TIP3    H143898   4.823   0.760   5.324 -0.2445 -0.1016 -0.2498
 7469TIP3    H243899   4.776   0.621   5.285  1.5047 -1.4751  2.2945
 7470TIP3   OH243900   3.120   0.750   3.564 -0.0906  0.0474 -0.2034
 7470TIP3    H143901   3.188   0.817   3.566  0.5029 -0.5439  1.7073
 7470TIP3    H243902   3.038   0.800   3.556  0.4154  0.9191 -0.0829
 7471TIP3   OH243903   2.850   1.403   4.691 -0.1076  0.4124  0.4577
 7471TIP3    H143904   2.813   1.480   4.735 -1.5377  0.1298 -0.1955
 7471TIP3    H243905   2.815   1.408   4.602 -0.6415 -1.2562  0.5443
 7472TIP3   OH243906   5.012   6.583   1.513  0.5696 -0.0628 -0.3296
 7472TIP3    H143907   5.059   6.660   1.480  0.1823 -0.0493 -0.8664
 7472TIP3    H243908   4.925   6.590   1.474  0.0094  0.0778  0.9139
 7473TIP3   OH243909   2.694   4.567   5.775 -0.6841  0.0263 -0.6545
 7473TIP3    H143910   2.667   4.563   5.867 -0.0515 -0.6428 -0.4913
 7473TIP3    H243911   2.613   4.588   5.728 -0.6326  2.4366  0.2199
 7474TIP3   OH243912   6.608   3.139   5.077  0.2451  0.4791  0.6127
 7474TIP3    H143913   6.608   3.173   5.167  2.3715  2.5391 -0.0764
 7474TIP3    H243914   6.680   3.076   5.074 -0.0598  0.1336  0.4318
 7475TIP3   OH243915   1.756   1.083   5.470  0.3647 -0.0377 -0.2964
 7475TIP3    H143916   1.800   1.073   5.385  1.7204 -0.4414  0.4139
 7475TIP3    H243917   1.818   1.135   5.522 -0.5120  0.3222  0.4018
 7476TIP3   OH243918   2.322   3.301  16.943 -0.0786  0.1091  0.1092
 7476TIP3    H143919   2.233   3.328  16.918  0.3523  0.6535 -0.9208
 7476TIP3    H243920   2.368   3.384  16.960 -0.1115 -0.2139  1.9554
 7477TIP3   OH243921   6.729   2.141   3.921  0.0989  0.4867 -0.1187
 7477TIP3    H143922   6.817   2.131   3.958 -0.0331 -0.7041 -0.0966
 7477TIP3    H243923   6.732   2.225   3.875  0.4167  1.7912  2.1330
 7478TIP3   OH243924   0.388   4.826  17.182 -0.3694 -0.2235 -0.1397
 7478TIP3    H143925   0.405   4.732  17.179  0.1148 -0.2027  1.1423
 7478TIP3    H243926   0.471   4.864  17.211 -1.3552  0.2863  2.2375
 7479TIP3   OH243927   5.080   1.178  15.522  0.4736  0.4703  0.0561
 7479TIP3    H143928   4.992   1.140  15.531 -0.2827  1.9546 -0.6916
 7479TIP3    H243929   5.136   1.103  15.506 -1.0121 -0.3598 -1.6738
 7480TIP3   OH243930   4.498   5.124   3.618 -0.0209  0.3671 -0.4641
 7480TIP3    H143931   4.562   5.109   3.688  0.4397  0.8932 -0.7647
 7480TIP3    H243932   4.487   5.219   3.617 -0.2775  0.3321 -0.8893
 7481TIP3   OH243933   3.214   4.214   2.582 -0.6508  0.4814  0.9250
 7481TIP3    H143934   3.195   4.124   2.610 -1.0899  0.4041  0.4114
 7481TIP3    H243935   3.307   4.212   2.559 -0.6521  0.1560  0.9308
 7482TIP3   OH243936   6.736   3.450  17.227 -0.0479 -0.1070  0.3652
 7482TIP3    H143937   6.739   3.384  17.158 -3.1132  1.5841 -1.6127
 7482TIP3    H243938   6.796   3.519  17.197  0.0269 -0.1900  0.3247
 7483TIP3   OH243939   3.188   1.140  13.749 -0.8661  0.0846 -0.2717
 7483TIP3    H143940   3.235   1.218  13.777  0.9160 -1.2363  0.6578
 7483TIP3    H243941   3.145   1.108  13.829  1.0951 -1.5930  0.2169
 7484TIP3   OH243942   2.413   0.904  12.064 -0.6018  0.1205  0.0378
 7484TIP3    H143943   2.406   0.978  12.004  1.9796  0.4739  0.0706
 7484TIP3    H243944   2.341   0.846  12.039 -0.1424  0.6509 -2.8276
 7485TIP3   OH243945   4.994   3.651  17.151 -0.6249 -0.0940  0.2867
 7485TIP3    H143946   5.053   3.720  17.182 -0.4204 -0.6165  1.0828
 7485TIP3    H243947   4.936   3.695  17.089 -1.0967  0.9970  1.4576
 7486TIP3   OH243948   4.451   2.194   3.563 -0.0627 -0.1765 -0.0449
 7486TIP3    H143949   4.427   2.287   3.573 -0.7226 -0.5010  1.9535
 7486TIP3    H243950   4.500   2.190   3.481  1.3967  2.2234  0.6129
 7487TIP3   OH243951   6.047   6.486   1.386  0.2358  0.3067 -0.1652
 7487TIP3    H143952   5.973   6.433   1.417  1.4092 -1.1461  0.3218
 7487TIP3    H243953   6.040   6.568   1.434 -0.3890 -0.2691  0.7649
 7488TIP3   OH243954   5.047   1.461   3.613 -0.0050  0.2584  0.1622
 7488TIP3    H143955   5.083   1.450   3.701  1.5526 -1.7151 -0.6394
 7488TIP3    H243956   5.034   1.555   3.604  0.1416  0.5339  2.3647
 7489TIP3   OH243957   5.899   3.202  15.549  0.0175  1.0293  0.1578
 7489TIP3    H143958   5.855   3.143  15.611 -2.4300  1.4950 -1.0586
 7489TIP3    H243959   5.962   3.250  15.603 -2.0251  1.4214  2.3146
 7490TIP3   OH243960   5.126   2.161   2.838  0.6354 -0.3801 -0.7905
 7490TIP3    H143961   5.197   2.189   2.896 -0.4103  1.3314 -0.2728
 7490TIP3    H243962   5.170   2.118   2.765  2.1426 -0.1809 -0.0371
 7491TIP3   OH243963   4.147   3.299   4.083  0.4186  0.4010 -0.0478
 7491TIP3    H143964   4.182   3.297   4.172 -0.4427 -0.5387  0.3009
 7491TIP3    H243965   4.171   3.214   4.046 -0.4009  0.2319 -0.2223
 7492TIP3   OH243966   6.087   0.906  16.076  0.1213 -0.0178  0.1856
 7492TIP3    H143967   6.178   0.904  16.104  1.2478  1.6920 -2.8687
 7492TIP3    H243968   6.072   0.997  16.049 -1.2748 -1.0079 -2.7867
 7493TIP3   OH243969   3.796   5.931  12.995 -0.1034 -0.1151 -0.0382
 7493TIP3    H143970   3.891   5.940  12.999 -0.0370 -1.0447  1.1348
 7493TIP3    H243971   3.767   6.002  12.938  1.2592  0.3809 -0.1466
 7494TIP3   OH243972   2.763   6.155  15.955  0.2141 -0.3302 -0.2599
 7494TIP3    H143973   2.845   6.106  15.953 -0.3351 -1.3162  0.5855
 7494TIP3    H243974   2.720   6.134  15.872 -0.8697 -2.8511  0.8372
 7495TIP3   OH243975   6.556   0.007   5.080 -0.4285 -0.2213  0.2091
 7495TIP3    H143976   6.518   0.084   5.122 -0.5663  0.4755 -1.1297
 7495TIP3    H243977   6.480  -0.049   5.062 -0.4954 -0.0751  0.0250
 7496TIP3   OH243978   0.358   3.835   4.561 -0.0068 -0.2823 -0.0261
 7496TIP3    H143979   0.294   3.906   4.561 -0.0668 -0.3353 -0.3684
 7496TIP3    H243980   0.312   3.761   4.602  0.0297 -0.1513  0.2576
 7497TIP3   OH243981   6.085   0.747  11.888 -0.1951 -0.2914 -0.7668
 7497TIP3    H143982   6.174   0.781  11.902 -0.2952  0.1421 -1.1475
 7497TIP3    H243983   6.098   0.662  11.846  0.0286  0.3240 -1.9851
 7498TIP3   OH243984   1.282   1.116   3.950  0.3081 -0.1544 -0.3069
 7498TIP3    H143985   1.252   1.151   4.034  0.3522 -0.0645 -0.3288
 7498TIP3    H243986   1.375   1.138   3.946  0.1707  0.3949 -0.6579
 7499TIP3   OH243987   1.178   5.298  14.124  0.2322 -0.4144 -0.4886
 7499TIP3    H143988   1.231   5.350  14.063  0.7183  0.3349  0.5461
 7499TIP3    H243989   1.132   5.236  14.068  0.9612 -0.0055 -1.5853
 7500TIP3   OH243990   3.461   3.223   6.316 -0.3579  0.1141  0.4336
 7500TIP3    H143991   3.384   3.179   6.353  0.4153 -0.2813  1.6367
 7500TIP3    H243992   3.526   3.220   6.386  1.7150 -1.9623 -1.4018
 7501TIP3   OH243993   2.378   3.145   4.146 -0.2958 -0.6975 -0.0104
 7501TIP3    H143994   2.312   3.135   4.214  0.6482  1.6417  1.3590
 7501TIP3    H243995   2.452   3.091   4.175 -0.3127 -0.5862  0.2362
 7502TIP3   OH243996   5.785   3.255  14.479 -0.2639  0.8165  0.5847
 7502TIP3    H143997   5.774   3.207  14.397 -1.6250  1.2352  0.4997
 7502TIP3    H243998   5.701   3.245  14.524  0.9667 -0.7691  2.6995
 7503TIP3   OH243999   0.377   4.877   0.730  0.7269  0.1827  0.0052
 7503TIP3    H144000   0.370   4.839   0.642 -0.6958 -0.6477  0.4385
 7503TIP3    H244001   0.289   4.867   0.767  0.6843  2.5908  0.6995
 7504TIP3   OH244002   4.369   0.058   1.363  0.5491 -0.1901 -0.3036
 7504TIP3    H144003   4.308   0.022   1.428  0.3290  2.3572  1.0281
 7504TIP3    H244004   4.316   0.068   1.284  0.6185 -2.6082 -0.7231
 7505TIP3   OH244005   6.772   5.608   5.170 -0.1757 -0.0609 -0.2992
 7505TIP3    H144006   6.764   5.700   5.145 -2.0884  0.0417  0.4946
 7505TIP3    H244007   6.707   5.563   5.115 -0.9355 -0.5483  0.9516
 7506TIP3   OH244008   5.693   0.950  15.593 -0.1320  0.2280  0.1720
 7506TIP3    H144009   5.688   0.870  15.645  2.4137  0.0434  0.2925
 7506TIP3    H244010   5.603   0.980  15.585 -0.8619 -1.0569  2.6115
 7507TIP3   OH244011   2.446   2.685  15.887 -0.0628 -0.0971 -0.3462
 7507TIP3    H144012   2.517   2.745  15.862 -0.5817  1.3842  1.4751
 7507TIP3    H244013   2.488   2.623  15.947  0.4449 -1.5574 -2.1295
 7508TIP3   OH244014   3.597   5.076   5.976 -0.0388  0.8452  0.6368
 7508TIP3    H144015   3.615   4.993   6.021  0.4998  0.1397 -0.8224
 7508TIP3    H244016   3.682   5.103   5.941 -0.7792  0.2965 -1.7158
 7509TIP3   OH244017   2.113   3.566   2.262 -0.2322  0.3086 -0.1096
 7509TIP3    H144018   2.057   3.628   2.309 -3.2517 -2.9451  1.1097
 7509TIP3    H244019   2.185   3.549   2.323 -0.9821  0.4624  0.8562
 7510TIP3   OH244020   3.745   5.568  13.569 -0.2075  0.3159  0.1000
 7510TIP3    H144021   3.769   5.653  13.532  0.1096 -0.2077 -0.9521
 7510TIP3    H244022   3.651   5.574  13.584  0.1107  1.5422  1.9757
 7511TIP3   OH244023   1.506   1.302  13.940  0.5927 -0.1920  0.0340
 7511TIP3    H144024   1.559   1.377  13.914  0.4781 -0.4341 -0.9316
 7511TIP3    H244025   1.418   1.337  13.951  1.0347  0.3546  2.3345
 7512TIP3   OH244026   3.366   6.076  17.233 -0.0603 -0.6688  0.1285
 7512TIP3    H144027   3.387   6.053  17.324  1.9479 -0.0860 -0.1262
 7512TIP3    H244028   3.320   6.159  17.239  1.0690 -0.0557  0.5906
 7513TIP3   OH244029   0.481   5.424  10.676 -0.4128 -0.2779 -0.0511
 7513TIP3    H144030   0.487   5.459  10.587 -0.1611 -2.0701 -0.8023
 7513TIP3    H244031   0.413   5.356  10.670 -1.1598  0.3063  1.4088
 7514TIP3   OH244032   0.601   3.790   2.557 -0.2583 -0.6243  0.3632
 7514TIP3    H144033   0.665   3.791   2.628 -0.5387 -0.1987  0.6134
 7514TIP3    H244034   0.636   3.727   2.494 -0.5375 -1.8484  1.3789
 7515TIP3   OH244035   1.819   1.998   2.743 -0.0949 -0.0081 -0.0706
 7515TIP3    H144036   1.777   2.024   2.825  0.7060  1.4300 -0.0820
 7515TIP3    H244037   1.862   2.077   2.712  2.5702 -1.3628 -0.0897
 7516TIP3   OH244038   4.473   5.769  15.429  0.4229  0.1875  0.4899
 7516TIP3    H144039   4.407   5.739  15.492  0.8381 -1.6158  0.1159
 7516TIP3    H244040   4.557   5.751  15.473  0.6907  0.0960 -0.0528
 7517TIP3   OH244041   0.065   0.940  13.707 -0.4330 -0.4681 -0.0853
 7517TIP3    H144042   0.005   0.932  13.632 -0.0459 -0.9690 -0.3434
 7517TIP3    H244043   0.105   1.026  13.695 -2.9144  1.0256  1.4570
 7518TIP3   OH244044   1.487   1.872   5.203 -0.2336  0.1429 -0.1477
 7518TIP3    H144045   1.424   1.816   5.156 -1.8820  0.2839  1.7445
 7518TIP3    H244046   1.552   1.811   5.237 -1.9597 -0.7464  1.8093
 7519TIP3   OH244047   6.234   5.667  16.426 -0.2149 -0.4006  0.1911
 7519TIP3    H144048   6.253   5.753  16.463 -0.3937 -0.4184  0.3256
 7519TIP3    H244049   6.269   5.671  16.336 -2.4046  0.6699 -0.6719
 7520TIP3   OH244050   5.287   1.342   5.955  0.0365  0.0007  0.0145
 7520TIP3    H144051   5.230   1.270   5.982  1.6125 -0.4985  2.3281
 7520TIP3    H244052   5.255   1.418   6.005  0.4490  0.0768  0.1667
 7521TIP3   OH244053   4.686   4.413  15.260  0.0765 -0.3624  0.0616
 7521TIP3    H144054   4.746   4.462  15.316 -0.0001  0.1614 -0.3042
 7521TIP3    H244055   4.599   4.445  15.285 -0.2898 -2.7771  2.2383
 7522TIP3   OH244056   6.660   1.465  13.543  0.1044  0.1232  0.0505
 7522TIP3    H144057   6.734   1.492  13.489  2.1704 -1.7386  1.7589
 7522TIP3    H244058   6.672   1.511  13.626 -0.1842 -0.7606  0.6018
 7523TIP3   OH244059   6.449   3.472   0.727 -0.2239 -0.1109  0.3591
 7523TIP3    H144060   6.500   3.455   0.647  0.8338  1.1174  0.7336
 7523TIP3    H244061   6.424   3.385   0.758  1.5790 -0.7670  0.0946
 7524TIP3   OH244062   2.463   5.234  11.277  0.5080 -0.2427  0.3044
 7524TIP3    H144063   2.502   5.148  11.265  1.5676  0.1897  0.4472
 7524TIP3    H244064   2.437   5.262  11.190 -0.2055 -0.8565  0.3101
 7525TIP3   OH244065   6.044   1.031   2.284  0.0410 -0.0341 -0.6887
 7525TIP3    H144066   6.086   1.102   2.235 -1.3648 -0.4413 -2.6391
 7525TIP3    H244067   6.083   0.951   2.248  3.0606 -0.4180  2.8365
 7526TIP3   OH244068   5.739   0.935  13.118  0.0854 -0.4336 -0.5120
 7526TIP3    H144069   5.767   0.945  13.026  0.0490 -0.4925 -0.5294
 7526TIP3    H244070   5.799   0.870  13.154  0.5578  0.1160 -0.2974
 7527TIP3   OH244071   0.767   5.086  16.214  0.2568  0.5640 -0.4485
 7527TIP3    H144072   0.811   5.068  16.297  0.3542 -0.5008 -0.7214
 7527TIP3    H244073   0.796   5.175  16.191  0.9039  0.5379  0.2236
 7528TIP3   OH244074   1.051   5.835   5.374  0.3242  0.2318 -0.0759
 7528TIP3    H144075   1.050   5.751   5.421 -0.7904  0.4874  0.3729
 7528TIP3    H244076   1.083   5.812   5.287 -1.0144 -0.8771 -0.3173
 7529TIP3   OH244077   6.588   1.617   4.391 -0.2613  0.0969  0.2933
 7529TIP3    H144078   6.529   1.679   4.434 -0.9461 -0.1421 -0.3034
 7529TIP3    H244079   6.587   1.540   4.448 -2.7283 -1.0025 -1.1087
 7530TIP3   OH244080   5.148   2.351  11.114  0.2311  0.3523  0.0406
 7530TIP3    H144081   5.097   2.421  11.072  1.7835  0.8573 -1.0935
 7530TIP3    H244082   5.082   2.290  11.146 -1.2096  2.3214  1.1242
 7531TIP3   OH244083   3.358   3.447   1.644  0.3183 -0.2864 -0.5408
 7531TIP3    H144084   3.366   3.427   1.738 -0.5231 -0.4297 -0.4911
 7531TIP3    H244085   3.266   3.429   1.624  0.4409 -0.0331 -1.3459
 7532TIP3   OH244086   0.241   5.543   5.310  0.4844 -0.0694  0.9576
 7532TIP3    H144087   0.168   5.525   5.369  0.8426 -4.4775  0.3945
 7532TIP3    H244088   0.319   5.517   5.359  1.6471  2.8948  0.9109
 7533TIP3   OH244089   2.907   6.132   4.900 -0.7737  0.1253 -0.0353
 7533TIP3    H144090   2.851   6.054   4.895  1.3514 -1.5178  0.7696
 7533TIP3    H244091   2.884   6.181   4.821 -4.4920  0.4338  1.0073
 7534TIP3   OH244092   3.365   6.570  11.174 -0.2524  0.3229  0.1750
 7534TIP3    H144093   3.416   6.622  11.236 -0.2253 -2.0560  2.3076
 7534TIP3    H244094   3.274   6.596  11.189 -0.2526 -0.2562  1.3354
 7535TIP3   OH244095   4.784   1.144  12.215  0.0449  1.1455  0.0958
 7535TIP3    H144096   4.790   1.051  12.235 -0.2216  1.1681  0.2948
 7535TIP3    H244097   4.690   1.159  12.200  0.2538  1.0995 -1.3375
 7536TIP3   OH244098   3.625   5.054  12.620  0.5476 -0.4470 -0.2051
 7536TIP3    H144099   3.644   5.136  12.574 -1.5582  0.4054  0.3014
 7536TIP3    H244100   3.637   5.074  12.712  0.4208 -0.8194 -0.1048
 7537TIP3   OH244101   2.074   0.021   2.756  0.2951 -0.2329  0.0425
 7537TIP3    H144102   2.128  -0.021   2.822 -0.7564 -0.8098  0.5535
 7537TIP3    H244103   2.050  -0.050   2.696 -0.2098 -0.0635  0.0385
 7538TIP3   OH244104   1.408   0.241   5.917 -0.4375 -0.1224 -0.4893
 7538TIP3    H144105   1.395   0.223   6.010 -0.4102 -2.1183 -0.8126
 7538TIP3    H244106   1.443   0.159   5.882  1.7456  1.2927 -1.8609
 7539TIP3   OH244107   3.567   0.227   6.636 -0.2493 -0.2122 -0.2371
 7539TIP3    H144108   3.582   0.134   6.652  1.2053  0.3187  1.9143
 7539TIP3    H244109   3.575   0.237   6.541  2.6630 -1.8282 -0.2695
 7540TIP3   OH244110   2.626   2.345  13.109  0.4092  0.1816 -0.0037
 7540TIP3    H144111   2.690   2.390  13.054  0.8375  2.7055  2.3298
 7540TIP3    H244112   2.543   2.354  13.062  0.7545  2.2704 -0.3187
 7541TIP3   OH244113   0.925   0.650  16.778  0.0474  0.0020 -0.6274
 7541TIP3    H144114   0.994   0.717  16.781  0.0043  0.0292 -0.1616
 7541TIP3    H244115   0.846   0.696  16.809 -0.4624  0.2937 -2.2428
 7542TIP3   OH244116   1.666   4.850   1.403  0.0295 -0.3046  0.1496
 7542TIP3    H144117   1.676   4.929   1.350  1.5279  0.6652  1.7840
 7542TIP3    H244118   1.611   4.877   1.477 -2.3095 -1.7185 -0.9528
 7543TIP3   OH244119   5.976   1.324   6.218 -0.0535  0.7545  1.2123
 7543TIP3    H144120   5.895   1.328   6.268 -0.0662  0.8104  1.1875
 7543TIP3    H244121   6.025   1.402   6.245 -0.0084  0.7215  1.2264
 7544TIP3   OH244122   5.071   4.024   5.926 -0.0894  0.3609 -0.8358
 7544TIP3    H144123   4.976   4.031   5.918 -0.3297 -1.5624 -0.1044
 7544TIP3    H244124   5.085   3.976   6.007  1.5204  0.5121 -0.9911
 7545TIP3   OH244125   4.005   5.303  15.872 -0.0470 -0.5368  0.1363
 7545TIP3    H144126   3.986   5.214  15.842 -0.9243  0.1877 -1.5701
 7545TIP3    H244127   3.950   5.314  15.949 -0.3208 -1.3000  0.0624
 7546TIP3   OH244128   3.133   3.934  12.250  0.5334 -0.3924 -0.3037
 7546TIP3    H144129   3.058   3.876  12.265 -0.9997  1.9709  2.0778
 7546TIP3    H244130   3.165   3.911  12.163 -0.7645 -3.8296 -0.0059
 7547TIP3   OH244131   5.285   3.733   2.219  0.1524  0.0712 -0.1530
 7547TIP3    H144132   5.252   3.702   2.304 -0.4520  0.5583 -0.2032
 7547TIP3    H244133   5.380   3.724   2.226  0.1235  0.2879  0.6491
 7548TIP3   OH244134   4.923   4.825  14.389  0.1933 -0.6306  0.1124
 7548TIP3    H144135   4.877   4.785  14.315 -1.0646 -0.2767  0.6725
 7548TIP3    H244136   4.957   4.907  14.354 -1.4238  0.1177  0.1773
 7549TIP3   OH244137   2.111   6.124   2.188 -0.5079 -0.2285 -0.2618
 7549TIP3    H144138   2.027   6.153   2.153 -0.5291 -1.4777 -1.2970
 7549TIP3    H244139   2.175   6.181   2.144 -0.7991  0.8462  0.6645
 7550TIP3   OH244140   0.627   3.852   5.073 -0.0027  0.3611 -0.4188
 7550TIP3    H144141   0.691   3.781   5.080  1.3847  1.6751  0.9671
 7550TIP3    H244142   0.645   3.893   4.989 -0.3992 -0.5138 -0.9436
 7551TIP3   OH244143   0.151   6.513  12.667 -0.0452 -0.3742  0.2274
 7551TIP3    H144144   0.084   6.450  12.693 -0.4710  0.8532  2.2959
 7551TIP3    H244145   0.234   6.468  12.682 -0.3569 -0.6886  1.0282
 7552TIP3   OH244146   6.240   2.037  16.235  0.1783  0.2584 -0.1536
 7552TIP3    H144147   6.333   2.018  16.224 -0.3686 -3.8655  0.7494
 7552TIP3    H244148   6.223   2.022  16.328 -1.7394 -1.1986 -0.6780
 7553TIP3   OH244149   2.253   5.441   3.355 -0.1366 -0.1080 -0.2938
 7553TIP3    H144150   2.182   5.481   3.406 -0.5205  1.3948 -1.8997
 7553TIP3    H244151   2.214   5.363   3.316  0.5708 -2.1648  2.7449
 7554TIP3   OH244152   6.065   4.554   0.977  0.0615  0.1365  0.5745
 7554TIP3    H144153   6.026   4.630   0.935  0.3522  0.0160  0.0780
 7554TIP3    H244154   6.001   4.484   0.966  0.2728  0.0210  0.0378
 7555TIP3   OH244155   0.460   4.694   0.518 -0.2725 -0.3373  0.0948
 7555TIP3    H144156   0.512   4.671   0.441 -1.0942 -0.2028 -0.5134
 7555TIP3    H244157   0.379   4.645   0.507  0.1972 -1.5465  1.6747
 7556TIP3   OH244158   3.998   0.249  15.229 -0.0226 -0.1524  0.0466
 7556TIP3    H144159   3.978   0.301  15.307 -0.4349  1.6184 -1.1919
 7556TIP3    H244160   3.925   0.266  15.170  0.8175 -0.6041 -1.1497
 7557TIP3   OH244161   5.645   6.584  15.519 -0.7129 -0.5253  0.8020
 7557TIP3    H144162   5.692   6.626  15.590 -0.1739  0.5685 -0.1728
 7557TIP3    H244163   5.555   6.616  15.526 -0.8561 -1.0512  1.4581
 7558TIP3   OH244164   5.620   0.908  13.472 -0.1772 -0.3479  0.2354
 7558TIP3    H144165   5.639   0.944  13.558 -1.4440  0.4031  0.2362
 7558TIP3    H244166   5.705   0.880  13.437  0.5953  0.9591  1.0061
 7559TIP3   OH244167   1.785   4.239   3.823  0.3711 -0.0965  0.7282
 7559TIP3    H144168   1.749   4.224   3.910  0.0961  2.3654  1.1120
 7559TIP3    H244169   1.774   4.333   3.808  3.5528  0.2132 -0.5378
 7560TIP3   OH244170   2.590   2.336  11.879 -0.5509  0.5772 -0.1416
 7560TIP3    H144171   2.672   2.287  11.878 -0.4036  0.8115  0.3190
 7560TIP3    H244172   2.535   2.292  11.814 -0.5348 -0.3812  0.4825
 7561TIP3   OH244173   0.866   1.667   0.022 -0.8652 -0.0803  0.7577
 7561TIP3    H144174   0.780   1.625   0.032 -1.0900 -0.1436 -1.1035
 7561TIP3    H244175   0.847   1.761   0.027 -0.9539 -0.1062  0.9288
 7562TIP3   OH244176   1.833   6.631  14.721  0.3463 -0.5100 -0.8197
 7562TIP3    H144177   1.772   6.596  14.657  0.0563 -1.1394 -0.2134
 7562TIP3    H244178   1.778   6.677  14.784  0.2827 -2.4816  0.6484
 7563TIP3   OH244179   0.187   3.294   2.182  0.3884 -0.9292 -0.2643
 7563TIP3    H144180   0.123   3.233   2.219  0.0395 -2.1433 -2.6927
 7563TIP3    H244181   0.180   3.372   2.238 -2.5888 -1.3176  0.0881
 7564TIP3   OH244182   3.726   1.116   2.996  0.0746 -0.0360  0.3658
 7564TIP3    H144183   3.792   1.184   2.980  0.3941 -0.2479  0.7611
 7564TIP3    H244184   3.644   1.155   2.966  0.2125  0.6226  0.8221
 7565TIP3   OH244185   4.038   2.807  12.762 -0.3372  0.2322  0.1498
 7565TIP3    H144186   4.108   2.753  12.726 -0.5603 -0.4352  0.6942
 7565TIP3    H244187   3.988   2.835  12.686  0.4513  0.6355 -0.2397
 7566TIP3   OH244188   1.404   3.150  12.987 -0.3635  0.5147  0.1167
 7566TIP3    H144189   1.357   3.197  12.919 -1.5762 -0.9774 -0.1379
 7566TIP3    H244190   1.337   3.130  13.053  0.4787  0.6273  1.0400
 7567TIP3   OH244191   2.916   6.366  10.334  0.1002  0.6661 -0.4896
 7567TIP3    H144192   2.997   6.416  10.324  1.3417 -1.0061  0.6930
 7567TIP3    H244193   2.847   6.427  10.308  1.7872  1.7511 -2.7976
 7568TIP3   OH244194   5.812   5.661  16.994  0.8907 -0.1246 -0.1005
 7568TIP3    H144195   5.723   5.694  16.995  0.3784 -1.4353 -0.2069
 7568TIP3    H244196   5.864   5.730  17.035 -0.2654  0.3845  0.5502
 7569TIP3   OH244197   4.478   4.071  13.411 -0.3663 -0.2020 -0.0327
 7569TIP3    H144198   4.570   4.077  13.438 -0.4135  1.9341 -0.1829
 7569TIP3    H244199   4.450   3.986  13.443  1.7891 -1.1292 -0.4077
 7570TIP3   OH244200   0.135   6.166   5.120 -0.2335 -0.5681 -0.1271
 7570TIP3    H144201   0.107   6.236   5.180  0.3054 -0.6538  0.2347
 7570TIP3    H244202   0.207   6.205   5.071 -2.0743  0.2646 -2.3282
 7571TIP3   OH244203   1.974   6.411   2.660  0.0709  0.1140 -0.6126
 7571TIP3    H144204   1.950   6.352   2.589  0.0453 -2.4947  1.4298
 7571TIP3    H244205   2.057   6.451   2.631 -0.2336 -0.4186 -2.3314
 7572TIP3   OH244206   5.775   0.690  11.937  0.2185 -0.5764  0.0112
 7572TIP3    H144207   5.867   0.713  11.920 -0.2862  0.6360 -1.2983
 7572TIP3    H244208   5.744   0.760  11.995  0.2802 -1.3512  1.0017
 7573TIP3   OH244209   2.100   2.590  10.686 -0.2982  0.4492 -0.8032
 7573TIP3    H144210   2.113   2.684  10.699 -0.1827  0.2278  0.9133
 7573TIP3    H244211   2.181   2.550  10.718 -1.2708 -0.3613  0.7507
 7574TIP3   OH244212   6.729   4.350   4.169 -0.0010 -0.6097 -0.1360
 7574TIP3    H144213   6.743   4.373   4.261 -0.7292  2.4621 -0.6650
 7574TIP3    H244214   6.791   4.405   4.121 -2.8963  1.6316 -1.6418
 7575TIP3   OH244215   1.017   5.753   0.885 -0.0069  0.6665 -0.0634
 7575TIP3    H144216   1.052   5.754   0.974  1.5407 -0.4820 -0.6182
 7575TIP3    H244217   0.937   5.700   0.892 -0.3512  1.2751  0.7734
 7576TIP3   OH244218   1.236   1.100   4.620  0.3918 -0.5162  0.0783
 7576TIP3    H144219   1.183   1.050   4.558 -1.6307  2.7468 -1.1068
 7576TIP3    H244220   1.326   1.072   4.603 -0.3083 -1.3840 -2.7758
 7577TIP3   OH244221   5.537   1.653  15.735  1.0435  0.1155  0.0492
 7577TIP3    H144222   5.444   1.671  15.752  0.9101  0.0635 -0.5728
 7577TIP3    H244223   5.549   1.563  15.762  1.4771  0.7811  2.2706
 7578TIP3   OH244224   2.745   3.374   1.247 -0.2386  0.1100 -0.1043
 7578TIP3    H144225   2.780   3.418   1.169  0.3273  2.4045  1.3670
 7578TIP3    H244226   2.813   3.311   1.271 -1.1324 -1.8733 -2.3439
 7579TIP3   OH244227   1.002   0.714   2.697 -0.9395 -0.7137  0.3900
 7579TIP3    H144228   0.929   0.676   2.746 -0.2991 -1.9448  0.3997
 7579TIP3    H244229   0.981   0.697   2.606 -0.0118 -2.3213  0.4457
 7580TIP3   OH244230   3.800   4.757  16.725  0.2617 -0.2725 -0.2425
 7580TIP3    H144231   3.859   4.832  16.733  1.7802 -1.4456  0.1491
 7580TIP3    H244232   3.746   4.761  16.804  0.9945 -0.1261  0.2608
 7581TIP3   OH244233   0.883   3.386  15.111 -0.0310 -0.5958  0.3368
 7581TIP3    H144234   0.903   3.412  15.022 -0.2985 -0.7353  0.2354
 7581TIP3    H244235   0.791   3.362  15.109 -0.4669  0.9212  0.9980
 7582TIP3   OH244236   5.146   4.540   4.581 -0.2025 -0.1592  0.4199
 7582TIP3    H144237   5.186   4.453   4.584  1.2701  0.4929  1.5336
 7582TIP3    H244238   5.138   4.560   4.488  1.5275 -0.6086  0.1402
 7583TIP3   OH244239   0.242   3.758   4.154 -0.0403  0.0850  0.1362
 7583TIP3    H144240   0.269   3.704   4.228  0.3066 -0.3316 -0.2871
 7583TIP3    H244241   0.213   3.840   4.194  0.1990 -0.1096  0.7278
 7584TIP3   OH244242   2.329   5.584   6.296  0.0810 -0.0559  0.1808
 7584TIP3    H144243   2.343   5.531   6.217 -0.3712  0.1938 -0.0706
 7584TIP3    H244244   2.273   5.529   6.351 -0.2304  0.0782  0.0010
 7585TIP3   OH244245   4.676   5.289   0.579  0.1257  0.5324 -0.5473
 7585TIP3    H144246   4.675   5.328   0.492  0.7209  1.0324 -0.3392
 7585TIP3    H244247   4.768   5.294   0.606 -0.0030  0.1024 -0.0161
 7586TIP3   OH244248   4.467   0.975  14.907  0.3154 -0.5125  0.8543
 7586TIP3    H144249   4.556   1.010  14.907  0.4401 -0.8221  1.2236
 7586TIP3    H244250   4.459   0.927  14.825 -0.2015  1.2240 -0.1710
 7587TIP3   OH244251   0.589   3.673   1.747  0.4990 -0.4315  0.0426
 7587TIP3    H144252   0.534   3.737   1.791  0.0115 -1.8142  1.5512
 7587TIP3    H244253   0.676   3.713   1.744 -0.3539  1.4621 -1.6867
 7588TIP3   OH244254   4.871   4.372   5.285  0.1876  0.7582  0.1039
 7588TIP3    H144255   4.812   4.302   5.255  0.6534  0.4795 -0.1852
 7588TIP3    H244256   4.869   4.366   5.380 -0.6006  1.0477  0.1057
 7589TIP3   OH244257   6.793   4.313   1.309  0.1360  0.3121 -0.0014
 7589TIP3    H144258   6.732   4.263   1.254  1.1373 -0.6311 -0.2978
 7589TIP3    H244259   6.737   4.365   1.367 -0.9426 -1.0099  0.1792
 7590TIP3   OH244260   4.926   0.145   0.333 -0.0882 -0.4441  0.2087
 7590TIP3    H144261   4.839   0.181   0.349  0.7293  0.7291  2.6602
 7590TIP3    H244262   4.914   0.051   0.334 -1.7386 -0.3627 -2.6010
 7591TIP3   OH244263   1.540   3.531  14.143  0.4102  0.1582  0.8252
 7591TIP3    H144264   1.602   3.488  14.202  1.2477 -0.2859 -0.3581
 7591TIP3    H244265   1.466   3.470  14.137  0.2886  0.2338  1.4396
 7592TIP3   OH244266   3.162   0.179   2.957 -0.5882  0.1812  0.5182
 7592TIP3    H144267   3.094   0.135   3.007 -0.3679  0.1409  0.7854
 7592TIP3    H244268   3.118   0.255   2.919 -0.8969 -0.1109  0.2937
 7593TIP3   OH244269   0.595   2.742  13.299  0.1217 -0.0092 -0.0325
 7593TIP3    H144270   0.531   2.750  13.228  0.5561  2.7357 -0.2033
 7593TIP3    H244271   0.649   2.667  13.274  0.6485  1.2264 -2.9928
 7594TIP3   OH244272   1.473   5.464  15.163 -0.4932  0.4076 -0.0895
 7594TIP3    H144273   1.416   5.518  15.218 -0.3268  1.9359 -1.3508
 7594TIP3    H244274   1.419   5.441  15.088 -0.4209 -0.8525  0.2248
 7595TIP3   OH244275   2.677   2.949   0.635  0.4928  0.1215  0.3059
 7595TIP3    H144276   2.740   2.967   0.566 -0.5139  0.1271 -0.6369
 7595TIP3    H244277   2.591   2.957   0.593 -0.1779  0.8300  1.7074
 7596TIP3   OH244278   5.930   2.453   5.031 -0.0067  0.7106 -0.6254
 7596TIP3    H144279   5.980   2.472   5.111  1.3938  1.1324 -1.5694
 7596TIP3    H244280   5.847   2.416   5.063  0.6116  0.6510  1.0086
 7597TIP3   OH244281   6.084   5.189   1.381 -0.5735 -0.1359  0.2440
 7597TIP3    H144282   6.028   5.267   1.388 -1.0185 -0.3785 -0.5011
 7597TIP3    H244283   6.031   5.126   1.333  0.2232 -0.4942 -0.1781
 7598TIP3   OH244284   4.828   5.900   6.218  0.1231 -0.1153  0.3193
 7598TIP3    H144285   4.764   5.953   6.265 -0.9075 -0.4465 -0.6438
 7598TIP3    H244286   4.864   5.841   6.284 -1.4087 -0.6864  0.6997
 7599TIP3   OH244287   4.083   0.257  11.687  0.2077 -0.1097 -0.3404
 7599TIP3    H144288   4.152   0.321  11.668  0.5179 -1.0906 -2.8125
 7599TIP3    H244289   4.001   0.304  11.671  0.3320  0.4843  0.6911
 7600TIP3   OH244290   6.765   5.695   3.726  0.1192  0.0334  0.3420
 7600TIP3    H144291   6.757   5.731   3.814  1.3626  0.6883  0.2148
 7600TIP3    H244292   6.678   5.661   3.705 -0.3034  0.2827  1.6364
 7601TIP3   OH244293   5.211   0.434   5.300  0.2492  0.6537 -0.0326
 7601TIP3    H144294   5.191   0.350   5.259  0.5361  0.2534  0.6307
 7601TIP3    H244295   5.291   0.464   5.255 -0.7636  1.3782 -1.4124
 7602TIP3   OH244296   4.648   3.256   6.048 -0.0339  0.3759  0.0488
 7602TIP3    H144297   4.700   3.262   6.128  0.8031  1.6014 -0.5555
 7602TIP3    H244298   4.561   3.287   6.074  0.1874  0.6026  0.5272
 7603TIP3   OH244299   6.678   6.697  13.253 -0.3054 -0.0219 -0.0963
 7603TIP3    H144300   6.622   6.769  13.223  1.0240  0.8198 -0.6496
 7603TIP3    H244301   6.741   6.738  13.312  1.5362 -0.3760 -1.7286
 7604TIP3   OH244302   2.314   5.555   3.627 -0.3545 -0.2689  0.1314
 7604TIP3    H144303   2.347   5.491   3.690 -0.2583 -0.1553  0.1974
 7604TIP3    H244304   2.326   5.512   3.542 -0.5551 -0.4513  0.1953
 7605TIP3   OH244305   5.929   3.881  16.705  0.1506  0.3250 -0.3040
 7605TIP3    H144306   5.844   3.925  16.708  0.9866  1.9848  0.7069
 7605TIP3    H244307   5.960   3.896  16.616 -0.1093  0.7519 -0.3282
 7606TIP3   OH244308   0.127   4.205   5.955 -1.2273  0.1755  0.2261
 7606TIP3    H144309   0.126   4.233   5.864 -0.3971 -0.9106 -0.1449
 7606TIP3    H244310   0.089   4.117   5.953  0.7060 -0.7279  0.5744
 7607TIP3   OH244311   3.688   2.541  16.438  0.2423  0.2699  0.4612
 7607TIP3    H144312   3.721   2.628  16.460  0.4368 -0.1212  1.7583
 7607TIP3    H244313   3.698   2.490  16.518 -0.1120 -0.8834 -0.2058
 7608TIP3   OH244314   4.768   3.144  15.255  0.4870 -0.1125  0.1842
 7608TIP3    H144315   4.779   3.103  15.169  1.8230  0.9751 -0.2043
 7608TIP3    H244316   4.711   3.219  15.239 -1.4903 -1.4020  0.7909
 7609TIP3   OH244317   3.913   0.757  16.419  0.3902  0.3895  0.1152
 7609TIP3    H144318   3.957   0.823  16.366  2.1230 -0.6702  0.1420
 7609TIP3    H244319   3.820   0.772  16.405  0.7342 -0.1528 -3.6509
 7610TIP3   OH244320   6.320   6.483   3.339  0.2622  0.5900  0.2644
 7610TIP3    H144321   6.360   6.398   3.325  2.2445  1.0380  2.4936
 7610TIP3    H244322   6.367   6.542   3.280  0.7482  0.5698  0.6226
 7611TIP3   OH244323   4.384   6.237   2.736  0.1170  0.0581 -0.8386
 7611TIP3    H144324   4.303   6.208   2.777  0.4465 -1.0295 -0.9140
 7611TIP3    H244325   4.410   6.314   2.785 -0.4808 -0.1200 -0.2238
 7612TIP3   OH244326   2.577   4.373  11.646 -0.5137 -0.5029  0.0627
 7612TIP3    H144327   2.547   4.412  11.563  0.2811 -0.4694 -0.2155
 7612TIP3    H244328   2.577   4.447  11.708  1.2682  0.0389 -0.5376
 7613TIP3   OH244329   2.455   0.526  14.751 -0.0194 -0.2008  0.2044
 7613TIP3    H144330   2.380   0.474  14.721 -0.6141  0.7940 -0.0617
 7613TIP3    H244331   2.515   0.461  14.788 -1.4617 -0.9356  1.3910
 7614TIP3   OH244332   0.948   1.823  15.724 -0.2177  0.1317  0.4869
 7614TIP3    H144333   0.871   1.838  15.779  1.4895  0.5044  2.9953
 7614TIP3    H244334   1.009   1.892  15.749  0.9767 -0.1854 -1.3613
 7615TIP3   OH244335   4.237   5.391   4.631  0.4132  0.1633 -0.0938
 7615TIP3    H144336   4.272   5.452   4.567  0.2084 -0.3256 -0.6809
 7615TIP3    H244337   4.209   5.446   4.704  0.9262  0.6948 -0.2938
 7616TIP3   OH244338   3.043   1.696  14.718  0.1795 -0.4414  0.2942
 7616TIP3    H144339   3.033   1.744  14.800  2.1935 -0.9983  0.9275
 7616TIP3    H244340   3.104   1.749  14.666  0.2339 -0.9264 -0.1464
 7617TIP3   OH244341   2.375   1.304  12.385  0.0042  0.4534 -0.2991
 7617TIP3    H144342   2.465   1.301  12.418  0.6146  1.4567 -1.7538
 7617TIP3    H244343   2.377   1.249  12.306 -0.2892  1.5052 -1.0704
 7618TIP3   OH244344   2.709   1.048  12.538 -0.2852  0.7739 -0.2052
 7618TIP3    H144345   2.705   1.094  12.622 -1.4939  0.6867 -0.2039
 7618TIP3    H244346   2.621   1.054  12.502 -0.1021 -0.2861 -0.8894
 7619TIP3   OH244347   6.186   1.813   2.369 -0.2554 -0.3490  0.3952
 7619TIP3    H144348   6.159   1.753   2.438 -0.4495  1.7912  2.2829
 7619TIP3    H244349   6.113   1.815   2.308 -1.2119 -0.3006  1.5203
 7620TIP3   OH244350   4.790   1.147   2.934 -0.2534  0.0397  0.7558
 7620TIP3    H144351   4.843   1.132   3.012 -0.6388  0.6144  1.1376
 7620TIP3    H244352   4.728   1.215   2.960  0.2788  0.9850 -0.3546
 7621TIP3   OH244353   2.465   5.835  15.606 -0.4610 -0.4589  1.3614
 7621TIP3    H144354   2.439   5.753  15.648  1.3451 -0.9335  1.6312
 7621TIP3    H244355   2.557   5.823  15.584 -0.4960  1.0370  0.2457
 7622TIP3   OH244356   1.753   0.219  14.158 -0.3152  0.4896 -0.1206
 7622TIP3    H144357   1.704   0.155  14.209 -1.2135  1.0875 -0.1943
 7622TIP3    H244358   1.690   0.290  14.143  0.3729  0.9661 -0.8252
 7623TIP3   OH244359   3.893   3.077   0.913  0.4977 -0.1724 -0.4946
 7623TIP3    H144360   3.983   3.074   0.882  1.0835 -1.0144  1.1894
 7623TIP3    H244361   3.892   3.148   0.977  0.2516 -0.8447  0.2670
 7624TIP3   OH244362   0.740   6.399   6.801  0.1574  1.1897 -0.5609
 7624TIP3    H144363   0.711   6.490   6.789 -0.5524  1.4786  2.5113
 7624TIP3    H244364   0.835   6.406   6.813  0.6638  1.0369 -3.6146
 7625TIP3   OH244365   4.024   0.284   0.173  0.6835 -0.6247  0.1669
 7625TIP3    H144366   4.035   0.207   0.230 -2.2428 -1.7970 -0.7038
 7625TIP3    H244367   3.982   0.250   0.094 -0.5168  1.8375 -0.3432
 7626TIP3   OH244368   1.032   1.078   3.805 -0.3702  0.0269 -0.3609
 7626TIP3    H144369   1.091   1.102   3.734 -1.5107  1.4829 -0.8568
 7626TIP3    H244370   1.087   1.077   3.883  0.5797 -0.0376 -1.0179
 7627TIP3   OH244371   1.708   0.031   5.095 -0.7388 -0.4924 -0.7450
 7627TIP3    H144372   1.668  -0.001   5.014 -1.2171 -1.1499 -0.2553
 7627TIP3    H244373   1.652  -0.004   5.165 -0.3458  0.0895 -0.1297
 7628TIP3   OH244374   5.422   3.279   3.489 -0.5782  0.1902 -0.2795
 7628TIP3    H144375   5.356   3.337   3.452 -0.9543 -0.9522 -1.4766
 7628TIP3    H244376   5.474   3.335   3.546 -1.6827  1.4203 -0.4298
 7629TIP3   OH244377   0.301   3.304  12.472 -0.2688  0.1649  0.0505
 7629TIP3    H144378   0.364   3.231  12.479 -0.7085 -0.2894 -0.5746
 7629TIP3    H244379   0.347   3.369  12.419  0.0487  0.2677  0.4395
 7630TIP3   OH244380   6.467   6.462   0.548  0.1294 -0.0240  0.4816
 7630TIP3    H144381   6.505   6.375   0.558 -0.0153 -0.1885 -0.3187
 7630TIP3    H244382   6.490   6.488   0.459  0.5041  0.9218  0.8445
 7631TIP3   OH244383   1.827   5.204  11.796  0.6474  0.2715  0.1565
 7631TIP3    H144384   1.742   5.243  11.776 -0.9470 -2.6178  0.6990
 7631TIP3    H244385   1.876   5.209  11.714 -1.7718 -1.8726 -1.5879
 7632TIP3   OH244386   6.185   0.263  16.101 -0.1616  0.5632  0.3049
 7632TIP3    H144387   6.243   0.337  16.087 -1.0543  1.0386 -1.1175
 7632TIP3    H244388   6.201   0.236  16.192  2.4725  0.4652 -0.0950
 7633TIP3   OH244389   4.656   2.426  15.591 -0.0790  0.5206  0.0914
 7633TIP3    H144390   4.582   2.478  15.558 -1.5711 -1.0361  0.7851
 7633TIP3    H244391   4.674   2.363  15.521  1.5838  1.7703 -0.6622
 7634TIP3   OH244392   3.268   6.381   3.501 -0.1643  0.1425 -0.2938
 7634TIP3    H144393   3.310   6.429   3.573 -0.9218  0.2612  0.0792
 7634TIP3    H244394   3.236   6.300   3.542  0.1315 -0.1733 -0.6791
 7635TIP3   OH244395   0.645   2.260   2.453 -0.4130 -0.3089 -0.2259
 7635TIP3    H144396   0.699   2.286   2.378  0.2822 -2.1205 -0.3868
 7635TIP3    H244397   0.555   2.278   2.426 -0.0482  0.7881 -0.7571
 7636TIP3   OH244398   4.763   1.895   4.281  0.6613  0.1732 -0.1960
 7636TIP3    H144399   4.817   1.930   4.210  0.5619  0.0650 -0.3252
 7636TIP3    H244400   4.820   1.898   4.358  0.9107 -0.1061 -0.3683
 7637TIP3   OH244401   6.501   5.425   0.550  0.4460 -0.6007  0.1590
 7637TIP3    H144402   6.417   5.393   0.582 -1.0773  2.8270  0.0805
 7637TIP3    H244403   6.502   5.402   0.457  0.0251 -1.4749  0.3691
 7638TIP3   OH244404   5.969   6.729   4.380  0.0846  0.2296  0.4059
 7638TIP3    H144405   5.908   6.770   4.318  1.3004 -0.4937 -1.3524
 7638TIP3    H244406   6.015   6.803   4.420  0.5972  0.6896 -0.9769
 7639TIP3   OH244407   0.507   5.490   4.944  0.0770 -0.0284  0.5622
 7639TIP3    H144408   0.538   5.459   5.030 -1.3837 -0.4082  0.9842
 7639TIP3    H244409   0.415   5.465   4.942  0.4472 -1.5119 -1.8121
 7640TIP3   OH244410   6.018   2.347  14.709 -0.2142 -0.0363  0.2150
 7640TIP3    H144411   6.101   2.394  14.715  0.6804 -1.3091 -1.2843
 7640TIP3    H244412   5.977   2.358  14.795  1.4185  0.7844  0.9212
 7641TIP3   OH244413   0.851   4.901  16.815 -0.2185  0.7772  0.1060
 7641TIP3    H144414   0.908   4.976  16.802  1.6419 -0.2973  1.4931
 7641TIP3    H244415   0.868   4.844  16.740 -0.2703  0.9248 -0.0184
 7642TIP3   OH244416   0.965   4.421   0.810 -0.0689  0.0139  0.0066
 7642TIP3    H144417   0.924   4.456   0.889  0.3663  0.0374  0.2291
 7642TIP3    H244418   0.923   4.467   0.738 -0.6745 -0.2129  0.2069
 7643TIP3   OH244419   4.844   2.193  15.863 -0.2395  0.0757 -0.1021
 7643TIP3    H144420   4.935   2.222  15.860 -0.2161 -0.0475 -1.2826
 7643TIP3    H244421   4.793   2.273  15.848 -0.1979 -0.2796 -2.5978
 7644TIP3   OH244422   5.170   1.621  14.203 -0.3649 -0.0665  0.4687
 7644TIP3    H144423   5.197   1.709  14.228 -0.3294  0.0022  0.1992
 7644TIP3    H244424   5.146   1.629  14.110  1.2508 -0.6786 -0.0517
 7645TIP3   OH244425   2.827   5.513  10.627  0.4963  0.0585  0.4656
 7645TIP3    H144426   2.894   5.555  10.573  0.6380 -0.5609  0.1434
 7645TIP3    H244427   2.782   5.585  10.669 -0.1349  0.6263 -1.0942
 7646TIP3   OH244428   2.131   3.708   5.809 -0.4672  0.8427 -0.4354
 7646TIP3    H144429   2.141   3.800   5.783 -3.8319  1.0182 -1.5891
 7646TIP3    H244430   2.137   3.708   5.904  0.4857  2.0613 -0.4689
 7647TIP3   OH244431   1.176   2.983   2.186  0.2843  0.0911 -0.4726
 7647TIP3    H144432   1.126   2.974   2.105 -2.9643  1.6192  1.1402
 7647TIP3    H244433   1.264   3.007   2.157 -0.4850 -0.2882 -3.5263
 7648TIP3   OH244434   6.186   3.872  13.961 -0.4922 -0.1036 -0.7706
 7648TIP3    H144435   6.144   3.895  14.044  1.6802  1.5847 -0.0513
 7648TIP3    H244436   6.136   3.921  13.895 -0.9156  0.2615 -0.1911
 7649TIP3   OH244437   0.482   3.607  12.697  0.0660  0.3038  0.3163
 7649TIP3    H144438   0.571   3.634  12.721  0.9232 -0.5660 -1.5985
 7649TIP3    H244439   0.485   3.512  12.698 -0.7749  0.2679  0.0139
 7650TIP3   OH244440   0.855   3.242   4.485  0.0504 -0.7025  0.3737
 7650TIP3    H144441   0.837   3.315   4.544 -1.5608 -0.5970 -0.2204
 7650TIP3    H244442   0.916   3.279   4.421  0.7436 -0.4373  1.1577
 7651TIP3   OH244443   4.377   0.300   3.387  0.5731  0.8384 -0.2648
 7651TIP3    H144444   4.426   0.220   3.409 -0.3113  0.3395 -0.0724
 7651TIP3    H244445   4.394   0.359   3.461  2.5568  1.4927 -1.1490
 7652TIP3   OH244446   3.935   2.025  15.281  0.0692 -0.5400  0.4447
 7652TIP3    H144447   3.849   2.063  15.300  0.4737  2.0450 -2.1612
 7652TIP3    H244448   3.919   1.963  15.210  0.2798 -0.4549  0.3213
 7653TIP3   OH244449   3.789   6.355   3.946 -0.2192  0.2404 -0.7244
 7653TIP3    H144450   3.778   6.356   3.851  0.1564 -0.1598 -0.7769
 7653TIP3    H244451   3.883   6.368   3.959 -0.2322  0.0346 -0.4185
 7654TIP3   OH244452   2.602   3.964  16.171  0.1377 -0.3175  0.3173
 7654TIP3    H144453   2.672   3.957  16.236 -0.2236  1.2409  0.9063
 7654TIP3    H244454   2.646   3.979  16.088  0.5574 -1.2433  0.3588
 7655TIP3   OH244455   6.431   1.449   3.858 -0.2288  0.1683 -0.2990
 7655TIP3    H144456   6.369   1.391   3.813  0.8530 -0.3663 -1.1628
 7655TIP3    H244457   6.512   1.442   3.807  0.4597  1.0797  0.6163
 7656TIP3   OH244458   5.022   3.714   4.146 -0.1141  0.5897  0.3826
 7656TIP3    H144459   4.967   3.787   4.174  1.5748  1.6072  1.2169
 7656TIP3    H244460   4.967   3.664   4.086 -1.8779  1.6186  1.0642
 7657TIP3   OH244461   2.440   3.213  11.470  0.0465 -0.0688  0.4130
 7657TIP3    H144462   2.511   3.267  11.436 -0.2158  0.0027 -0.0331
 7657TIP3    H244463   2.384   3.275  11.518 -1.5816  0.5881 -2.1321
 7658TIP3   OH244464   5.003   2.587  15.250 -0.3021  0.7580 -0.1189
 7658TIP3    H144465   4.957   2.612  15.330 -1.1363 -1.5336  0.1816
 7658TIP3    H244466   4.942   2.528  15.205  1.0270  0.2959 -1.3657
 7659TIP3   OH244467   5.263   2.528  12.757 -0.5320 -0.3572 -0.0706
 7659TIP3    H144468   5.208   2.479  12.696  0.4750 -0.0727 -1.2423
 7659TIP3    H244469   5.213   2.529  12.839 -2.0491 -0.4877 -0.9638
 7660TIP3   OH244470   2.652   1.946  13.207 -0.1450  1.1591  0.0039
 7660TIP3    H144471   2.735   1.913  13.241 -0.4465 -1.0607 -1.2417
 7660TIP3    H244472   2.676   2.004  13.135  0.3390  1.0436  0.0725
 7661TIP3   OH244473   2.115   2.665  13.935 -0.3987 -0.0462 -0.4334
 7661TIP3    H144474   2.062   2.587  13.917  0.1183 -0.4643 -0.1737
 7661TIP3    H244475   2.055   2.726  13.976 -0.4051 -0.9901  1.0556
 7662TIP3   OH244476   1.607   5.843   4.810 -0.0121 -0.5357 -0.2775
 7662TIP3    H144477   1.524   5.888   4.829 -0.3940 -0.1991 -2.5031
 7662TIP3    H244478   1.674   5.908   4.827 -0.0894 -1.0034  2.1735
 7663TIP3   OH244479   1.147   3.820   0.144 -0.0432 -0.3155  0.2018
 7663TIP3    H144480   1.148   3.916   0.150 -1.2695 -0.2383 -0.5995
 7663TIP3    H244481   1.238   3.795   0.164  0.8616  1.1594 -1.6584
 7664TIP3   OH244482   1.956   4.574  14.735 -0.4974  0.2588 -0.2393
 7664TIP3    H144483   1.883   4.632  14.756 -1.6545 -0.0061 -3.0284
 7664TIP3    H244484   1.943   4.498  14.792 -0.7202  1.4065  1.3039
 7665TIP3   OH244485   1.561   3.243  15.805  0.7696  0.0753  0.6542
 7665TIP3    H144486   1.529   3.161  15.843  0.2369 -0.1166 -0.1837
 7665TIP3    H244487   1.489   3.305  15.818  0.2537 -0.2063 -0.7341
 7666TIP3   OH244488   1.653   6.424  11.694 -0.6420 -0.3302 -0.5267
 7666TIP3    H144489   1.742   6.406  11.723  0.6261  0.9955 -3.2245
 7666TIP3    H244490   1.622   6.342  11.658  0.0202 -0.4755 -0.7839
 7667TIP3   OH244491   1.370   6.708   4.728 -0.5542 -0.0361  0.2988
 7667TIP3    H144492   1.289   6.747   4.694 -0.4491 -0.2130 -0.1687
 7667TIP3    H244493   1.344   6.664   4.808 -0.6329  1.2216  0.9981
 7668TIP3   OH244494   4.727   5.898   0.288 -0.3932  0.3296  0.0783
 7668TIP3    H144495   4.680   5.932   0.364 -1.1005  1.7182 -0.9387
 7668TIP3    H244496   4.728   5.971   0.226  1.5582 -0.2527 -0.6433
 7669TIP3   OH244497   2.798   2.629  10.404 -0.0075  0.1609 -0.4685
 7669TIP3    H144498   2.752   2.643  10.487 -1.3757 -0.0601 -1.1434
 7669TIP3    H244499   2.805   2.533  10.397 -2.9241 -0.0490 -2.0884
 7670TIP3   OH244500   6.620   2.379  16.248  0.7063 -0.0513 -0.2706
 7670TIP3    H144501   6.529   2.405  16.242  0.4968 -0.8276 -0.6357
 7670TIP3    H244502   6.619   2.296  16.297  0.8248 -1.8169 -3.0259
 7671TIP3   OH244503   4.014   2.478  15.205  0.0071 -0.4247  0.5673
 7671TIP3    H144504   4.082   2.543  15.220 -0.3177 -0.0519  0.4440
 7671TIP3    H244505   4.051   2.419  15.139  0.0840 -0.0239  0.2492
 7672TIP3   OH244506   4.954   6.263   5.303  0.0927 -0.0054  0.2433
 7672TIP3    H144507   5.006   6.263   5.222  2.3308  2.2415  1.5622
 7672TIP3    H244508   4.881   6.203   5.284  0.7706  0.0590 -3.2415
 7673TIP3   OH244509   2.326   0.094  17.005  0.2903  1.0171 -0.2067
 7673TIP3    H144510   2.305   0.029  17.072 -0.2600  0.2777 -1.0686
 7673TIP3    H244511   2.253   0.155  17.007 -0.6767 -0.0388 -1.3544
 7674TIP3   OH244512   1.843   5.568  17.251 -0.6096  0.1635 -0.2120
 7674TIP3    H144513   1.817   5.599  17.165  2.3383  1.2582 -0.8299
 7674TIP3    H244514   1.899   5.493  17.234  1.2405  1.2911  0.5600
 7675TIP3   OH244515   2.708   1.477  14.430  0.5914 -0.0976 -0.2052
 7675TIP3    H144516   2.659   1.540  14.376 -0.0860  0.4734  1.0439
 7675TIP3    H244517   2.700   1.510  14.519  0.6318 -1.7045  0.4230
 7676TIP3   OH244518   3.334   2.028   0.085  0.0336 -0.3229 -0.7262
 7676TIP3    H144519   3.307   1.936   0.096  1.0694 -0.6428 -0.7993
 7676TIP3    H244520   3.427   2.028   0.105 -0.1079  0.8633 -0.0120
 7677TIP3   OH244521   2.303   3.649   0.707  0.1667 -0.0826  0.2474
 7677TIP3    H144522   2.253   3.585   0.757 -0.4004  0.9436  1.0170
 7677TIP3    H244523   2.245   3.676   0.636  0.7188 -1.0173 -0.6054
 7678TIP3   OH244524   6.537   0.686  12.253  0.0840 -0.5463 -0.1343
 7678TIP3    H144525   6.500   0.654  12.170 -0.7206  0.7373 -0.3034
 7678TIP3    H244526   6.483   0.644  12.320 -2.5684  2.1002 -0.3913
 7679TIP3   OH244527   2.655   0.157   3.916  0.1821 -0.6910  0.4489
 7679TIP3    H144528   2.725   0.216   3.945 -0.6404  0.4258  0.2386
 7679TIP3    H244529   2.610   0.133   3.997  0.5844 -1.1448  0.5472
 7680TIP3   OH244530   5.092   0.491  17.247 -0.2490 -0.0678 -0.3036
 7680TIP3    H144531   5.096   0.446  17.332  0.7895  1.5447  0.5696
 7680TIP3    H244532   5.161   0.450  17.195  0.6029  0.3687  0.4348
 7681TIP3   OH244533   4.481   0.154  15.437  0.2371  0.8803 -0.3027
 7681TIP3    H144534   4.410   0.177  15.378  0.3577  1.8529 -0.0913
 7681TIP3    H244535   4.561   0.174  15.387  0.4014 -0.8847 -0.8103
 7682TIP3   OH244536   0.602   2.158  16.077  0.7194 -0.2706  0.3919
 7682TIP3    H144537   0.552   2.237  16.055  0.7885 -0.6724 -1.3254
 7682TIP3    H244538   0.636   2.127  15.994 -1.4153 -3.5692  0.5470
 7683TIP3   OH244539   2.236   3.658  13.937 -0.5654 -0.4574  0.1512
 7683TIP3    H144540   2.210   3.670  13.846  1.6152  1.3611 -0.3111
 7683TIP3    H244541   2.183   3.720  13.987  1.2731  1.8084 -0.5345
 7684TIP3   OH244542   2.608   1.470   2.519 -0.5340 -0.4868 -0.0899
 7684TIP3    H144543   2.631   1.518   2.599  1.3886 -1.8973  0.2866
 7684TIP3    H244544   2.618   1.534   2.449  0.8936 -0.0146  0.5047
 7685TIP3   OH244545   1.103   4.590   0.307  0.1055  0.6159  0.1386
 7685TIP3    H144546   1.186   4.622   0.343 -0.0976  2.5902 -0.9490
 7685TIP3    H244547   1.129   4.520   0.247  0.8678  0.3645  0.7450
 7686TIP3   OH244548   3.393   5.836  12.806  0.2667 -0.0927 -0.3258
 7686TIP3    H144549   3.330   5.766  12.819  0.0403  0.2236  0.2992
 7686TIP3    H244550   3.363   5.907  12.862  1.7385 -0.2951  0.7890
 7687TIP3   OH244551   5.295   3.203  12.971 -0.0420  0.2063  0.4477
 7687TIP3    H144552   5.355   3.161  12.910  0.0678  0.3920  0.4269
 7687TIP3    H244553   5.227   3.241  12.915 -1.0616 -1.3623  0.5552
 7688TIP3   OH244554   0.609   4.795   1.860 -0.1619  0.0564  0.0259
 7688TIP3    H144555   0.675   4.779   1.792  0.8214 -0.1033  0.9757
 7688TIP3    H244556   0.599   4.710   1.903  0.6268  0.5703  1.2635
 7689TIP3   OH244557   1.497   5.977  14.606 -0.4448 -0.1089 -0.2952
 7689TIP3    H144558   1.502   6.056  14.551 -0.1852 -0.0803 -0.2326
 7689TIP3    H244559   1.585   5.967  14.642 -0.8794  0.5140  1.0187
 7690TIP3   OH244560   3.425   4.432   2.751 -0.3752  0.1068  0.3607
 7690TIP3    H144561   3.480   4.507   2.726  0.4475 -0.3541  0.7593
 7690TIP3    H244562   3.336   4.465   2.741 -0.1353  0.1196 -2.7002
 7691TIP3   OH244563   1.357   3.821  14.732 -0.0812 -0.1505 -0.1313
 7691TIP3    H144564   1.359   3.731  14.699  2.3395 -0.1143 -0.2244
 7691TIP3    H244565   1.317   3.814  14.818  0.7129 -1.4448  0.1551
 7692TIP3   OH244566   5.593   6.262   6.283 -0.0446 -0.0030  0.1251
 7692TIP3    H144567   5.573   6.170   6.301  0.3707  0.0577  0.9617
 7692TIP3    H244568   5.660   6.259   6.215  0.0313 -0.3275  0.2128
 7693TIP3   OH244569   1.648   3.807  11.603  0.3433 -0.2184  0.6184
 7693TIP3    H144570   1.638   3.745  11.531  0.5460 -1.4818  1.6514
 7693TIP3    H244571   1.606   3.887  11.571  0.5466 -0.7023 -0.9494
 7694TIP3   OH244572   1.838   5.948   5.744  0.1702  0.1120  0.3309
 7694TIP3    H144573   1.762   5.962   5.800 -0.4173 -1.4435 -0.0420
 7694TIP3    H244574   1.888   6.030   5.750 -2.7667  2.2071 -1.3550
 7695TIP3   OH244575   0.022   0.059   3.802  0.1961  0.1000 -0.0189
 7695TIP3    H144576  -0.029   0.106   3.868  1.2895 -0.9460  1.6396
 7695TIP3    H244577  -0.043   0.005   3.757 -0.5006  0.4198  0.5618
 7696TIP3   OH244578   5.445   0.957   1.358  0.3039 -0.1464  0.3203
 7696TIP3    H144579   5.454   1.052   1.366 -0.0229  0.0740 -1.4343
 7696TIP3    H244580   5.528   0.928   1.320  0.2425 -0.4940  0.4464
 7697TIP3   OH244581   1.019   1.284   2.276 -0.0371 -0.1983 -0.2384
 7697TIP3    H144582   0.995   1.313   2.188  0.6310 -0.2395 -0.4415
 7697TIP3    H244583   1.076   1.208   2.261 -1.7109 -1.6213  0.2798
 7698TIP3   OH244584   3.707   2.755   4.587 -0.4079  0.2836  0.1596
 7698TIP3    H144585   3.799   2.776   4.601 -0.3345 -0.8431  1.5808
 7698TIP3    H244586   3.702   2.727   4.496  1.1061 -1.6994  0.6130
 7699TIP3   OH244587   6.665   4.521  16.542 -0.3156 -0.1638  0.2029
 7699TIP3    H144588   6.616   4.493  16.619 -1.8692 -0.0030 -0.6822
 7699TIP3    H244589   6.757   4.508  16.566 -0.7506 -0.0896  2.0780
 7700TIP3   OH244590   5.843   3.091  11.862  0.2071  0.6781  0.1403
 7700TIP3    H144591   5.898   3.112  11.787 -1.4808  2.0372 -0.8047
 7700TIP3    H244592   5.835   3.174  11.910 -0.2843  0.2899  0.7481
 7701TIP3   OH244593   4.579   0.585   2.429  0.2665 -0.1402 -0.8164
 7701TIP3    H144594   4.498   0.589   2.479  1.3809  0.3544  1.0895
 7701TIP3    H244595   4.621   0.670   2.445  2.3002 -1.2872  0.3674
 7702TIP3   OH244596   0.736   3.013  15.609 -0.7031 -0.8365  0.1011
 7702TIP3    H144597   0.770   3.094  15.647 -1.8778 -0.9067  1.3721
 7702TIP3    H244598   0.811   2.954  15.607  0.4007  0.4960 -1.6597
 7703TIP3   OH244599   4.445   2.600  15.975 -0.5128  0.0114 -0.4378
 7703TIP3    H144600   4.355   2.618  15.948  0.3632  3.6281 -1.3720
 7703TIP3    H244601   4.444   2.613  16.070 -0.8838  0.3388 -0.4849
 7704TIP3   OH244602   0.929   5.793   0.249  0.0964 -0.2684 -0.5625
 7704TIP3    H144603   0.839   5.818   0.228  0.3562 -0.1025 -1.4997
 7704TIP3    H244604   0.968   5.873   0.285  0.3207  0.1244 -1.6378
 7705TIP3   OH244605   4.703   3.529   4.822 -0.4858  0.3656  0.0490
 7705TIP3    H144606   4.661   3.477   4.890 -0.2304  0.2033  0.0856
 7705TIP3    H244607   4.790   3.550   4.858 -0.5513  0.7373 -0.0012
 7706TIP3   OH244608   4.532   3.706   0.628  0.2631 -0.4897  0.3122
 7706TIP3    H144609   4.548   3.675   0.539 -0.9002  0.2333 -0.1727
 7706TIP3    H244610   4.459   3.767   0.619 -1.1797 -1.8578  2.0428
 7707TIP3   OH244611   1.109   6.462   4.137  0.1761  0.2375 -0.6708
 7707TIP3    H144612   1.022   6.424   4.146  1.4612 -2.6931  0.9070
 7707TIP3    H244613   1.093   6.552   4.109 -3.2267 -0.8380 -2.8144
 7708TIP3   OH244614   1.730   0.399   2.263  0.0393  0.3649 -0.9810
 7708TIP3    H144615   1.773   0.339   2.202  2.4622  0.5804  0.4181
 7708TIP3    H244616   1.690   0.343   2.329 -1.6711  0.1814 -2.0978
 7709TIP3   OH244617   6.762   1.986   5.731  0.4916  0.2498  0.5278
 7709TIP3    H144618   6.808   1.918   5.683 -2.0613 -0.2172 -1.5044
 7709TIP3    H244619   6.801   2.068   5.700  1.7919 -0.1982  0.9590
 7710TIP3   OH244620   0.850   1.660  11.343 -0.3259 -0.3942 -0.1944
 7710TIP3    H144621   0.796   1.703  11.409 -1.2458  0.6119 -1.5411
 7710TIP3    H244622   0.827   1.568  11.348 -0.4180 -0.3272  0.8297
 7711TIP3   OH244623   4.584   6.046   0.495  0.3544 -0.5539 -0.0581
 7711TIP3    H144624   4.598   6.139   0.475  1.0228 -0.2245  1.7718
 7711TIP3    H244625   4.509   6.045   0.555  1.0853 -1.0582  0.8718
 7712TIP3   OH244626   1.759   2.321   0.547 -0.3890 -0.3129  0.6107
 7712TIP3    H144627   1.804   2.251   0.594  0.7716 -0.6075 -0.8588
 7712TIP3    H244628   1.717   2.276   0.473  0.0222  0.4678 -0.1128
 7713TIP3   OH244629   4.878   5.608   4.858 -0.4991 -0.1926 -0.9582
 7713TIP3    H144630   4.819   5.565   4.796 -0.6136  1.8015 -2.3093
 7713TIP3    H244631   4.952   5.636   4.805 -0.0275  0.4843  0.0379
 7714TIP3   OH244632   4.835   5.473  16.644 -0.2930 -0.0064 -0.4333
 7714TIP3    H144633   4.905   5.470  16.710 -1.8754 -3.2191  1.3248
 7714TIP3    H244634   4.759   5.506  16.690 -1.4568 -2.3849 -0.4921
 7715TIP3   OH244635   5.390   4.484   4.166 -0.1684  0.6417  0.6330
 7715TIP3    H144636   5.344   4.434   4.098  1.2728 -0.6033  0.5114
 7715TIP3    H244637   5.351   4.454   4.248 -1.6618  1.8820  0.4172
 7716TIP3   OH244638   5.464   5.432  12.959 -0.0696  0.3345 -0.0664
 7716TIP3    H144639   5.410   5.511  12.966  1.0257  1.1012 -0.1180
 7716TIP3    H244640   5.430   5.374  13.028 -1.4420  0.4968 -0.5803
 7717TIP3   OH244641   4.591   0.868   2.501  0.2610 -0.3369 -0.3069
 7717TIP3    H144642   4.632   0.853   2.586 -0.9007 -0.8196  0.1942
 7717TIP3    H244643   4.629   0.949   2.470 -0.9729  1.1300  1.7667
 7718TIP3   OH244644   2.070   2.359   2.835 -0.3538 -0.2444 -0.2595
 7718TIP3    H144645   2.060   2.290   2.769 -0.9881  0.6396 -1.1125
 7718TIP3    H244646   1.980   2.384   2.857 -0.1294  0.1879  0.1699
 7719TIP3   OH244647   2.107   4.070  12.240  0.3518 -0.9279 -0.3532
 7719TIP3    H144648   2.171   4.008  12.275  1.1000  0.1552  0.2931
 7719TIP3    H244649   2.023   4.025  12.246  1.0654 -2.4615 -1.3903
 7720TIP3   OH244650   4.766   5.822  11.514  0.5648  0.1065  0.0292
 7720TIP3    H144651   4.679   5.786  11.495  1.1817 -1.3837 -0.1615
 7720TIP3    H244652   4.759   5.915  11.494 -0.4036 -0.3576 -2.1218
 7721TIP3   OH244653   1.315   3.837   4.304  0.1020 -0.2615 -0.4236
 7721TIP3    H144654   1.318   3.778   4.228 -2.2142  1.0788 -1.6919
 7721TIP3    H244655   1.338   3.923   4.268  1.1493  0.0345  0.9007
 7722TIP3   OH244656   3.825   0.306  14.997  0.5912 -1.0016 -0.1095
 7722TIP3    H144657   3.736   0.274  15.014  1.2948 -1.9077  2.1846
 7722TIP3    H244658   3.871   0.230  14.962  0.6215 -0.6632 -0.8307
 7723TIP3   OH244659   3.690   6.023  14.577 -0.3031 -0.3678  0.3506
 7723TIP3    H144660   3.725   5.935  14.564  1.6983  0.3587  0.4132
 7723TIP3    H244661   3.615   6.028  14.517 -0.7572 -2.2473  0.6954
 7724TIP3   OH244662   4.806   3.722   4.467  0.3893  0.5363  0.1560
 7724TIP3    H144663   4.729   3.708   4.523  1.8918  1.0451  2.4551
 7724TIP3    H244664   4.844   3.635   4.457  0.0429  0.4233 -0.2418
 7725TIP3   OH244665   2.927   2.573   0.905 -0.5760 -0.1428  0.4967
 7725TIP3    H144666   2.843   2.618   0.901 -0.1681  0.7128  1.1029
 7725TIP3    H244667   2.982   2.631   0.958  1.0911  0.4374 -1.7152
 7726TIP3   OH244668   0.171   3.416   6.038  0.4427 -0.4932 -0.1335
 7726TIP3    H144669   0.175   3.431   6.133 -1.7778  0.5646 -0.1387
 7726TIP3    H244670   0.262   3.405   6.012  1.1770 -0.1075  2.0090
 7727TIP3   OH244671   3.224   5.070  11.737 -0.2508 -0.4667  0.0925
 7727TIP3    H144672   3.136   5.034  11.726 -0.0602 -1.0903  0.5455
 7727TIP3    H244673   3.273   5.038  11.662  0.0042 -1.4441  0.6627
 7728TIP3   OH244674   4.955   4.171   0.016 -0.2530  0.1638 -0.1183
 7728TIP3    H144675   5.018   4.215  -0.042 -0.2908 -1.4474 -1.4911
 7728TIP3    H244676   4.883   4.147  -0.042 -0.9272 -0.3354  0.8982
 7729TIP3   OH244677   1.457   5.207   3.360 -0.0137  0.0870  0.3928
 7729TIP3    H144678   1.453   5.282   3.419  2.6459  1.5185 -1.0661
 7729TIP3    H244679   1.465   5.246   3.273 -1.1598 -1.9496 -0.6988
 7730TIP3   OH244680   1.707   5.221  13.726  0.2182  0.1736 -0.3320
 7730TIP3    H144681   1.730   5.180  13.643  0.3479  1.5652 -1.0039
 7730TIP3    H244682   1.753   5.305  13.726  0.0332  0.3060  1.0459
 7731TIP3   OH244683   6.406   4.221   3.928  0.0150 -0.0146 -0.1160
 7731TIP3    H144684   6.318   4.187   3.945 -0.0476  0.7144  1.0690
 7731TIP3    H244685   6.418   4.207   3.834 -2.2892  1.9942 -0.8081
 7732TIP3   OH244686   3.157   1.472  14.562 -0.4026 -0.1506 -0.5761
 7732TIP3    H144687   3.240   1.516  14.544  0.4624 -1.0271  1.0051
 7732TIP3    H244688   3.107   1.534  14.615  0.0271 -0.3129  0.0339
 7733TIP3   OH244689   2.480   4.840  16.220  0.0792  0.2349  0.3060
 7733TIP3    H144690   2.417   4.820  16.151  0.2542  0.3521  0.1126
 7733TIP3    H244691   2.439   4.807  16.300 -1.0288  1.8624  0.4547
 7734TIP3   OH244692   3.947   5.031   5.014 -0.3257 -0.0000 -0.1252
 7734TIP3    H144693   3.854   5.009   5.008 -0.3219 -0.5856  1.5130
 7734TIP3    H244694   3.950   5.111   5.066  0.0634  0.2520 -0.5307
 7735TIP3   OH244695   4.362   6.448   5.776  0.1501 -0.0199  0.0119
 7735TIP3    H144696   4.420   6.517   5.808 -1.6025  0.5859  2.1466
 7735TIP3    H244697   4.303   6.494   5.716  1.0957 -0.4001 -1.2432
 7736TIP3   OH244698   3.361   3.509   2.180  0.5384 -0.5526  0.1628
 7736TIP3    H144699   3.347   3.448   2.253 -1.6830  2.0347  2.0989
 7736TIP3    H244700   3.421   3.575   2.216  0.2482  0.2066 -0.7062
 7737TIP3   OH244701   6.471   0.520   1.568  0.4176 -0.1569 -0.1689
 7737TIP3    H144702   6.500   0.429   1.561  0.4265 -0.1589 -0.1024
 7737TIP3    H244703   6.498   0.560   1.485 -0.5852 -0.4975 -0.6861
 7738TIP3   OH244704   1.493   3.603  16.051  0.1208 -0.1251  0.1143
 7738TIP3    H144705   1.532   3.530  16.101  0.6105  0.0781  0.0327
 7738TIP3    H244706   1.422   3.635  16.107 -0.6603 -1.2125 -0.2214
 7739TIP3   OH244707   1.079   2.577   1.966 -0.2028 -0.2377 -0.3001
 7739TIP3    H144708   1.038   2.508   1.913  0.1061  0.2017 -1.1391
 7739TIP3    H244709   1.172   2.554   1.967 -0.4632 -1.4805  1.9747
 7740TIP3   OH244710   1.619   5.209   0.376 -0.1164 -0.4874 -0.5543
 7740TIP3    H144711   1.700   5.206   0.427 -0.7970 -2.5048  0.5207
 7740TIP3    H244712   1.646   5.182   0.288  0.4115 -1.0576 -0.2275
 7741TIP3   OH244713   6.284   4.987   3.527  0.0311  0.0094  0.4984
 7741TIP3    H144714   6.250   4.903   3.555 -0.1460 -0.3909 -0.8513
 7741TIP3    H244715   6.209   5.046   3.530 -0.5613 -0.5839 -1.3014
 7742TIP3   OH244716   5.854   4.175  16.695  0.5490  0.2043  0.3415
 7742TIP3    H144717   5.767   4.142  16.676  0.5339 -0.2780  1.1698
 7742TIP3    H244718   5.889   4.202  16.611 -0.9915  1.9168  0.1981
 7743TIP3   OH244719   2.291   5.521   2.273  0.0797  0.3777  0.4421
 7743TIP3    H144720   2.261   5.601   2.231 -1.4402 -0.1791  0.4335
 7743TIP3    H244721   2.355   5.551   2.338  1.5585  1.3555 -1.3450
 7744TIP3   OH244722   5.371   5.045  13.043 -0.3709  0.1615  0.1507
 7744TIP3    H144723   5.463   5.021  13.056  0.2885  2.7739  0.8161
 7744TIP3    H244724   5.340   4.985  12.975  1.8180 -0.7488 -0.1233
 7745TIP3   OH244725   5.410   5.948   0.835  0.3966  0.3765  0.1061
 7745TIP3    H144726   5.388   6.016   0.771  0.1917 -0.2241 -0.4741
 7745TIP3    H244727   5.395   5.989   0.920  0.2033  1.0330 -0.2386
 7746TIP3   OH244728   2.073   6.418   4.532  0.0207  0.3092 -0.3000
 7746TIP3    H144729   2.096   6.502   4.571 -0.2196  0.7357 -1.0661
 7746TIP3    H244730   1.997   6.436   4.477 -0.5249 -0.5720  0.1524
 7747TIP3   OH244731   6.097   2.366   3.862 -0.4245 -0.5480 -0.1524
 7747TIP3    H144732   6.090   2.313   3.783 -0.2498  0.5626 -0.9251
 7747TIP3    H244733   6.146   2.311   3.923  1.4254 -0.5462 -1.5791
 7748TIP3   OH244734   5.639   4.993   3.666 -0.2967 -0.1285 -0.3445
 7748TIP3    H144735   5.677   5.078   3.688 -0.2219 -0.2152 -0.1335
 7748TIP3    H244736   5.590   5.009   3.585  0.0474  0.0246 -0.5284
 7749TIP3   OH244737   2.868   0.044  12.953 -0.1391 -0.6400 -0.6275
 7749TIP3    H144738   2.776   0.020  12.959 -0.5272  0.9904  0.6652
 7749TIP3    H244739   2.867   0.135  12.924  1.0335 -0.3700  0.1322
 7750TIP3   OH244740   1.419   3.701   5.521 -0.5456 -0.1353  0.2889
 7750TIP3    H144741   1.355   3.769   5.501 -0.4662 -0.1520 -0.0239
 7750TIP3    H244742   1.503   3.738   5.493 -0.3777 -0.0045  0.9455
 7751TIP3   OH244743   1.056   3.964   3.861  0.1396 -0.6819  0.4815
 7751TIP3    H144744   1.003   3.926   3.791 -2.6087  0.6753  1.6712
 7751TIP3    H244745   1.098   4.040   3.821 -0.3459 -0.6761 -0.0273
 7752TIP3   OH244746   3.604   5.076   1.597  0.5262  0.1057 -0.2645
 7752TIP3    H144747   3.627   4.999   1.545 -1.6341 -1.3034  0.6912
 7752TIP3    H244748   3.609   5.045   1.688 -1.6098  0.6933  0.0935
 7753TIP3   OH244749   4.197   0.470  11.367 -0.2637  0.2931  0.0449
 7753TIP3    H144750   4.254   0.454  11.292  0.2029 -0.1329  0.4792
 7753TIP3    H244751   4.108   0.455  11.334 -0.1930  1.6196 -0.8123
 7754TIP3   OH244752   1.776   6.027  14.402  0.6792 -0.2255  0.1716
 7754TIP3    H144753   1.776   6.109  14.352 -0.9734 -0.2882  0.0096
 7754TIP3    H244754   1.816   6.050  14.486 -0.7430  1.0422  0.5377
 7755TIP3   OH244755   1.781   2.022  13.350  0.0574  0.4855 -0.4965
 7755TIP3    H144756   1.737   2.073  13.281  1.1128 -0.6396 -2.0575
 7755TIP3    H244757   1.853   2.079  13.379  0.3027  0.5245 -1.1553
 7756TIP3   OH244758   4.232   5.382  16.541 -0.1188 -0.0623  0.3724
 7756TIP3    H144759   4.277   5.361  16.459 -2.4414  1.5835 -1.4490
 7756TIP3    H244760   4.192   5.299  16.568  0.1665 -0.5002 -0.4997
 7757TIP3   OH244761   6.088   6.178  13.494  0.3820 -0.9195  0.2589
 7757TIP3    H144762   6.171   6.226  13.506  1.6160 -2.1870 -2.3057
 7757TIP3    H244763   6.021   6.246  13.496  2.0060  0.9780 -2.6586
 7758TIP3   OH244764   4.368   1.352   4.758 -0.3713 -0.1989 -0.1398
 7758TIP3    H144765   4.285   1.312   4.783 -0.7803  0.8268  0.2345
 7758TIP3    H244766   4.346   1.410   4.685 -0.6652  2.3948  1.8203
 7759TIP3   OH244767   0.662   2.547  15.855  0.0055 -0.6086  0.3497
 7759TIP3    H144768   0.718   2.473  15.876 -0.8232 -0.7549  2.2846
 7759TIP3    H244769   0.600   2.513  15.790  0.8498 -1.0135 -0.2679
 7760TIP3   OH244770   5.597   2.716   1.007 -0.3058 -0.3401  0.4035
 7760TIP3    H144771   5.558   2.629   0.998  0.8368 -0.8990  0.6209
 7760TIP3    H244772   5.612   2.746   0.917 -1.4960  0.0148  0.3149
 7761TIP3   OH244773   4.871   1.075  15.684 -0.1427 -0.2034  0.3694
 7761TIP3    H144774   4.929   1.025  15.741 -0.0961  1.5646  1.9706
 7761TIP3    H244775   4.816   1.125  15.743 -0.8608  0.8683 -1.1392
 7762TIP3   OH244776   6.330   2.723  16.569  0.0724 -0.2690 -0.1447
 7762TIP3    H144777   6.415   2.747  16.530 -0.7907 -0.4825 -2.2738
 7762TIP3    H244778   6.314   2.634  16.539 -0.5178 -0.5647  0.9882
 7763TIP3   OH244779   3.206   6.202   4.694  0.1002  0.0968  0.2272
 7763TIP3    H144780   3.239   6.143   4.626 -1.0953  0.0155 -0.3015
 7763TIP3    H244781   3.113   6.183   4.700 -0.1140  1.2210  0.7785
 7764TIP3   OH244782   5.279   6.116   5.776 -0.5204  0.0791  0.1338
 7764TIP3    H144783   5.309   6.125   5.867 -2.7101  0.9318  0.8263
 7764TIP3    H244784   5.335   6.047   5.740  0.3862 -0.3195  2.1316
 7765TIP3   OH244785   1.448   3.856   5.239 -0.5178 -0.1991  0.0201
 7765TIP3    H144786   1.510   3.870   5.311  0.3258  0.6524 -0.8233
 7765TIP3    H244787   1.481   3.779   5.194 -0.4990 -0.1821  0.0048
 7766TIP3   OH244788   3.008   6.648   2.810 -0.4740  0.6852  0.8660
 7766TIP3    H144789   2.986   6.670   2.900 -0.9121  1.8740  0.4878
 7766TIP3    H244790   2.933   6.597   2.779 -0.0712 -0.2071  1.3324
 7767TIP3   OH244791   6.184   6.365  15.601  0.2968  0.5030 -0.4122
 7767TIP3    H144792   6.145   6.425  15.538  1.5694  1.0078 -0.7502
 7767TIP3    H244793   6.214   6.421  15.672 -0.8300 -0.0310  0.5049
 7768TIP3   OH244794   5.398   4.424   1.357 -0.5335  0.0733  0.6692
 7768TIP3    H144795   5.371   4.379   1.437 -1.0745 -1.7913 -0.5180
 7768TIP3    H244796   5.355   4.377   1.286 -1.5135  2.7560 -0.6726
 7769TIP3   OH244797   1.106   5.498   2.158 -0.6779  0.1074 -0.2902
 7769TIP3    H144798   1.014   5.525   2.167 -0.1658  1.5160  1.6029
 7769TIP3    H244799   1.142   5.510   2.246  1.2016 -0.9352 -0.8716
 7770TIP3   OH244800   2.970   6.127   1.252  0.7502  0.1912 -0.8786
 7770TIP3    H144801   3.022   6.065   1.201  0.4838  0.4663 -1.4880
 7770TIP3    H244802   3.006   6.121   1.341  2.1275  0.6957 -1.3717
 7771TIP3   OH244803   0.254   0.478  13.712 -0.7221 -0.6349  0.1864
 7771TIP3    H144804   0.288   0.409  13.770 -1.0773 -1.6246 -0.7374
 7771TIP3    H244805   0.264   0.441  13.624 -2.3338 -0.1280 -0.2341
 7772TIP3   OH244806   0.129   6.318  14.257  0.4439  0.4244 -0.7791
 7772TIP3    H144807   0.050   6.315  14.203 -1.1803  3.0892  1.1945
 7772TIP3    H244808   0.179   6.392  14.222  0.9100  0.2164 -0.5534
 7773TIP3   OH244809   6.087   3.542   0.613 -0.4942 -0.2941 -0.4906
 7773TIP3    H144810   6.135   3.474   0.565 -2.7975 -1.8965 -0.6840
 7773TIP3    H244811   6.028   3.494   0.671 -1.0613  1.5853  0.5938
 7774TIP3   OH244812   2.471   5.294   1.777 -0.7439  0.3279 -0.3163
 7774TIP3    H144813   2.410   5.252   1.837  0.3133  0.0576  0.5991
 7774TIP3    H244814   2.489   5.227   1.711  0.6316 -0.5720  0.9201
 7775TIP3   OH244815   5.539   0.591  12.192  0.1680 -0.6237  0.1516
 7775TIP3    H144816   5.450   0.620  12.212 -0.7397 -2.1783 -1.2483
 7775TIP3    H244817   5.591   0.671  12.189 -0.8372  0.1930  2.4873
 7776TIP3   OH244818   2.736   1.462  13.747 -0.0145  0.8617 -0.1506
 7776TIP3    H144819   2.681   1.461  13.668  0.0130 -0.2593 -0.1826
 7776TIP3    H244820   2.825   1.445  13.714 -0.0294  0.2104  0.1202
 7777TIP3   OH244821   2.951   4.471  17.167  0.6014 -0.1865  0.0488
 7777TIP3    H144822   2.896   4.394  17.150  0.4004  0.3122 -1.7722
 7777TIP3    H244823   2.892   4.535  17.205 -0.0345  0.2235 -1.5729
 7778TIP3   OH244824   0.686   6.202  12.748 -0.3780  0.1671 -0.5186
 7778TIP3    H144825   0.647   6.289  12.747  2.2396  1.5967  2.9332
 7778TIP3    H244826   0.692   6.179  12.840  1.1661 -2.6512 -1.2172
 7779TIP3   OH244827   2.712   2.062  14.232  0.0627  0.1054  0.6907
 7779TIP3    H144828   2.727   1.979  14.277 -0.1572 -1.3320 -1.6687
 7779TIP3    H244829   2.746   2.047  14.143  2.4653  3.4652  0.8707
 7780TIP3   OH244830   3.669   0.736   4.453  0.6306 -0.2065 -0.1612
 7780TIP3    H144831   3.733   0.757   4.521  0.8281 -0.2961 -0.3176
 7780TIP3    H244832   3.593   0.790   4.473  0.5565 -0.4938  0.3364
 7781TIP3   OH244833   5.296   3.366  16.529  0.3095  1.4069  0.5420
 7781TIP3    H144834   5.225   3.357  16.593  2.3562 -0.2262  2.7589
 7781TIP3    H244835   5.254   3.348  16.445 -1.7403 -0.6235  1.8622
 7782TIP3   OH244836   4.597   4.096   5.303  0.1487  0.0563  0.0314
 7782TIP3    H144837   4.528   4.158   5.281 -1.0277 -0.6072  1.6648
 7782TIP3    H244838   4.642   4.079   5.220 -2.7476 -0.8474 -1.4662
 7783TIP3   OH244839   1.051   6.605  13.101  0.0593  0.2113 -0.1660
 7783TIP3    H144840   0.961   6.578  13.083 -0.8186  2.1691  1.0353
 7783TIP3    H244841   1.104   6.527  13.080 -1.8673 -0.9266 -1.0339
 7784TIP3   OH244842   0.758   4.808  15.194  0.3878  0.5611  0.2172
 7784TIP3    H144843   0.673   4.771  15.214  0.8387  0.0139  1.1940
 7784TIP3    H244844   0.758   4.894  15.236 -0.7507  1.8834 -2.2557
 7785TIP3   OH244845   2.231   0.533   5.144 -0.4919  0.1595 -0.4986
 7785TIP3    H144846   2.246   0.478   5.221 -1.5564 -0.9328 -1.0425
 7785TIP3    H244847   2.242   0.474   5.070 -1.4159  0.7270 -1.1105
 7786TIP3   OH244848   5.266   2.908   4.235  0.4686 -0.1552 -0.2836
 7786TIP3    H144849   5.225   2.898   4.321  2.0074 -0.1912  0.5021
 7786TIP3    H244850   5.281   2.819   4.205  1.4842 -0.1757  0.2319
 7787TIP3   OH244851   0.178   2.679  14.803 -0.3200 -1.1172  0.1030
 7787TIP3    H144852   0.245   2.717  14.747 -1.7261 -0.0421 -0.9153
 7787TIP3    H244853   0.226   2.620  14.861  1.3828 -0.9957 -1.1174
 7788TIP3   OH244854   0.388   6.035   4.999 -0.2509  0.3382 -0.1398
 7788TIP3    H144855   0.362   6.126   5.014  0.0901  0.7110 -1.6630
 7788TIP3    H244856   0.463   6.022   5.058 -1.1432  0.5882  1.0979
 7789TIP3   OH244857   4.217   2.820  11.223 -0.2837  0.3574  0.1244
 7789TIP3    H144858   4.154   2.876  11.178 -0.2164  1.2585  1.1020
 7789TIP3    H244859   4.296   2.873  11.232  0.4006 -0.5190 -0.4744
 7790TIP3   OH244860   6.118   2.188  11.377 -0.1952  0.1707  0.2801
 7790TIP3    H144861   6.165   2.133  11.441 -0.6538 -2.8756 -1.8044
 7790TIP3    H244862   6.053   2.235  11.430  0.9739 -0.3905  2.3612
 7791TIP3   OH244863   2.641   2.951  15.065  0.2629 -0.2787 -0.5065
 7791TIP3    H144864   2.661   2.954  15.158  0.6143 -3.0396 -0.4015
 7791TIP3    H244865   2.702   2.886  15.029 -1.9590 -1.6886 -2.0076
 7792TIP3   OH244866   0.548   5.206   2.596  0.1531 -0.0428  0.1337
 7792TIP3    H144867   0.511   5.205   2.508 -0.6257  0.0395  0.4441
 7792TIP3    H244868   0.599   5.287   2.600 -1.4299  0.9928  0.3727
 7793TIP3   OH244869   0.092   6.099  13.918 -0.2490 -0.9069 -0.4225
 7793TIP3    H144870   0.014   6.152  13.898 -1.5368 -2.9311 -1.0404
 7793TIP3    H244871   0.099   6.102  14.013 -0.4192  0.1404 -0.4221
 7794TIP3   OH244872   5.794   5.439   5.380  0.3353 -0.4134 -0.6359
 7794TIP3    H144873   5.712   5.389   5.380  0.8069 -1.2526  1.1187
 7794TIP3    H244874   5.775   5.515   5.325 -0.7857 -1.8839 -2.4313
 7795TIP3   OH244875   0.214   3.200  14.644 -0.0066  0.0385  0.0124
 7795TIP3    H144876   0.298   3.173  14.680  1.0040 -0.6755 -2.6734
 7795TIP3    H244877   0.170   3.118  14.622 -1.3092  0.4166  1.0581
 7796TIP3   OH244878   3.631   1.500   3.175  0.8606 -0.1848 -0.0056
 7796TIP3    H144879   3.597   1.421   3.217  0.7112 -0.5739 -0.8393
 7796TIP3    H244880   3.625   1.568   3.243  0.4914 -0.7630  0.5499
 7797TIP3   OH244881   4.773   2.704   6.478 -0.5660 -0.1733  0.2388
 7797TIP3    H144882   4.721   2.690   6.399 -0.2506 -3.1571  0.4440
 7797TIP3    H244883   4.815   2.620   6.494  2.8631  1.5388  1.1678
 7798TIP3   OH244884   2.747   5.871  12.323 -0.3155 -0.5730  0.1838
 7798TIP3    H144885   2.695   5.792  12.334 -0.0689 -0.6315  0.9049
 7798TIP3    H244886   2.740   5.917  12.406  2.0558 -1.3280  0.8501
 7799TIP3   OH244887   0.718   2.623   0.564 -0.4617  0.3108  0.5113
 7799TIP3    H144888   0.669   2.550   0.527  2.0668 -0.6642 -1.2374
 7799TIP3    H244889   0.762   2.585   0.641 -1.4589  0.8504  1.3668
 7800TIP3   OH244890   3.852   2.018  10.801  0.1228 -0.2297 -0.3496
 7800TIP3    H144891   3.865   2.026  10.707 -1.6056  2.5649 -0.4658
 7800TIP3    H244892   3.757   2.023  10.812  0.3626  0.9302  1.5996
 7801TIP3   OH244893   2.413   5.207  11.577  0.2174 -0.7467 -0.3104
 7801TIP3    H144894   2.446   5.117  11.585 -0.0962 -0.9912 -1.5663
 7801TIP3    H244895   2.433   5.232  11.487  1.1451  0.8052  0.3105
 7802TIP3   OH244896   0.557   6.569  11.106  0.2515 -0.1477 -0.5558
 7802TIP3    H144897   0.511   6.488  11.127 -1.3428  0.1744 -2.5520
 7802TIP3    H244898   0.632   6.540  11.052  2.1552 -0.6018  2.1274
 7803TIP3   OH244899   2.824   6.603  12.680 -0.6431  0.1262 -1.0616
 7803TIP3    H144900   2.757   6.665  12.710  0.0034  0.4274 -0.2170
 7803TIP3    H244901   2.786   6.565  12.600 -1.9645  0.0432 -0.4240
 7804TIP3   OH244902   0.517   3.269  16.401 -0.7105 -0.5865 -0.1446
 7804TIP3    H144903   0.547   3.183  16.372 -1.1078 -0.4522 -0.9867
 7804TIP3    H244904   0.475   3.307  16.324  0.0093  0.6172  0.0270
 7805TIP3   OH244905   0.868   0.317   3.429  0.3173 -0.1972  0.4465
 7805TIP3    H144906   0.893   0.402   3.394 -0.4881 -0.2250 -0.2382
 7805TIP3    H244907   0.918   0.308   3.511  1.7778  0.1245 -0.3844
 7806TIP3   OH244908   2.575   6.783   6.415 -0.3331 -0.1643 -0.1286
 7806TIP3    H144909   2.630   6.840   6.469 -0.6266  1.2160 -1.2412
 7806TIP3    H244910   2.485   6.810   6.435 -0.5666 -1.3315  0.4969
 7807TIP3   OH244911   4.582   3.634   4.057  0.1089  0.9878 -0.0492
 7807TIP3    H144912   4.555   3.570   3.991  0.2959  0.1322  0.6846
 7807TIP3    H244913   4.544   3.717   4.027  0.4122  0.6691 -1.3598
 7808TIP3   OH244914   5.297   4.636  13.579  0.1935 -0.5249  0.2666
 7808TIP3    H144915   5.235   4.567  13.600  0.1506 -0.5633  0.0166
 7808TIP3    H244916   5.279   4.657  13.488  0.8986 -0.8961  0.0354
 7809TIP3   OH244917   4.540   4.061   0.214  0.4159 -0.0312 -0.6477
 7809TIP3    H144918   4.630   4.094   0.209  0.6644 -0.5884  0.1652
 7809TIP3    H244919   4.498   4.097   0.135  0.2960  3.3724  0.7939
 7810TIP3   OH244920   1.537   4.825   1.860 -0.4425 -0.4370  0.2470
 7810TIP3    H144921   1.630   4.839   1.841 -0.7886 -0.1147 -1.2963
 7810TIP3    H244922   1.537   4.792   1.950  1.3126 -2.1845 -0.3167
 7811TIP3   OH244923   0.181   6.139  10.695  0.4090 -0.0839 -0.4015
 7811TIP3    H144924   0.158   6.231  10.698 -1.1465 -0.4577  2.1008
 7811TIP3    H244925   0.110   6.097  10.647  0.9367 -0.0499 -1.2302
 7812TIP3   OH244926   1.878   2.582   0.961  0.1321 -0.4739  0.2086
 7812TIP3    H144927   1.916   2.605   0.876 -0.6654 -0.0253 -0.0362
 7812TIP3    H244928   1.935   2.512   0.994  0.5832 -0.5033 -0.5886
 7813TIP3   OH244929   6.621   5.782   1.161  0.1411 -0.4394 -0.9299
 7813TIP3    H144930   6.568   5.767   1.083  0.3536  1.0077 -1.3761
 7813TIP3    H244931   6.560   5.820   1.225  0.0591 -1.2432 -0.5211
 7814TIP3   OH244932   0.611   3.374   1.439 -0.1729 -0.0346 -0.0126
 7814TIP3    H144933   0.561   3.345   1.363 -1.3697  2.2307 -0.1887
 7814TIP3    H244934   0.548   3.374   1.511  0.3417  0.0128  0.4452
 7815TIP3   OH244935   3.413   3.167   5.578  0.1927 -0.4478  0.3963
 7815TIP3    H144936   3.352   3.113   5.528  1.4639 -1.0743 -0.5565
 7815TIP3    H244937   3.457   3.220   5.512  0.4672  0.2039  1.0956
 7816TIP3   OH244938   3.920   3.660   3.478  0.4578 -0.6894 -0.7002
 7816TIP3    H144939   3.943   3.617   3.560  1.2628 -1.3364 -1.2580
 7816TIP3    H244940   3.912   3.589   3.415  1.1685 -0.0804 -1.4890
 7817TIP3   OH244941   5.884   0.549   4.669  0.3271 -0.2129  0.3734
 7817TIP3    H144942   5.818   0.614   4.690  1.2611  0.3049  1.8946
 7817TIP3    H244943   5.872   0.480   4.734 -0.0730 -1.1459 -0.6641
 7818TIP3   OH244944   4.790   6.401   2.521 -0.1504 -0.1935 -0.1909
 7818TIP3    H144945   4.733   6.329   2.494  2.5280 -1.9095 -1.7684
 7818TIP3    H244946   4.777   6.468   2.454 -0.4191 -0.5288 -0.4760
 7819TIP3   OH244947   5.307   3.454  15.577 -0.3893 -0.2068 -0.0908
 7819TIP3    H144948   5.282   3.536  15.534 -0.1442  0.9803  1.9190
 7819TIP3    H244949   5.225   3.420  15.613 -0.0847  0.6604  1.4974
 7820TIP3   OH244950   0.525   2.644  11.165  0.0910 -0.0947  0.5330
 7820TIP3    H144951   0.478   2.724  11.138 -0.0012  0.0280  1.0371
 7820TIP3    H244952   0.547   2.600  11.083 -0.1133  0.3058  0.2582
 7821TIP3   OH244953   3.431   5.821   4.340  0.0467  0.3638  0.3878
 7821TIP3    H144954   3.517   5.856   4.316  0.3882 -1.0722 -0.6232
 7821TIP3    H244955   3.417   5.748   4.280 -0.6713 -1.1435  2.2634
 7822TIP3   OH244956   1.957   4.130  15.027  0.7013 -0.0529  0.1406
 7822TIP3    H144957   1.984   4.119  15.118  1.5510  3.4638  0.4496
 7822TIP3    H244958   2.035   4.111  14.976  1.6415  2.4480  0.5318
 7823TIP3   OH244959   0.468   1.700   5.168  0.0943 -0.4178 -0.1439
 7823TIP3    H144960   0.454   1.774   5.227 -0.9477 -1.4486  0.9538
 7823TIP3    H244961   0.447   1.734   5.081 -0.0481  0.6547  0.2983
 7824TIP3   OH244962   4.530   3.849   5.908  0.2187  0.3185  0.5022
 7824TIP3    H144963   4.542   3.939   5.938  2.0957  0.9032 -1.7087
 7824TIP3    H244964   4.617   3.822   5.877 -0.7364 -1.5313 -0.7656
 7825TIP3   OH244965   3.449   2.668  16.696 -0.2201 -0.3908 -0.2899
 7825TIP3    H144966   3.435   2.596  16.633  0.9803  0.1140 -1.1782
 7825TIP3    H244967   3.536   2.651  16.732 -1.2382 -1.1795  1.9888
 7826TIP3   OH244968   0.741   0.625  16.195  0.2710 -0.3466  0.2207
 7826TIP3    H144969   0.732   0.533  16.221 -1.3251  0.3018  2.2088
 7826TIP3    H244970   0.669   0.670  16.239  0.3515  1.7098 -1.5903
 7827TIP3   OH244971   1.113   2.111  12.339 -0.0621 -0.1957 -0.5134
 7827TIP3    H144972   1.103   2.037  12.279  0.3898 -0.0447 -0.7846
 7827TIP3    H244973   1.045   2.173  12.311 -3.4977 -2.2202  2.4652
 7828TIP3   OH244974   5.160   1.451  11.580  0.0481  0.5147 -0.7517
 7828TIP3    H144975   5.221   1.520  11.605  0.4536 -0.6768  1.8584
 7828TIP3    H244976   5.127   1.416  11.663 -2.3503 -0.5139 -2.0287
 7829TIP3   OH244977   4.255   5.310   1.431 -0.1470  0.3570 -0.5922
 7829TIP3    H144978   4.227   5.371   1.499  1.7612  0.4449  0.1817
 7829TIP3    H244979   4.257   5.225   1.474  1.9737  0.5540 -0.1948
 7830TIP3   OH244980   6.045   0.654  12.511 -0.7005  0.0772  0.6547
 7830TIP3    H144981   6.021   0.642  12.419 -0.5263  2.2784  0.2680
 7830TIP3    H244982   6.000   0.735  12.537 -0.7985 -0.5382  2.5402
 7831TIP3   OH244983   6.594   2.326   2.722  0.3407 -0.4808  0.6869
 7831TIP3    H144984   6.540   2.248   2.710  0.9116 -0.7199 -0.4882
 7831TIP3    H244985   6.533   2.399   2.715  0.1933 -0.7204 -1.2501
 7832TIP3   OH244986   2.423   4.105  17.169 -0.1239  0.7430  1.0281
 7832TIP3    H144987   2.385   4.187  17.137  0.1315  1.2465  1.9709
 7832TIP3    H244988   2.448   4.058  17.090 -0.5472  1.4470  0.4597
 7833TIP3   OH244989   0.265   3.667  13.309  0.7853 -0.6188  0.2980
 7833TIP3    H144990   0.246   3.708  13.393 -3.1157  0.7844 -1.0230
 7833TIP3    H244991   0.326   3.727  13.266  0.7544  0.0143  1.1087
 7834TIP3   OH244992   5.266   0.348   4.874 -0.0408 -0.3424 -0.6322
 7834TIP3    H144993   5.236   0.435   4.898  2.0728  0.1247  0.5801
 7834TIP3    H244994   5.259   0.297   4.955  2.4236 -0.1656 -0.2490
 7835TIP3   OH244995   4.548   1.831   3.922 -0.4695  0.7449  0.3037
 7835TIP3    H144996   4.527   1.856   3.832 -1.7180  1.8659  0.8831
 7835TIP3    H244997   4.528   1.908   3.974  2.3834  0.9372  1.3243
 7836TIP3   OH244998   0.421   4.528  17.167 -0.1320  0.0477 -0.2348
 7836TIP3    H144999   0.464   4.482  17.239 -0.6084  0.7318  0.5075
 7836TIP3    H245000   0.453   4.485  17.088  2.1626  0.7435  0.2598
 7837TIP3   OH245001   1.766   1.714  13.197  0.6535 -0.3198 -0.9565
 7837TIP3    H145002   1.695   1.776  13.181 -0.2716 -0.7298  1.1463
 7837TIP3    H245003   1.830   1.764  13.249 -1.0327 -1.4631  2.5671
 7838TIP3   OH245004   3.750   1.921  13.462 -0.4106 -0.0910  1.2087
 7838TIP3    H145005   3.686   1.852  13.449 -0.0433 -0.0461 -1.5360
 7838TIP3    H245006   3.798   1.896  13.542 -1.0701 -2.3472  0.9591
 7839TIP3   OH245007   1.578   5.742   2.487 -0.6419  0.1255 -0.0686
 7839TIP3    H145008   1.648   5.702   2.538 -0.6740  0.0196 -0.1056
 7839TIP3    H245009   1.615   5.755   2.400 -0.8959 -0.6085 -0.2948
 7840TIP3   OH245010   0.037   4.209   0.921  0.5565 -0.2628 -0.2290
 7840TIP3    H145011   0.056   4.131   0.974 -1.5681 -1.6357 -1.3540
 7840TIP3    H245012   0.041   4.282   0.984  2.0589 -1.3040  0.9599
 7841TIP3   OH245013   3.965   5.009  15.827  0.2173 -0.0960  0.3759
 7841TIP3    H145014   3.979   5.024  15.734 -0.6144  0.6706  0.3650
 7841TIP3    H245015   3.879   4.966  15.832  0.4460 -0.5204  0.7600
 7842TIP3   OH245016   6.024   0.942  12.068  1.1254 -0.6626 -0.1329
 7842TIP3    H145017   6.036   0.859  12.024  0.4942  0.0129 -1.6437
 7842TIP3    H245018   6.083   1.002  12.023  1.7034 -0.3187  1.0479
 7843TIP3   OH245019   6.075   3.300  12.861 -0.3113  0.1894  0.2927
 7843TIP3    H145020   6.165   3.304  12.829 -0.2486 -0.0242  0.4411
 7843TIP3    H245021   6.040   3.218  12.826 -0.1323 -0.2228  1.0537
 7844TIP3   OH245022   5.059   3.491  15.726 -0.2739 -0.1927  0.4305
 7844TIP3    H145023   4.973   3.484  15.684 -0.7490 -0.4642  1.4192
 7844TIP3    H245024   5.077   3.585  15.727  1.0415 -0.2706 -2.8431
 7845TIP3   OH245025   6.198   3.744  16.603  0.0152  0.5035 -0.4776
 7845TIP3    H145026   6.176   3.831  16.569 -1.5411 -0.1840 -1.3710
 7845TIP3    H245027   6.142   3.685  16.552  0.5499 -0.9535  0.5881
 7846TIP3   OH245028   3.400   6.405  11.995  0.0547 -0.2374  0.0324
 7846TIP3    H145029   3.436   6.323  11.962  1.3919 -0.2131  1.3758
 7846TIP3    H245030   3.457   6.473  11.959 -0.1709 -0.0006  0.1149
 7847TIP3   OH245031   6.560   2.040  16.978  0.5306 -0.1944  0.4422
 7847TIP3    H145032   6.549   2.022  17.071 -1.0092 -0.7679  0.1811
 7847TIP3    H245033   6.649   2.076  16.971 -0.1971  2.3302  2.4719
 7848TIP3   OH245034   6.011   3.352   4.915  0.2025 -0.4051 -0.1845
 7848TIP3    H145035   6.082   3.338   4.853 -1.9894  0.6673 -3.1572
 7848TIP3    H245036   6.031   3.293   4.988  2.1088 -3.0393 -2.6180
 7849TIP3   OH245037   0.756   1.653   4.412  0.8494 -0.2830  0.2155
 7849TIP3    H145038   0.703   1.714   4.361  0.8448 -0.3131  0.1843
 7849TIP3    H245039   0.780   1.584   4.350  2.5080  0.6714 -0.2692
 7850TIP3   OH245040   3.956   0.827  15.455  0.7324 -0.1588 -0.2702
 7850TIP3    H145041   3.995   0.884  15.389  0.4131 -0.2091 -0.5070
 7850TIP3    H245042   3.868   0.863  15.469  1.0821  0.3411  0.7264
 7851TIP3   OH245043   5.679   5.851   4.131 -0.5082  0.1900  0.6888
 7851TIP3    H145044   5.733   5.930   4.130  1.7007 -1.2279  0.6103
 7851TIP3    H245045   5.596   5.877   4.090  1.7256  1.4127 -3.5908
 7852TIP3   OH245046   0.821   2.755  16.042 -0.3767  0.0546 -0.3510
 7852TIP3    H145047   0.796   2.708  15.963  2.2853  0.6751 -1.6671
 7852TIP3    H245048   0.757   2.826  16.049 -1.7130 -1.0508 -0.8973
 7853TIP3   OH245049   1.697   0.616  11.692  0.2235 -0.5532 -0.4348
 7853TIP3    H145050   1.725   0.533  11.654 -2.0871 -2.5060  1.8445
 7853TIP3    H245051   1.612   0.598  11.731  0.2859  2.5122  1.4716
 7854TIP3   OH245052   3.393   2.460   3.495 -0.1151 -0.4044 -0.0780
 7854TIP3    H145053   3.305   2.486   3.468 -1.2936 -2.6531  1.3570
 7854TIP3    H245054   3.433   2.427   3.414 -0.3808  1.0126 -0.8314
 7855TIP3   OH245055   2.461   2.309  16.518  0.2988 -0.7171  0.4689
 7855TIP3    H145056   2.501   2.294  16.603 -0.4908  1.2631  1.2545
 7855TIP3    H245057   2.497   2.241  16.461  1.2010 -1.7868  2.2551
 7856TIP3   OH245058   4.615   6.799   0.209  0.1409 -0.0782  0.2696
 7856TIP3    H145059   4.641   6.872   0.152 -1.3541 -0.2104 -0.6428
 7856TIP3    H245060   4.666   6.725   0.178  1.0367  0.3841  0.6281
 7857TIP3   OH245061   1.472   3.302  10.785  0.1054  0.5913  0.1863
 7857TIP3    H145062   1.392   3.263  10.822  0.5931 -0.5195  0.1144
 7857TIP3    H245063   1.441   3.381  10.740 -0.6109  1.5755  2.2633
 7858TIP3   OH245064   3.627   3.132  15.952  0.1432 -0.4751 -0.0494
 7858TIP3    H145065   3.534   3.131  15.977 -0.0272 -0.1333 -0.6507
 7858TIP3    H245066   3.629   3.183  15.871  1.1756  1.5438  1.1722
 7859TIP3   OH245067   6.468   6.078  11.211  0.5128 -0.4184 -0.3872
 7859TIP3    H145068   6.452   6.129  11.131 -2.1923  1.6710  1.3173
 7859TIP3    H245069   6.383   6.042  11.235  0.8009  0.5613  2.5227
 7860TIP3   OH245070   4.450   5.991   5.205  0.0578  0.1645 -0.3849
 7860TIP3    H145071   4.459   5.961   5.296 -1.7199 -1.1361 -0.5839
 7860TIP3    H245072   4.446   5.911   5.153 -2.4833  0.7111 -1.1975
 7861TIP3   OH245073   3.003   2.183  15.123 -0.0432  0.4163  0.1437
 7861TIP3    H145074   2.996   2.198  15.217 -0.7736 -0.0657  0.1745
 7861TIP3    H245075   3.059   2.254  15.091 -1.0665  1.5152  0.7201
 7862TIP3   OH245076   4.235   1.042   4.576  0.8612  0.2246  0.3783
 7862TIP3    H145077   4.270   0.965   4.621  0.1016 -1.2404 -1.4071
 7862TIP3    H245078   4.140   1.035   4.586  0.7693  0.7866 -0.0564
 7863TIP3   OH245079   1.681   5.533  14.897 -0.3490 -0.1223 -0.1065
 7863TIP3    H145080   1.596   5.572  14.878  0.1643  0.4148 -1.4735
 7863TIP3    H245081   1.689   5.461  14.834  0.0750 -0.3781  0.2272
 7864TIP3   OH245082   4.967   1.067  17.256  0.1769 -0.1216  0.0734
 7864TIP3    H145083   4.917   1.146  17.280 -0.8497 -0.5399 -0.6229
 7864TIP3    H245084   4.923   0.996  17.303  0.9591 -0.3273  0.5162
 7865TIP3   OH245085   1.369   2.660  15.638  0.1294  0.2869  0.1018
 7865TIP3    H145086   1.397   2.702  15.557 -0.6050  0.4713 -0.0683
 7865TIP3    H245087   1.306   2.721  15.677 -0.7902 -0.5395 -0.0366
 7866TIP3   OH245088   3.030   6.658   4.523  0.3319  0.0086  0.0982
 7866TIP3    H145089   2.941   6.623   4.531  0.8120 -1.5584 -1.0106
 7866TIP3    H245090   3.069   6.645   4.610  0.1682 -1.3261 -0.0139
 7867TIP3   OH245091   4.681   1.342  13.416 -0.1496  0.1378  0.2275
 7867TIP3    H145092   4.618   1.358  13.486  0.0496 -1.0016  0.6879
 7867TIP3    H245093   4.659   1.255  13.383 -1.1130  1.1557 -2.0782
 7868TIP3   OH245094   4.066   2.067   5.769  0.5903 -0.7152 -0.7690
 7868TIP3    H145095   4.057   2.159   5.747 -0.3868 -0.5165  0.3481
 7868TIP3    H245096   4.005   2.053   5.842  1.2190 -2.0831 -0.4591
 7869TIP3   OH245097   5.673   5.121  12.253 -0.8401 -0.3138 -0.1776
 7869TIP3    H145098   5.730   5.078  12.317  0.0343 -0.5018 -1.0515
 7869TIP3    H245099   5.700   5.084  12.169 -0.5515  1.4139 -0.8791
 7870TIP3   OH245100   2.789   5.014  13.258  0.3533  0.4186 -0.5863
 7870TIP3    H145101   2.774   5.093  13.207 -0.3602 -0.5933 -2.0101
 7870TIP3    H245102   2.849   5.041  13.328 -0.4448  2.3632 -0.5999
 7871TIP3   OH245103   4.693   6.754   0.867  0.4276  0.1858 -0.4713
 7871TIP3    H145104   4.686   6.663   0.838 -1.6739 -0.1290  0.8486
 7871TIP3    H245105   4.626   6.801   0.817  1.9515  1.2322 -1.6652
 7872TIP3   OH245106   5.632   0.337  12.169 -0.0210 -0.3434 -0.4343
 7872TIP3    H145107   5.590   0.407  12.218  3.9839 -0.0297  3.1065
 7872TIP3    H245108   5.682   0.382  12.101  0.6740  0.0483  0.3248
 7873TIP3   OH245109   0.182   4.011   0.279 -0.1063  0.1881  0.0460
 7873TIP3    H145110   0.123   3.938   0.294  0.3993 -0.2051  0.1488
 7873TIP3    H245111   0.214   3.998   0.189  0.4216 -0.0387  0.2631
 7874TIP3   OH245112   2.779   0.001   3.721  0.2676  0.0800 -0.0890
 7874TIP3    H145113   2.750   0.057   3.648  1.9981  1.2456  0.0527
 7874TIP3    H245114   2.738   0.040   3.798  1.4457  1.1766  0.0054
 7875TIP3   OH245115   0.943   0.147   5.328 -0.3000 -0.3626 -0.2723
 7875TIP3    H145116   0.963   0.164   5.420 -0.5843  2.2835 -0.6087
 7875TIP3    H245117   1.026   0.162   5.282 -0.6729  0.7222 -0.6409
 7876TIP3   OH245118   3.705   6.590   2.524  0.3976  0.0390 -0.4072
 7876TIP3    H145119   3.632   6.529   2.512  0.3696 -0.2626  1.1130
 7876TIP3    H245120   3.693   6.624   2.612  1.9035  0.2647 -0.2626
 7877TIP3   OH245121   1.104   2.331  11.335 -0.4971 -0.2418 -0.5999
 7877TIP3    H145122   1.119   2.302  11.245 -0.4413 -1.0062 -0.3523
 7877TIP3    H245123   1.168   2.401  11.348 -0.9853  0.3784 -1.3816
 7878TIP3   OH245124   5.905   1.201   6.736 -0.1645 -0.1760  0.3427
 7878TIP3    H145125   5.836   1.236   6.680  0.4832 -0.6791 -0.7975
 7878TIP3    H245126   5.871   1.116   6.765 -1.3411  0.8974  2.3679
 7879TIP3   OH245127   0.068   6.751  13.422 -0.2268 -0.3950 -0.2862
 7879TIP3    H145128   0.042   6.670  13.466 -1.9010 -0.4219 -1.2461
 7879TIP3    H245129   0.141   6.726  13.367 -0.6762 -1.2457 -0.5107
 7880TIP3   OH245130   0.027   3.298  14.881 -0.2959 -0.4843 -0.0800
 7880TIP3    H145131   0.031   3.267  14.790 -0.7837 -0.3586 -0.1439
 7880TIP3    H245132  -0.057   3.342  14.888 -0.1966 -0.3681  0.3967
 7881TIP3   OH245133   6.149   2.574  12.622 -0.1851 -0.7674 -0.5493
 7881TIP3    H145134   6.223   2.573  12.561  1.6845  0.7272  1.5035
 7881TIP3    H245135   6.134   2.666  12.640 -1.0791 -1.1382  0.7595
 7882TIP3   OH245136   1.207   2.524  16.027 -0.0971 -0.1840  0.6567
 7882TIP3    H145137   1.191   2.611  16.062  1.5068 -0.4097  2.0562
 7882TIP3    H245138   1.292   2.530  15.984 -1.5261 -0.1887 -2.4817
 7883TIP3   OH245139   3.519   1.249   1.227 -0.1225  0.5412  0.4263
 7883TIP3    H145140   3.449   1.300   1.266  0.1319  0.1854  1.3929
 7883TIP3    H245141   3.548   1.300   1.151 -1.1281  0.8934  0.2704
 7884TIP3   OH245142   1.016   5.685  10.854  0.4926 -0.0842  0.5042
 7884TIP3    H145143   0.950   5.615  10.849  1.1012 -1.0507  3.5671
 7884TIP3    H245144   1.065   5.678  10.771 -3.6507  1.3276 -2.3823
 7885TIP3   OH245145   2.404   4.489   0.618 -0.0318 -0.0684 -0.3418
 7885TIP3    H145146   2.495   4.510   0.598 -0.6876  3.0326 -0.5632
 7885TIP3    H245147   2.373   4.439   0.543  1.5096 -1.3675 -0.1597
 7886TIP3   OH245148   6.644   4.902   0.399 -0.0826  0.0481  0.5232
 7886TIP3    H145149   6.578   4.835   0.411  0.6347 -0.6539  0.6596
 7886TIP3    H245150   6.703   4.866   0.333 -0.2500  0.9843 -0.1683
 7887TIP3   OH245151   6.536   0.204   0.556 -0.5717  0.1299  0.4144
 7887TIP3    H145152   6.443   0.208   0.532 -1.1236  1.1084  2.4326
 7887TIP3    H245153   6.578   0.273   0.505 -0.4309 -1.7754 -2.2435
 7888TIP3   OH245154   4.299   4.786  12.159 -0.1124  0.0084  0.6977
 7888TIP3    H145155   4.294   4.859  12.221 -0.4367 -0.1590  0.8673
 7888TIP3    H245156   4.233   4.807  12.092 -0.0570 -0.0236  0.6321
 7889TIP3   OH245157   6.307   4.387   3.079 -0.0280  0.2016 -0.2979
 7889TIP3    H145158   6.253   4.460   3.111 -0.7123 -0.6458  0.5849
 7889TIP3    H245159   6.291   4.317   3.143 -0.7686 -1.3037 -2.0594
 7890TIP3   OH245160   4.398   4.924   4.178  0.3873  0.8624  0.7398
 7890TIP3    H145161   4.424   4.838   4.210  0.0169 -0.3608 -2.0059
 7890TIP3    H245162   4.479   4.976   4.181  0.7251  0.3134  1.9198
 7891TIP3   OH245163   0.838   6.258  13.726  0.2053  0.2617  0.1097
 7891TIP3    H145164   0.768   6.197  13.750 -1.6175  0.5377 -3.7625
 7891TIP3    H245165   0.792   6.337  13.699  2.2407  1.5012  0.0806
 7892TIP3   OH245166   4.271   0.681  13.477  0.0532 -0.4836 -0.5923
 7892TIP3    H145167   4.315   0.733  13.410  1.1628  2.3285  2.0690
 7892TIP3    H245168   4.178   0.698  13.465 -0.1531 -2.8564 -3.4499
 7893TIP3   OH245169   3.718   0.920  11.612  0.2611  0.2885  0.1988
 7893TIP3    H145170   3.639   0.894  11.660  0.8070 -0.0627  0.9356
 7893TIP3    H245171   3.770   0.968  11.677  0.6644  0.4952 -0.2707
 7894TIP3   OH245172   5.339   6.073   6.153  0.0231 -0.0768 -0.0763
 7894TIP3    H145173   5.365   5.983   6.133  0.3242  0.1752 -0.8857
 7894TIP3    H245174   5.252   6.064   6.192  0.9978 -0.8796  2.0610
 7895TIP3   OH245175   4.842   6.149   3.157  0.2326  0.5094 -0.0854
 7895TIP3    H145176   4.772   6.095   3.122 -0.5290  1.8651 -0.7345
 7895TIP3    H245177   4.813   6.239   3.143  2.6460  1.1698 -1.5280
 7896TIP3   OH245178   2.183   2.366  16.532  0.3804  0.2168 -0.1716
 7896TIP3    H145179   2.259   2.316  16.563  1.6935  2.6637  0.8532
 7896TIP3    H245180   2.108   2.312  16.555  1.6388 -0.7754  1.9621
 7897TIP3   OH245181   2.735   0.377   3.691 -0.5193 -0.0981 -0.4469
 7897TIP3    H145182   2.645   0.390   3.658 -0.9440 -1.7593 -0.0524
 7897TIP3    H245183   2.726   0.378   3.786  0.0894  0.9106 -0.3927
 7898TIP3   OH245184   3.769   4.947   2.590  0.1306  0.0311 -0.4763
 7898TIP3    H145185   3.731   5.001   2.522  0.8330 -0.0499 -0.9426
 7898TIP3    H245186   3.765   4.858   2.556 -1.8030 -0.3693  0.6364
 7899TIP3   OH245187   4.792   6.577  14.512  0.2991  0.8033  0.5710
 7899TIP3    H145188   4.741   6.636  14.456  0.2586  1.6763  1.4958
 7899TIP3    H245189   4.831   6.634  14.577  0.6115 -0.1547  1.2428
 7900TIP3   OH245190   2.525   0.756   2.919 -0.3858 -0.2413  0.0474
 7900TIP3    H145191   2.535   0.667   2.953 -0.8268 -0.7905 -1.1911
 7900TIP3    H245192   2.568   0.754   2.833  0.9170  1.1673  0.6238
 7901TIP3   OH245193   6.168   0.023   3.318 -0.3991  0.1313  0.2331
 7901TIP3    H145194   6.142   0.077   3.243 -0.3403  0.9814  0.8124
 7901TIP3    H245195   6.112   0.053   3.390  0.6570  0.4739  0.9406
 7902TIP3   OH245196   6.450   2.729  15.942  0.5832 -0.0652  0.6140
 7902TIP3    H145197   6.375   2.686  15.901 -1.0178  3.2854 -0.3539
 7902TIP3    H245198   6.524   2.671  15.924 -1.0474 -1.5208 -2.1251
 7903TIP3   OH245199   3.515   6.368  13.176 -0.8473 -0.0530 -0.6087
 7903TIP3    H145200   3.604   6.352  13.205 -0.8404 -0.2963 -0.7610
 7903TIP3    H245201   3.509   6.463  13.168 -1.2224  0.1319  1.3769
 7904TIP3   OH245202   4.664   3.864   2.370  0.3167 -0.1755  0.5169
 7904TIP3    H145203   4.725   3.897   2.436 -0.4911  1.1728  0.6391
 7904TIP3    H245204   4.680   3.918   2.293  1.1641 -1.6569 -0.3859
 7905TIP3   OH245205   4.190   2.701   2.290 -0.5296 -0.0192 -0.2224
 7905TIP3    H145206   4.173   2.769   2.225  0.7231  1.0153  0.4831
 7905TIP3    H245207   4.181   2.745   2.374  0.6297 -0.6240  0.2429
 7906TIP3   OH245208   6.578   3.557  14.161 -0.6697  0.3813  0.6084
 7906TIP3    H145209   6.483   3.545  14.152 -0.6852 -1.2128  2.3451
 7906TIP3    H245210   6.612   3.541  14.073 -1.8149 -1.4799  0.4598
 7907TIP3   OH245211   1.410   4.599   6.044 -0.9060 -0.3812  0.0498
 7907TIP3    H145212   1.494   4.644   6.051 -1.6427  1.0990 -0.2591
 7907TIP3    H245213   1.423   4.515   6.090  0.2634  0.4913  1.3815
 7908TIP3   OH245214   3.856   1.485  14.729 -0.2011  0.6416 -0.1311
 7908TIP3    H145215   3.770   1.475  14.770  0.3234  1.0128  1.1143
 7908TIP3    H245216   3.857   1.575  14.697  0.0040  0.9108  0.5940
 7909TIP3   OH245217   3.507   2.806   3.421  0.0557 -0.0284  0.9130
 7909TIP3    H145218   3.553   2.753   3.486  0.6169 -3.3981 -1.9218
 7909TIP3    H245219   3.416   2.804   3.449  0.5096  0.1157  2.4974
 7910TIP3   OH245220   0.764   6.131   3.136 -0.5296 -0.1831 -0.3232
 7910TIP3    H145221   0.814   6.212   3.137  0.7549 -0.9461  0.9086
 7910TIP3    H245222   0.826   6.064   3.107 -0.5783 -1.2693  1.8933
 7911TIP3   OH245223   1.258   4.139  13.390  0.5032  0.0518  0.7444
 7911TIP3    H145224   1.170   4.138  13.351  0.8702  0.8912 -0.1656
 7911TIP3    H245225   1.245   4.175  13.477  0.0641  1.1222  0.2528
 7912TIP3   OH245226   1.774   6.525   1.539 -0.3988  0.2155 -0.0351
 7912TIP3    H145227   1.722   6.514   1.618 -0.8149 -2.1069 -0.5593
 7912TIP3    H245228   1.864   6.508   1.567 -0.6644 -1.7059 -0.1907
 7913TIP3   OH245229   5.637   5.355   6.228  0.3707 -0.1283  0.3138
 7913TIP3    H145230   5.655   5.409   6.305 -0.4355 -0.5566  0.8164
 7913TIP3    H245231   5.563   5.399   6.185  0.1109 -0.4823  0.3917
 7914TIP3   OH245232   5.708   4.104  13.007  0.0897 -0.1922 -0.3309
 7914TIP3    H145233   5.676   4.161  12.936  1.2208  0.3148 -0.4447
 7914TIP3    H245234   5.797   4.081  12.981  0.1562 -0.8304  0.4370
 7915TIP3   OH245235   2.047   6.390  16.646  0.3902  0.1559 -0.0807
 7915TIP3    H145236   1.957   6.420  16.650 -0.3489 -1.9998  0.7217
 7915TIP3    H245237   2.087   6.421  16.727  0.0617  0.2288  0.0534
 7916TIP3   OH245238   4.563   1.871   5.777 -0.3252  0.0473 -0.1132
 7916TIP3    H145239   4.559   1.786   5.820  0.0757 -0.0274 -0.2181
 7916TIP3    H245240   4.525   1.856   5.690  1.9689 -0.6309 -1.0702
 7917TIP3   OH245241   3.130   6.707  15.337  0.8614 -0.1805  0.0880
 7917TIP3    H145242   3.132   6.802  15.339  2.2026  0.0126 -3.3489
 7917TIP3    H245243   3.219   6.682  15.311 -0.1601 -2.1463 -1.8807
 7918TIP3   OH245244   3.280   1.156  14.927  0.1484 -0.5455 -0.1821
 7918TIP3    H145245   3.362   1.124  14.889  0.3637  0.7278 -0.8496
 7918TIP3    H245246   3.258   1.232  14.874  0.3388  1.1850  2.0977
 7919TIP3   OH245247   5.105   5.395   3.635 -0.6540 -0.0523 -0.3265
 7919TIP3    H145248   5.188   5.348   3.639 -0.7482 -0.2358 -0.4826
 7919TIP3    H245249   5.115   5.467   3.697 -0.3783 -0.0714 -0.3479
 7920TIP3   OH245250   5.160   0.081  10.851  0.0742  0.6480  0.7850
 7920TIP3    H145251   5.223   0.070  10.922  0.8000 -1.2330 -0.0768
 7920TIP3    H245252   5.153  -0.006  10.811 -1.1695  1.3908 -0.7254
 7921TIP3   OH245253   2.766   2.832   3.887 -0.5735 -0.2998 -0.3710
 7921TIP3    H145254   2.818   2.911   3.875 -1.1525  0.1658  0.1360
 7921TIP3    H245255   2.737   2.808   3.799 -0.9770  0.4573 -0.4509
 7922TIP3   OH245256   1.660   6.567  16.788 -0.0064  0.4604 -0.1841
 7922TIP3    H145257   1.696   6.644  16.746 -2.1398  1.2129 -0.7552
 7922TIP3    H245258   1.677   6.581  16.882 -1.3638  2.2525 -0.1448
 7923TIP3   OH245259   3.518   2.221  15.395 -0.1949  0.3117 -0.4131
 7923TIP3    H145260   3.493   2.218  15.488  1.0916  2.4435  0.0503
 7923TIP3    H245261   3.563   2.137  15.380  0.7205  0.4611  1.2493
 7924TIP3   OH245262   2.650   2.706  14.877  0.0296  0.3201  0.1495
 7924TIP3    H145263   2.573   2.655  14.901  0.9515 -1.6460 -0.8743
 7924TIP3    H245264   2.668   2.683  14.786  2.0114  0.4429  0.4582
 7925TIP3   OH245265   3.920   0.485  16.209 -0.1272 -0.0513 -0.4873
 7925TIP3    H145266   3.933   0.458  16.300  0.1058  1.2630 -0.1026
 7925TIP3    H245267   3.866   0.564  16.215  0.4985  0.4631 -1.4402
 7926TIP3   OH245268   6.119   2.888  15.028  0.0876  0.1545 -0.3297
 7926TIP3    H145269   6.096   2.953  14.961  1.1778  2.5864  1.5051
 7926TIP3    H245270   6.067   2.913  15.104 -1.5060 -2.8487 -0.2939
 7927TIP3   OH245271   1.781   2.811   3.502  0.0282 -0.2579 -0.6302
 7927TIP3    H145272   1.874   2.803   3.523  0.1766  0.3115 -1.0435
 7927TIP3    H245273   1.742   2.728   3.530  0.1258  0.5425  2.1963
 7928TIP3   OH245274   3.262   1.159  12.389 -0.4496 -0.0900  0.5943
 7928TIP3    H145275   3.197   1.133  12.324  0.2205 -1.2804  0.3521
 7928TIP3    H245276   3.327   1.209  12.339 -0.3057 -0.3853  0.4801
 7929TIP3   OH245277   3.273   1.528  17.063 -0.8131  0.0063 -0.1327
 7929TIP3    H145278   3.230   1.497  17.142  1.0427 -0.8996  0.5569
 7929TIP3    H245279   3.359   1.488  17.064 -1.1469 -1.1021 -3.2828
 7930TIP3   OH245280   6.495   2.738   0.780 -0.1700  0.8298 -0.0112
 7930TIP3    H145281   6.502   2.752   0.874  0.2953  1.0344 -0.0734
 7930TIP3    H245282   6.402   2.750   0.761 -0.1701  1.3913  0.3280
 7931TIP3   OH245283   6.732   5.908   3.220  0.1495 -0.4323  0.2408
 7931TIP3    H145284   6.732   5.959   3.139 -0.5852  0.7784  0.9601
 7931TIP3    H245285   6.824   5.903   3.246  0.1437  2.3313  1.1786
 7932TIP3   OH245286   2.586   6.500   6.356 -0.1581  0.1076  0.4639
 7932TIP3    H145287   2.652   6.476   6.422  0.2049 -0.2052 -0.0072
 7932TIP3    H245288   2.575   6.594   6.366  1.4239  0.4102 -0.4004
 7933TIP3   OH245289   5.313   2.899  11.775  0.1172 -0.1183 -0.7287
 7933TIP3    H145290   5.235   2.847  11.754 -0.8504  0.2764  1.5685
 7933TIP3    H245291   5.293   2.987  11.744 -1.3997  0.5231  1.8386
 7934TIP3   OH245292   5.384   2.387   4.686  0.0065  0.5117  0.1532
 7934TIP3    H145293   5.478   2.399   4.701  0.0761  0.7454 -0.4570
 7934TIP3    H245294   5.352   2.348   4.767  0.7703 -0.3274  0.0716
 7935TIP3   OH245295   1.005   3.095  14.109  0.3067  0.2221  0.1302
 7935TIP3    H145296   1.033   3.049  14.188  0.3314  0.5904  0.3390
 7935TIP3    H245297   1.028   3.036  14.037  1.7773  0.5782  0.2773
 7936TIP3   OH245298   6.087   0.335   5.186 -0.1400 -0.0616 -0.1548
 7936TIP3    H145299   6.043   0.250   5.185  0.9367 -0.6424 -0.3665
 7936TIP3    H245300   6.035   0.390   5.127 -1.4206 -0.2530  0.7603
 7937TIP3   OH245301   4.300   6.497  14.191 -0.3814 -0.1947  0.0204
 7937TIP3    H145302   4.305   6.451  14.275 -0.4516 -0.8492 -0.3241
 7937TIP3    H245303   4.219   6.464  14.150 -0.6884  0.6006 -0.0281
 7938TIP3   OH245304   6.370   6.684  11.949 -0.2377 -0.3334  0.1467
 7938TIP3    H145305   6.367   6.621  11.877  0.0829  0.9025 -0.9962
 7938TIP3    H245306   6.462   6.691  11.971 -0.4493 -1.6818  1.6153
 7939TIP3   OH245307   4.845   5.103  15.580 -0.4882  0.3263  0.4648
 7939TIP3    H145308   4.937   5.112  15.554 -0.5685  0.1393  0.1072
 7939TIP3    H245309   4.844   5.128  15.672  0.3360 -1.9170  1.1615
 7940TIP3   OH245310   3.340   3.989  15.737  0.1399 -0.9322 -0.5357
 7940TIP3    H145311   3.252   3.990  15.699 -0.0694 -1.4554 -0.0778
 7940TIP3    H245312   3.386   3.921  15.689  1.0400  0.8349 -2.3577
 7941TIP3   OH245313   2.299   5.883   5.245  0.2355  0.0596  0.1947
 7941TIP3    H145314   2.272   5.854   5.158  0.1491 -0.0751  0.2670
 7941TIP3    H245315   2.275   5.976   5.248 -2.5459 -0.5776  1.1531
 7942TIP3   OH245316   1.138   4.079  14.041 -0.3457  0.7737 -0.5180
 7942TIP3    H145317   1.134   4.119  13.954  0.2197 -1.2265 -1.5096
 7942TIP3    H245318   1.230   4.086  14.066 -0.5687  1.6592  0.1080
 7943TIP3   OH245319   3.446   3.860   2.148 -0.3139 -0.1849 -0.1953
 7943TIP3    H145320   3.355   3.883   2.166 -0.3883 -0.5995 -0.0322
 7943TIP3    H245321   3.460   3.777   2.194 -0.2964 -0.9127 -1.4797
 7944TIP3   OH245322   6.502   6.551   2.475  0.1385  0.2082  0.3075
 7944TIP3    H145323   6.505   6.647   2.468 -0.6572  0.1678 -0.8164
 7944TIP3    H245324   6.490   6.521   2.385 -2.3128 -0.8224  0.9041
 7945TIP3   OH245325   5.513   6.021  11.893  0.0219  0.1086 -0.1233
 7945TIP3    H145326   5.448   6.091  11.884  0.8888  0.7062 -2.9693
 7945TIP3    H245327   5.583   6.059  11.946  1.0133  1.9617 -2.5732
 7946TIP3   OH245328   1.086   2.542   5.507  0.0907 -0.4994  0.5544
 7946TIP3    H145329   1.013   2.601   5.488  0.6706 -0.2539 -1.0480
 7946TIP3    H245330   1.158   2.599   5.533 -0.2497 -0.7388  2.0850
 7947TIP3   OH245331   6.688   0.048  14.286  0.2141  0.3325  0.6326
 7947TIP3    H145332   6.732  -0.006  14.353  1.3888  0.3725 -0.0732
 7947TIP3    H245333   6.615   0.089  14.332  0.3948 -0.4329  1.6408
 7948TIP3   OH245334   4.049   2.421  17.043 -0.0664  0.2022  0.7673
 7948TIP3    H145335   4.064   2.338  17.086  0.9917  0.2714  0.5680
 7948TIP3    H245336   4.051   2.400  16.949 -0.1286  0.3976  0.7204
 7949TIP3   OH245337   1.242   4.533   2.505 -0.6431  0.2238 -0.1515
 7949TIP3    H145338   1.156   4.560   2.473 -1.0340 -2.2400 -1.4668
 7949TIP3    H245339   1.290   4.510   2.425  0.2155 -1.1147  0.7137
 7950TIP3   OH245340   5.290   1.133  13.513  0.1999  0.1507 -0.6019
 7950TIP3    H145341   5.333   1.189  13.448  0.4054  0.6954 -0.0079
 7950TIP3    H245342   5.198   1.156  13.507  0.4497  1.6681  0.6622
 7951TIP3   OH245343   2.821   3.140   3.277  0.3697  0.4625 -0.3232
 7951TIP3    H145344   2.832   3.058   3.230 -0.7218 -0.3002  0.6747
 7951TIP3    H245345   2.896   3.193   3.252  3.2856 -2.2442  1.9158
 7952TIP3   OH245346   1.984   0.662  13.333 -0.4624  0.6626  0.0422
 7952TIP3    H145347   1.921   0.606  13.286  2.1365 -1.5694 -1.1013
 7952TIP3    H245348   1.989   0.623  13.420 -0.8736  1.0435  0.2392
 7953TIP3   OH245349   0.644   0.371  16.212 -0.2559  0.0676  0.3799
 7953TIP3    H145350   0.567   0.333  16.255  0.0520  0.5834  1.4390
 7953TIP3    H245351   0.640   0.338  16.123 -0.8712 -1.1471  0.8250
 7954TIP3   OH245352   3.916   3.153   6.097  0.0717  0.2767  0.3535
 7954TIP3    H145353   3.916   3.077   6.038 -0.1305  1.0092 -0.6236
 7954TIP3    H245354   3.977   3.129   6.166  2.6206  0.5097 -1.6589
 7955TIP3   OH245355   0.163   2.743  16.834  0.4629  0.9470  0.2718
 7955TIP3    H145356   0.232   2.710  16.891  1.6802 -0.3940 -1.8162
 7955TIP3    H245357   0.155   2.677  16.765 -0.5869  2.6505 -1.3528
 7956TIP3   OH245358   0.191   1.061  13.337  0.0018 -0.6222 -0.3290
 7956TIP3    H145359   0.200   1.146  13.295 -1.1826 -0.5583 -0.5074
 7956TIP3    H245360   0.096   1.048  13.344  0.1690 -1.4368  0.6901
 7957TIP3   OH245361   5.376   4.601  17.051  0.0535 -0.4008  0.3645
 7957TIP3    H145362   5.460   4.646  17.064 -0.5279  0.9004 -0.2517
 7957TIP3    H245363   5.398   4.523  17.000  0.8618  0.0488  0.0027
 7958TIP3   OH245364   1.144   3.277  14.346 -0.2497 -0.3788  0.1111
 7958TIP3    H145365   1.178   3.349  14.399  0.5800  0.0648 -0.9981
 7958TIP3    H245366   1.073   3.316  14.295 -2.2834 -1.2131  2.1343
 7959TIP3   OH245367   2.266   0.050  15.137 -0.0646 -0.4983 -0.5485
 7959TIP3    H145368   2.203   0.119  15.158  0.3398  0.1607 -1.4551
 7959TIP3    H245369   2.288   0.065  15.045  0.4680 -1.4898 -0.5902
 7960TIP3   OH245370   4.314   1.900   5.184  0.1661 -0.5379  0.0816
 7960TIP3    H145371   4.282   1.960   5.117 -1.5297  0.6291  1.7988
 7960TIP3    H245372   4.394   1.941   5.217  0.4729 -0.6175 -0.5624
 7961TIP3   OH245373   2.566   4.707  15.921  0.9357 -0.6030 -0.1349
 7961TIP3    H145374   2.617   4.770  15.971  1.3426 -2.0172  1.3196
 7961TIP3    H245375   2.496   4.680  15.982 -0.1177 -0.4699 -1.2522
 7962TIP3   OH245376   1.106   0.075  11.848 -0.7026 -0.1871  0.0090
 7962TIP3    H145377   1.120   0.166  11.820 -2.4065 -0.3750 -1.6792
 7962TIP3    H245378   1.172   0.025  11.801 -0.3580  0.0743  0.2116
 7963TIP3   OH245379   5.942   5.181  12.004 -0.2862 -0.1265  0.2653
 7963TIP3    H145380   5.913   5.269  11.982  1.1881  0.2605 -0.2683
 7963TIP3    H245381   5.862   5.130  12.012 -1.1283  1.1147 -0.0533
 7964TIP3   OH245382   1.023   1.016  15.850 -0.0439  0.2743  0.3663
 7964TIP3    H145383   1.030   1.082  15.781 -0.8282  0.6238  0.5996
 7964TIP3    H245384   0.953   1.049  15.906 -0.7459 -0.9788  0.2547
 7965TIP3   OH245385   3.187   0.128  12.473 -0.3575  0.0303  0.7259
 7965TIP3    H145386   3.206   0.131  12.379  1.0164  0.7238  0.9924
 7965TIP3    H245387   3.137   0.048  12.485 -0.4957 -0.0999 -0.5937
 7966TIP3   OH245388   5.598   3.619  14.385 -0.0487 -0.0627  0.5290
 7966TIP3    H145389   5.535   3.549  14.403 -0.0673 -0.3777 -0.6453
 7966TIP3    H245390   5.545   3.689  14.347  0.1846 -0.0179  0.2835
 7967TIP3   OH245391   2.512   6.269   5.286  0.2695  0.1790  0.0520
 7967TIP3    H145392   2.499   6.298   5.196  0.1463 -0.0602 -0.0092
 7967TIP3    H245393   2.604   6.288   5.305  0.6947 -1.1028 -0.6172
 7968TIP3   OH245394   4.441   0.384  12.175 -0.8654  0.4295 -0.1293
 7968TIP3    H145395   4.475   0.310  12.125  0.7613 -0.3852  1.9923
 7968TIP3    H245396   4.360   0.351  12.215 -0.9530  0.3102 -0.4043
 7969TIP3   OH245397   4.019   0.027   2.080  0.8134 -0.1808  0.1217
 7969TIP3    H145398   3.979   0.083   2.014 -0.1902 -1.1405 -0.1143
 7969TIP3    H245399   3.945  -0.012   2.126  1.4964 -0.5590  0.9309
 7970TIP3   OH245400   3.906   6.391   5.308 -0.0497  0.7523  0.4806
 7970TIP3    H145401   3.863   6.450   5.246 -1.8753  1.1272  1.9920
 7970TIP3    H245402   3.999   6.411   5.301 -0.3649  1.7957 -1.0704
 7971TIP3   OH245403   5.980   5.572  13.368  0.2039 -0.1257 -0.0868
 7971TIP3    H145404   5.933   5.545  13.289  0.1791  1.3806 -0.6154
 7971TIP3    H245405   5.919   5.631  13.413  0.5635 -0.2683  0.6094
 7972TIP3   OH245406   2.270   5.341   5.861 -0.4117  0.3657 -0.4459
 7972TIP3    H145407   2.235   5.375   5.779  1.5461 -1.1445 -2.0404
 7972TIP3    H245408   2.222   5.259   5.875 -1.4882  1.1397  0.5439
 7973TIP3   OH245409   0.474   2.001  14.596  0.5076  0.1943 -0.5655
 7973TIP3    H145410   0.389   2.012  14.553  0.6377  1.3409 -0.5550
 7973TIP3    H245411   0.457   2.019  14.689  0.4036 -1.4215 -0.2406
 7974TIP3   OH245412   5.797   1.403  16.552 -0.2130  0.1160  0.3371
 7974TIP3    H145413   5.798   1.328  16.493  3.8138 -0.5951  1.0037
 7974TIP3    H245414   5.745   1.373  16.627 -2.6521 -0.1396 -1.3386
 7975TIP3   OH245415   1.961   6.687   3.895  0.0935  0.2240 -0.6997
 7975TIP3    H145416   1.875   6.648   3.909  0.6057 -1.1839 -1.3018
 7975TIP3    H245417   1.984   6.725   3.980 -0.5760 -0.5006 -0.1788
 7976TIP3   OH245418   4.647   0.006  12.536 -0.7148  0.4744 -0.1565
 7976TIP3    H145419   4.671  -0.006  12.444 -0.5711  0.6479 -0.1406
 7976TIP3    H245420   4.577   0.072  12.534 -1.4023 -0.2326 -0.2285
 7977TIP3   OH245421   0.112   0.051  13.014 -0.1968 -0.6936  0.2939
 7977TIP3    H145422   0.022   0.075  12.989 -0.7196 -2.5215  0.2693
 7977TIP3    H245423   0.141  -0.008  12.945  0.2754 -1.7012  1.3267
 7978TIP3   OH245424   6.629   6.639  11.697  0.4126  0.1630 -0.6302
 7978TIP3    H145425   6.572   6.637  11.620  0.5023  0.0457 -0.6955
 7978TIP3    H245426   6.638   6.732  11.718 -0.8352  0.1260  0.1650
 7979TIP3   OH245427   3.183   0.885   5.625  0.4579  0.8316 -0.2137
 7979TIP3    H145428   3.236   0.846   5.694  0.4360 -0.3810 -0.8434
 7979TIP3    H245429   3.122   0.815   5.600  0.8890  1.0078 -1.8863
 7980TIP3   OH245430   0.735   5.831   3.027 -0.0271  0.1710 -0.1020
 7980TIP3    H145431   0.824   5.850   2.997  0.1083 -0.6967 -0.2688
 7980TIP3    H245432   0.737   5.739   3.052 -0.7537  0.2759  0.3664
 7981TIP3   OH245433   6.278   3.347   5.213 -0.2705  0.0061  0.0580
 7981TIP3    H145434   6.183   3.354   5.224 -0.1415  0.2871  1.0517
 7981TIP3    H245435   6.311   3.321   5.299  0.6696  1.0428  0.0442
 7982TIP3   OH245436   0.049   5.927  13.122 -0.1921  0.0548 -0.1785
 7982TIP3    H145437   0.051   5.944  13.028 -2.5673 -0.1295 -0.3210
 7982TIP3    H245438   0.080   5.837  13.131  2.5092  0.8697 -0.4588
 7983TIP3   OH245439   6.770   5.478  15.294  0.1392  0.1376 -0.2788
 7983TIP3    H145440   6.765   5.490  15.199 -0.8766 -0.0831 -0.2705
 7983TIP3    H245441   6.678   5.473  15.322  0.4092  0.9535  0.8145
 7984TIP3   OH245442   1.392   0.135   0.457 -0.1348 -0.0405  0.8480
 7984TIP3    H145443   1.327   0.073   0.422  0.1034  0.5724 -0.7868
 7984TIP3    H245444   1.352   0.169   0.537 -2.7140  1.5826 -0.9563
 7985TIP3   OH245445   4.414   2.576  15.615 -0.1967  0.3428  0.0919
 7985TIP3    H145446   4.388   2.487  15.592 -1.2166  1.0775 -1.8266
 7985TIP3    H245447   4.332   2.620  15.639  0.2406  0.8707  0.6540
 7986TIP3   OH245448   5.707   2.723  12.873 -0.1162  0.4916 -0.0235
 7986TIP3    H145449   5.733   2.815  12.870  0.0215  0.4340 -0.7102
 7986TIP3    H245450   5.769   2.683  12.934  0.6125  0.6112 -0.6688
 7987TIP3   OH245451   5.991   6.044  15.195  0.3302  0.1989 -0.2573
 7987TIP3    H145452   5.918   5.997  15.237 -0.4969  1.1973 -0.5296
 7987TIP3    H245453   6.045   6.074  15.268  0.6217 -0.7706 -0.0607
 7988TIP3   OH245454   2.268   3.347  13.687  0.3322  0.4190 -0.4232
 7988TIP3    H145455   2.358   3.316  13.684 -0.0755 -0.7858 -1.1833
 7988TIP3    H245456   2.227   3.306  13.611 -1.1789 -0.0993  0.6319
 7989TIP3   OH245457   2.647   5.210   6.526 -0.6745  0.0743  0.0652
 7989TIP3    H145458   2.571   5.152   6.533 -0.3482 -0.2912  0.6338
 7989TIP3    H245459   2.721   5.154   6.547 -0.3576  0.7254  0.6918
 7990TIP3   OH245460   2.506   5.757  12.826  0.0745  0.1507 -0.2285
 7990TIP3    H145461   2.474   5.669  12.807 -0.8947 -0.3335  3.0045
 7990TIP3    H245462   2.602   5.748  12.824 -0.0087 -1.0468  0.2319
 7991TIP3   OH245463   4.635   4.779  11.164  0.5334 -0.0286 -0.1423
 7991TIP3    H145464   4.675   4.745  11.244 -0.9404  0.2922  0.7604
 7991TIP3    H245465   4.640   4.707  11.102  1.0905 -0.5118  0.4506
 7992TIP3   OH245466   5.419   1.970   5.019 -0.2492  0.0142 -0.6616
 7992TIP3    H145467   5.457   1.938   4.937  0.4664 -1.3546  0.1692
 7992TIP3    H245468   5.473   1.931   5.088  0.6791  2.9832  0.4880
 7993TIP3   OH245469   4.531   5.440   1.494 -0.1980 -0.4738  1.0203
 7993TIP3    H145470   4.510   5.409   1.582 -1.8201 -1.9816  0.1710
 7993TIP3    H245471   4.577   5.366   1.453  1.2375  0.4875  0.7968
 7994TIP3   OH245472   1.226   6.231  16.293  0.5563 -0.6363 -0.4393
 7994TIP3    H145473   1.173   6.293  16.243  1.0515  1.1866  1.1634
 7994TIP3    H245474   1.268   6.284  16.360  2.5911 -2.4069 -0.1932
 7995TIP3   OH245475   4.687   5.857  12.038 -0.1428  0.0092 -0.6510
 7995TIP3    H145476   4.646   5.893  12.116  1.0008  1.4521 -0.6763
 7995TIP3    H245477   4.694   5.763  12.056 -0.6034  0.1978  0.6323
 7996TIP3   OH245478   3.384   0.888  12.512 -0.5716 -0.7014  0.0604
 7996TIP3    H145479   3.294   0.919  12.517 -0.4822  0.1786 -2.2715
 7996TIP3    H245480   3.427   0.951  12.454  1.4745 -1.2654  0.8987
 7997TIP3   OH245481   0.550   3.646   6.194 -0.4834 -0.0854  0.2665
 7997TIP3    H145482   0.644   3.663   6.182 -0.7256  1.0498 -0.1585
 7997TIP3    H245483   0.513   3.652   6.106 -1.4291  2.6993  0.7574
 7998TIP3   OH245484   0.215   5.488   2.393  0.4047  0.7872 -0.4826
 7998TIP3    H145485   0.219   5.482   2.298  1.7622  2.6585 -0.6204
 7998TIP3    H245486   0.165   5.568   2.411 -0.9548 -0.2219  0.4455
 7999TIP3   OH245487   2.131   0.462  14.870 -0.2581 -0.4063  0.2046
 7999TIP3    H145488   2.178   0.449  14.952  0.6265  0.1369 -0.1980
 7999TIP3    H245489   2.069   0.533  14.888  2.1869  2.0591 -0.4146
 8000TIP3   OH245490   3.228   0.361  12.275  0.2818 -0.0701 -0.1527
 8000TIP3    H145491   3.185   0.440  12.245 -0.6388 -0.6898 -0.4796
 8000TIP3    H245492   3.304   0.393  12.325 -0.7318  1.0440  0.7341
 8001TIP3   OH245493   6.125   2.901  13.929 -0.5210  0.0565  0.2281
 8001TIP3    H145494   6.161   2.872  13.845  0.1031 -0.6968  0.7516
 8001TIP3    H245495   6.033   2.875  13.925 -0.3663 -0.4624 -0.0006
 8002TIP3   OH245496   6.742   2.705  13.796  0.0711  0.2114 -0.2729
 8002TIP3    H145497   6.665   2.745  13.837 -0.0125 -0.8219  0.6164
 8002TIP3    H245498   6.744   2.615  13.830  1.1922 -0.0366 -0.9368
 8003TIP3   OH245499   5.417   2.873  14.860 -0.4837  0.4042  0.0189
 8003TIP3    H145500   5.482   2.937  14.830 -1.2706  0.5714 -1.3867
 8003TIP3    H245501   5.351   2.871  14.791 -0.1338 -2.4647 -0.3600
 8004TIP3   OH245502   4.279   6.620   2.936  0.0270  0.1402 -0.0654
 8004TIP3    H145503   4.327   6.547   2.975 -0.7687 -0.6492 -0.5165
 8004TIP3    H245504   4.286   6.691   3.000  1.0234 -0.2446  0.2670
 8005TIP3   OH245505   0.478   4.983   1.032  0.4339  0.3461 -0.0381
 8005TIP3    H145506   0.383   4.983   1.044  0.4970 -0.3377  0.5205
 8005TIP3    H245507   0.512   5.025   1.111  0.5208  2.4911 -1.1380
 8006TIP3   OH245508   4.089   5.237   0.388 -0.1908  0.1187 -0.1192
 8006TIP3    H145509   4.046   5.249   0.473  0.3098  0.0231  0.1492
 8006TIP3    H245510   4.078   5.321   0.344 -2.4863 -0.5142 -0.9111
 8007TIP3   OH245511   4.125   2.142   2.684  0.2887 -0.2063  0.2678
 8007TIP3    H145512   4.149   2.158   2.593 -1.2312 -0.5077 -0.2098
 8007TIP3    H245513   4.188   2.192   2.735 -0.3323  1.9984 -1.0152
 8008TIP3   OH245514   6.322   4.538  12.380 -0.2645  0.6422  0.0060
 8008TIP3    H145515   6.403   4.588  12.388  0.9482 -1.3286  0.7561
 8008TIP3    H245516   6.345   4.463  12.325 -1.9123  0.6305 -0.7544
 8009TIP3   OH245517   2.672   6.189   0.127  0.2188 -0.3162  0.2670
 8009TIP3    H145518   2.730   6.141   0.067 -0.4579  0.6822 -1.2648
 8009TIP3    H245519   2.729   6.219   0.197  1.6306  0.7003 -1.2330
 8010TIP3   OH245520   4.592   3.892  13.727 -0.1417 -0.4021  0.0242
 8010TIP3    H145521   4.671   3.839  13.718  0.0066 -0.9148  3.1707
 8010TIP3    H245522   4.623   3.976  13.761 -0.7157  0.5308 -1.6432
 8011TIP3   OH245523   6.051   5.183   5.136 -1.0300  0.4854  0.3240
 8011TIP3    H145524   5.957   5.203   5.131 -0.6815  2.0853 -0.4467
 8011TIP3    H245525   6.072   5.142   5.052 -0.8646  0.9404  0.1428
 8012TIP3   OH245526   1.166   2.590   5.966  0.2705 -0.1847 -0.0034
 8012TIP3    H145527   1.117   2.520   5.924 -0.8901  2.4863 -3.6505
 8012TIP3    H245528   1.254   2.583   5.930  0.2728 -0.0281 -0.0288
 8013TIP3   OH245529   0.903   2.915  14.754 -0.2919 -0.2820 -0.0566
 8013TIP3    H145530   0.878   2.918  14.847 -0.8474  0.7550 -0.2179
 8013TIP3    H245531   0.988   2.958  14.751 -0.5668  0.2664 -0.1063
 8014TIP3   OH245532   2.145   6.219   2.462 -0.9302  0.0091 -0.2394
 8014TIP3    H145533   2.055   6.214   2.494 -1.0383 -1.3208 -0.6845
 8014TIP3    H245534   2.149   6.156   2.390 -0.2145  1.6364 -1.6973
 8015TIP3   OH245535   5.988   5.508  15.451 -0.1794  0.5783 -0.5658
 8015TIP3    H145536   5.924   5.487  15.519 -0.7600 -0.9825 -1.5438
 8015TIP3    H245537   6.072   5.479  15.487 -0.7362 -2.0954 -1.1977
 8016TIP3   OH245538   2.891   4.225  15.018 -0.7048  0.0319 -0.2184
 8016TIP3    H145539   2.985   4.223  15.034 -1.0187 -0.7673  1.8254
 8016TIP3    H245540   2.870   4.318  15.007  0.3864  0.1677 -1.2623
 8017TIP3   OH245541   0.249   4.479   1.350 -0.2384  0.0455  0.0859
 8017TIP3    H145542   0.158   4.506   1.337 -0.2139  1.0801  1.7324
 8017TIP3    H245543   0.247   4.384   1.344 -1.3033  0.0953 -0.6221
 8018TIP3   OH245544   1.183   4.139   4.401  0.8202  0.5902  0.0149
 8018TIP3    H145545   1.100   4.097   4.425  1.2708 -0.9556 -0.9659
 8018TIP3    H245546   1.194   4.118   4.308  1.2817  2.6205 -0.4270
 8019TIP3   OH245547   0.251   4.217   4.826  0.1670  0.3175  0.2123
 8019TIP3    H145548   0.236   4.265   4.907  0.1677  0.8728 -0.1157
 8019TIP3    H245549   0.269   4.127   4.855  0.9547  0.6743  0.8721
 8020TIP3   OH245550   6.525   2.366  12.600  0.0798  0.2625  0.7418
 8020TIP3    H145551   6.588   2.344  12.532 -1.0792 -1.6794  0.2110
 8020TIP3    H245552   6.490   2.452  12.574 -0.3230 -0.4188 -1.1417
 8021TIP3   OH245553   6.159   3.960  10.373 -0.0344 -0.0524 -0.0827
 8021TIP3    H145554   6.233   4.017  10.352  0.0384 -0.3925 -0.7531
 8021TIP3    H245555   6.086   3.995  10.323  0.6448 -2.1602 -2.7774
 8022TIP3   OH245556   5.385   5.552  13.326  0.2053  0.1446  0.0079
 8022TIP3    H145557   5.337   5.545  13.409 -0.6957  5.3057  0.2233
 8022TIP3    H245558   5.338   5.492  13.267 -1.1760 -1.2382  2.3353
 8023TIP3   OH245559   5.112   4.355  13.489  0.5332  0.0713 -0.3895
 8023TIP3    H145560   5.109   4.341  13.584  0.7081  0.6677 -0.2883
 8023TIP3    H245561   5.080   4.444  13.478 -1.0408 -0.5465 -1.0499
 8024TIP3   OH245562   6.117   1.338  11.638 -0.6689  0.4750  0.1086
 8024TIP3    H145563   6.116   1.320  11.543  0.1982  2.8741 -0.4111
 8024TIP3    H245564   6.207   1.364  11.657 -0.6237 -0.7575  1.8076
 8025TIP3   OH245565   6.342   5.577  14.510  0.1541 -0.4982 -0.3006
 8025TIP3    H145566   6.418   5.632  14.493  1.2908 -1.5789  1.0424
 8025TIP3    H245567   6.372   5.513  14.574 -1.7331 -1.3340 -0.1702
 8026TIP3   OH245568   6.519   1.664  14.868  0.2042 -0.1816  0.3561
 8026TIP3    H145569   6.431   1.654  14.905  0.2074 -0.9563  0.1723
 8026TIP3    H245570   6.505   1.674  14.774  0.2557  0.8214  0.4406
 8027TIP3   OH245571   6.102   5.358  11.549  0.4861  0.1744  0.3710
 8027TIP3    H145572   6.008   5.339  11.558  0.6618 -0.1165  1.7420
 8027TIP3    H245573   6.142   5.323  11.628  2.2506 -2.5560 -1.5599
 8028TIP3   OH245574   0.361   6.330   2.498  0.0606 -0.3476  1.0538
 8028TIP3    H145575   0.390   6.264   2.435  0.2658 -0.0938  0.8787
 8028TIP3    H245576   0.326   6.279   2.572 -1.1621 -0.6378  0.2950
 8029TIP3   OH245577   3.283   1.670   3.317  0.5325 -0.0515 -0.4061
 8029TIP3    H145578   3.372   1.705   3.322  0.9335 -1.2028  1.3516
 8029TIP3    H245579   3.230   1.732   3.367  0.6442 -0.1974 -0.1029
 8030TIP3   OH245580   2.953   3.454  14.551  0.0272  0.2147 -0.2540
 8030TIP3    H145581   2.884   3.514  14.521 -1.3708 -1.1710  0.0442
 8030TIP3    H245582   2.924   3.368  14.520  1.1165 -0.5444  0.7643
 8031TIP3   OH245583   0.410   0.676   0.410 -0.0899 -0.4232  0.2260
 8031TIP3    H145584   0.416   0.660   0.504  0.3030  0.0154  0.2780
 8031TIP3    H245585   0.410   0.771   0.402  0.8236 -0.4481 -0.2653
 8032TIP3   OH245586   5.953   5.370  12.847 -0.5987  0.1438 -0.2881
 8032TIP3    H145587   5.866   5.406  12.864  0.6689  2.6393  1.6230
 8032TIP3    H245588   5.984   5.415  12.768 -1.1940 -1.1298 -1.2742
 8033TIP3   OH245589   1.076   5.926   4.253 -0.1189  0.0412 -0.8410
 8033TIP3    H145590   1.055   5.839   4.218 -0.7699 -0.1937  0.0887
 8033TIP3    H245591   1.165   5.943   4.223  0.6681 -1.6830  0.3173
 8034TIP3   OH245592   5.287   6.144  11.046  0.2286 -1.0148  0.5208
 8034TIP3    H145593   5.218   6.077  11.045  2.9160 -4.0446 -0.7893
 8034TIP3    H245594   5.358   6.104  11.095  1.8729  1.0429 -0.0647
 8035TIP3   OH245595   5.129   4.773   0.546  0.0128 -0.1928 -0.2868
 8035TIP3    H145596   5.140   4.729   0.461  1.7543 -1.4251  0.5173
 8035TIP3    H245597   5.167   4.712   0.609 -2.6801 -0.0259  1.6265
 8036TIP3   OH245598   5.487   0.462  11.212 -0.0198  0.2943  0.4696
 8036TIP3    H145599   5.447   0.384  11.250 -1.6614  0.3166 -1.0659
 8036TIP3    H245600   5.561   0.429  11.162 -1.7046 -0.5747 -1.5882
 8037TIP3   OH245601   2.329   5.708   5.543  0.0585  0.3570  0.1076
 8037TIP3    H145602   2.281   5.702   5.461 -1.6643  1.0810  1.0157
 8037TIP3    H245603   2.406   5.653   5.530 -1.8223 -2.1971 -0.8474
 8038TIP3   OH245604   5.515   5.672  16.379 -0.6673  0.3520  0.7352
 8038TIP3    H145605   5.461   5.643  16.452 -1.6742  0.3842  0.0303
 8038TIP3    H245606   5.571   5.741  16.416  0.5699 -1.2797  2.0284
 8039TIP3   OH245607   4.054   0.816   4.480 -0.4977  0.4834 -0.0124
 8039TIP3    H145608   4.106   0.867   4.417 -1.5087  0.2846 -1.0433
 8039TIP3    H245609   4.116   0.752   4.516 -0.2139 -0.4135 -1.9523
 8040TIP3   OH245610   4.774   2.779  16.684 -0.1566  0.0232 -0.0595
 8040TIP3    H145611   4.778   2.801  16.591  0.1557 -0.1604 -0.0872
 8040TIP3    H245612   4.845   2.717  16.698 -0.3301 -0.1066  0.2605
 8041TIP3   OH245613   6.366   4.917   1.187 -0.2320  0.1839 -0.3994
 8041TIP3    H145614   6.292   4.953   1.138  0.8718  1.5068 -1.1880
 8041TIP3    H245615   6.442   4.931   1.130  0.4284 -2.7535 -0.3927
 8042TIP3   OH245616   5.298   6.641  13.360  0.2800  0.2084 -0.2416
 8042TIP3    H145617   5.279   6.601  13.445  1.8945 -2.2103 -0.9467
 8042TIP3    H245618   5.391   6.662  13.363  0.0578  1.4254 -0.9411
 8043TIP3   OH245619   4.751   5.546   2.276 -0.6101  0.2283 -0.1913
 8043TIP3    H145620   4.766   5.493   2.198  2.1654  0.3933  0.1487
 8043TIP3    H245621   4.762   5.637   2.246  0.9257  0.2726  0.4216
 8044TIP3   OH245622   5.677   3.525  16.424 -0.3828  0.4316  0.0311
 8044TIP3    H145623   5.755   3.503  16.475 -0.8526 -0.7033  0.2952
 8044TIP3    H245624   5.605   3.514  16.486 -0.9200 -0.4755 -0.7414
 8045TIP3   OH245625   3.291   0.727   5.830 -0.0854  0.3162 -0.0799
 8045TIP3    H145626   3.211   0.676   5.820  0.3029 -0.3162 -0.0166
 8045TIP3    H245627   3.334   0.690   5.906  0.6150  0.1757 -0.5366
 8046TIP3   OH245628   1.781   6.184  10.997 -0.8809  0.2946  0.2495
 8046TIP3    H145629   1.735   6.110  10.958  0.5224 -0.8562  0.7213
 8046TIP3    H245630   1.843   6.212  10.930 -0.5289  0.2284  0.5449
 8047TIP3   OH245631   2.810   5.814  13.095 -0.3093 -0.1127 -0.3990
 8047TIP3    H145632   2.903   5.796  13.106 -0.6474 -1.2782  0.8578
 8047TIP3    H245633   2.801   5.842  13.004  1.1951 -0.3918 -0.6562
 8048TIP3   OH245634   2.335   2.892   2.480 -0.0006  0.0773  0.5198
 8048TIP3    H145635   2.343   2.861   2.570 -1.0910  0.6016  0.8193
 8048TIP3    H245636   2.329   2.813   2.427 -0.5242 -0.2351  1.0381
 8049TIP3   OH245637   2.760   3.677   1.222 -0.6800  0.6753 -0.3018
 8049TIP3    H145638   2.709   3.630   1.288 -0.0992  1.0568  0.4248
 8049TIP3    H245639   2.768   3.766   1.255  0.2912  0.6712 -0.4972
 8050TIP3   OH245640   1.897   1.652  11.661 -0.6031 -0.0748 -0.3725
 8050TIP3    H145641   1.883   1.606  11.578 -2.6438  1.0987 -0.7662
 8050TIP3    H245642   1.971   1.710  11.644 -0.2865 -0.6444 -1.0116
 8051TIP3   OH245643   4.027   0.979  16.267  0.0681 -0.1170  0.1676
 8051TIP3    H145644   3.947   1.028  16.251 -0.4720 -1.1519 -0.4266
 8051TIP3    H245645   4.092   1.045  16.290 -0.9815  0.7251  0.7633
 8052TIP3   OH245646   1.125   2.009   1.124 -0.1081  0.1296 -0.2812
 8052TIP3    H145647   1.090   2.097   1.109  2.2762  0.9176 -1.8454
 8052TIP3    H245648   1.213   2.012   1.085  1.0712 -2.1578  1.9297
 8053TIP3   OH245649   1.429   4.236  10.647 -0.1477  0.0441 -0.2503
 8053TIP3    H145650   1.377   4.156  10.646 -0.9367  0.5367  0.0918
 8053TIP3    H245651   1.365   4.306  10.629  0.2950  0.7069  0.6898
 8054TIP3   OH245652   3.338   1.726   2.498  0.5641 -0.4806 -0.2185
 8054TIP3    H145653   3.353   1.736   2.404  1.0334  0.5816 -0.0532
 8054TIP3    H245654   3.333   1.816   2.530 -2.6611 -0.7356  0.3115
 8055TIP3   OH245655   3.304   5.085  11.247  1.0358 -0.3985  0.3766
 8055TIP3    H145656   3.287   5.034  11.167 -3.0870 -1.4265  1.6974
 8055TIP3    H245657   3.247   5.161  11.240 -0.5092 -1.2097  2.8379
 8056TIP3   OH245658   0.202   6.790   5.045 -0.2197  0.1469  0.6082
 8056TIP3    H145659   0.109   6.803   5.029  0.1390  0.8485 -1.1994
 8056TIP3    H245660   0.244   6.814   4.962  1.5045 -1.0256  1.0808
 8057TIP3   OH245661   0.062   1.142  14.762 -0.5488 -0.1306 -0.1670
 8057TIP3    H145662   0.100   1.229  14.769  1.2149 -0.9232  0.7332
 8057TIP3    H245663  -0.026   1.157  14.727 -0.9397  2.1340  1.5683
 8058TIP3   OH245664   3.818   5.326  11.367  0.1688 -0.0969  0.1781
 8058TIP3    H145665   3.847   5.287  11.450 -0.4095 -2.0897 -0.4906
 8058TIP3    H245666   3.731   5.288  11.353  0.4714 -0.2259 -1.5895
 8059TIP3   OH245667   4.880   6.247  13.490 -0.3661  0.5817 -0.5503
 8059TIP3    H145668   4.876   6.157  13.459 -0.2903  0.6546 -0.7698
 8059TIP3    H245669   4.894   6.299  13.411 -0.5422  0.7962 -0.4383
 8060TIP3   OH245670   2.823   2.636  14.633  0.3708  0.5004  0.2163
 8060TIP3    H145671   2.902   2.616  14.683 -0.4010 -2.3999  0.5003
 8060TIP3    H245672   2.827   2.575  14.559 -1.3196  0.6763 -0.0434
 8061TIP3   OH245673   0.546   0.603   2.889 -0.1911 -0.1330  0.0440
 8061TIP3    H145674   0.527   0.526   2.836 -2.1327 -0.1133  0.6436
 8061TIP3    H245675   0.538   0.573   2.979  0.9589  0.3376  0.3164
 8062TIP3   OH245676   2.485   6.631  12.557  0.3822 -0.0015  0.0065
 8062TIP3    H145677   2.521   6.637  12.646 -2.3821  0.6142  1.2138
 8062TIP3    H245678   2.390   6.624  12.571 -0.0298 -1.8811 -2.8769
 8063TIP3   OH245679   5.495   6.805  15.995  0.1971 -0.4106 -0.1489
 8063TIP3    H145680   5.536   6.788  16.080  1.7458 -1.8331 -1.1136
 8063TIP3    H245681   5.413   6.848  16.016  1.7216  1.6935  1.9538
 8064TIP3   OH245682   3.553   3.847  15.165 -0.2903 -0.2522  0.4417
 8064TIP3    H145683   3.518   3.850  15.254 -0.5349  0.0936  0.3331
 8064TIP3    H245684   3.634   3.898  15.169 -1.1718  1.2500  0.0808
 8065TIP3   OH245685   1.665   2.550   5.023 -0.3874  0.0762  0.4072
 8065TIP3    H145686   1.691   2.483   5.085 -1.7087 -0.4652  0.3937
 8065TIP3    H245687   1.637   2.624   5.077  3.7591  1.8723  0.5029
 8066TIP3   OH245688   4.292   5.755   0.992  0.3339  0.0068 -0.3571
 8066TIP3    H145689   4.331   5.673   0.963  1.5668  1.1565 -2.1879
 8066TIP3    H245690   4.358   5.794   1.049  1.2323  1.1557 -2.0808
 8067TIP3   OH245691   0.711   4.688  11.156 -1.0546  0.6482  0.3880
 8067TIP3    H145692   0.665   4.767  11.129 -1.0485  1.6892  3.1773
 8067TIP3    H245693   0.757   4.712  11.236 -0.0931 -1.8728  0.6977
 8068TIP3   OH245694   5.928   5.704   3.639 -0.7298 -0.3251  0.3720
 8068TIP3    H145695   5.938   5.662   3.553 -0.9108 -0.6297  0.5006
 8068TIP3    H245696   5.980   5.785   3.632 -1.6279  0.1990 -0.3856
 8069TIP3   OH245697   4.022   0.295   1.186  0.0417  0.7271 -0.0723
 8069TIP3    H145698   4.016   0.217   1.241 -0.6908 -0.5712 -1.8938
 8069TIP3    H245699   4.064   0.264   1.106 -0.8275  2.0474 -1.0764
 8070TIP3   OH245700   4.175   1.515   0.621 -0.7788 -0.3431 -0.3729
 8070TIP3    H145701   4.206   1.430   0.654 -1.3596 -0.6786 -0.6745
 8070TIP3    H245702   4.243   1.577   0.647  1.3914 -1.3876 -3.0168
 8071TIP3   OH245703   6.444   4.689   4.109 -0.1376  0.4455 -0.3062
 8071TIP3    H145704   6.453   4.717   4.017  1.1506  0.7273 -0.1145
 8071TIP3    H245705   6.480   4.601   4.110  2.7932  1.5375  0.4574
 8072TIP3   OH245706   6.650   6.482   6.022  0.3355 -0.4313 -0.4877
 8072TIP3    H145707   6.662   6.573   6.046  1.8913 -0.5906 -0.5230
 8072TIP3    H245708   6.669   6.433   6.103  0.6705 -0.7596 -0.7591
 8073TIP3   OH245709   0.331   3.100  11.228  0.0861  0.1351 -0.4975
 8073TIP3    H145710   0.392   3.110  11.302  0.1003  0.2072 -0.5188
 8073TIP3    H245711   0.324   3.187  11.190  1.2961 -0.1819 -1.5405
 8074TIP3   OH245712   2.565   5.471   6.624 -0.2857 -0.2307  0.6876
 8074TIP3    H145713   2.592   5.389   6.582 -2.2720 -1.2694  1.3080
 8074TIP3    H245714   2.481   5.450   6.665 -0.8080  2.1172  0.9383
 8075TIP3   OH245715   5.978   1.315   5.566 -0.3778 -0.6953  0.2510
 8075TIP3    H145716   5.926   1.305   5.646 -0.3871  0.6005  0.4231
 8075TIP3    H245717   6.068   1.322   5.597 -0.5214  1.4558  0.3146
 8076TIP3   OH245718   4.839   0.496   0.146 -0.1422  0.8872  0.0625
 8076TIP3    H145719   4.920   0.533   0.109  0.4071  1.5333  1.8215
 8076TIP3    H245720   4.794   0.457   0.071 -0.4255  4.4992 -1.9135
 8077TIP3   OH245721   5.460   4.531   3.799  0.1368  0.1408  0.3990
 8077TIP3    H145722   5.500   4.453   3.837 -0.6475 -0.3371  0.2552
 8077TIP3    H245723   5.493   4.603   3.853 -0.1393 -0.4178  1.3311
 8078TIP3   OH245724   5.877   4.930  16.617  0.3700  0.1569  0.4239
 8078TIP3    H145725   5.904   5.004  16.563 -0.4124 -1.5432 -2.5246
 8078TIP3    H245726   5.958   4.882  16.636  0.5093 -0.0380 -0.6015
 8079TIP3   OH245727   2.499   2.644  12.956 -0.6184 -0.2492  0.4959
 8079TIP3    H145728   2.442   2.630  12.880 -1.4927  0.3018  1.0366
 8079TIP3    H245729   2.505   2.739  12.964 -1.7123 -0.2658  1.9592
 8080TIP3   OH245730   2.744   2.118  13.572 -0.2299  0.1029 -0.3982
 8080TIP3    H145731   2.818   2.154  13.621  0.8828 -0.1121 -1.8455
 8080TIP3    H245732   2.727   2.183  13.503 -0.5516 -0.4396 -0.8394
 8081TIP3   OH245733   2.446   1.313  13.258 -0.5691  0.5143  0.2792
 8081TIP3    H145734   2.417   1.403  13.240 -0.9589 -0.0688 -2.4931
 8081TIP3    H245735   2.526   1.302  13.206 -1.3358 -1.1498 -0.6372
 8082TIP3   OH245736   2.964   5.998  12.400 -0.1268 -0.8884 -0.2797
 8082TIP3    H145737   2.947   6.068  12.463  0.8036 -0.5785 -0.3659
 8082TIP3    H245738   2.877   5.963  12.381 -0.7280  0.8307 -0.9193
 8083TIP3   OH245739   2.624   0.112   1.348 -0.5702  0.2128  0.1844
 8083TIP3    H145740   2.565   0.069   1.286 -0.6160  1.6654 -0.8222
 8083TIP3    H245741   2.620   0.058   1.426  0.3046 -2.3004 -1.3946
 8084TIP3   OH245742   2.589   1.528   3.199  0.6125  0.4626  0.3622
 8084TIP3    H145743   2.501   1.503   3.228  0.8338 -1.2461 -0.3282
 8084TIP3    H245744   2.647   1.492   3.265  0.9032 -0.1301 -0.2162
 8085TIP3   OH245745   6.443   1.277  12.414  0.0759 -0.6746 -0.1747
 8085TIP3    H145746   6.406   1.311  12.332  1.7718  2.1055  0.0717
 8085TIP3    H245747   6.372   1.285  12.478 -0.2045  0.5991 -0.6114
 8086TIP3   OH245748   2.560   3.097  15.818 -0.1551  0.2129  0.1113
 8086TIP3    H145749   2.469   3.070  15.809  0.1962 -1.0212  0.0149
 8086TIP3    H245750   2.610   3.017  15.804  0.9574  0.9024  0.0006
 8087TIP3   OH245751   3.174   1.772  13.380  0.2085  0.6273  0.2806
 8087TIP3    H145752   3.183   1.679  13.401 -1.1807  0.6357  0.9977
 8087TIP3    H245753   3.143   1.813  13.461  0.1819  1.6111 -0.2051
 8088TIP3   OH245754   1.778   0.248  16.297  0.3492 -0.4615 -0.2731
 8088TIP3    H145755   1.702   0.283  16.344  1.8643 -0.1362  2.0550
 8088TIP3    H245756   1.798   0.315  16.232 -0.0660  0.4342  0.5048
 8089TIP3   OH245757   6.510   5.355   5.882  0.0413 -0.0324 -0.4672
 8089TIP3    H145758   6.585   5.357   5.823  1.2660  0.6853  1.0445
 8089TIP3    H245759   6.459   5.279   5.853  2.6069 -2.0681 -0.0699
 8090TIP3   OH245760   6.194   5.446   4.792  0.5082 -0.2476 -0.1338
 8090TIP3    H145761   6.196   5.448   4.887  0.9405 -0.1730 -0.1432
 8090TIP3    H245762   6.172   5.355   4.770 -0.4250 -0.0746  0.0427
 8091TIP3   OH245763   2.243   4.385   6.268  0.0343  0.5392 -0.2952
 8091TIP3    H145764   2.174   4.327   6.237 -0.5030  0.9029  0.1797
 8091TIP3    H245765   2.213   4.413   6.355 -1.2237  3.7939 -1.5811
 8092TIP3   OH245766   6.501   5.369   2.994 -0.2842 -0.2361  0.3462
 8092TIP3    H145767   6.527   5.458   3.018 -1.1693  0.5930 -1.5825
 8092TIP3    H245768   6.555   5.348   2.918 -1.1268 -0.7618 -0.1151
 8093TIP3   OH245769   0.558   5.235  13.725 -0.0175 -0.3455  0.5583
 8093TIP3    H145770   0.500   5.207  13.795 -0.2509 -1.3027 -0.0063
 8093TIP3    H245771   0.522   5.195  13.646 -0.5594  1.7712 -0.3599
 8094TIP3   OH245772   1.303   0.909  13.355 -0.3797 -0.1839  0.4651
 8094TIP3    H145773   1.298   0.943  13.265 -0.7790  0.2354  0.6450
 8094TIP3    H245774   1.217   0.870  13.370  0.0070 -1.1445  0.3234
 8095TIP3   OH245775   3.567   3.743   3.969  0.5884  0.4139  0.2436
 8095TIP3    H145776   3.588   3.654   3.939 -1.6269  0.5561 -2.0415
 8095TIP3    H245777   3.557   3.793   3.888  1.2293  2.6558  1.4782
 8096TIP3   OH245778   4.357   0.114  17.115 -0.1051  0.0264 -0.4099
 8096TIP3    H145779   4.359   0.051  17.187 -1.2463 -2.0483 -2.0668
 8096TIP3    H245780   4.299   0.184  17.146 -1.3280 -1.2724  0.3767
 8097TIP3   OH245781   4.419   0.359  14.784  0.4460 -0.0040  0.4412
 8097TIP3    H145782   4.469   0.398  14.712 -1.0799 -1.5160 -1.5622
 8097TIP3    H245783   4.472   0.285  14.812  1.0747  0.6231  0.9458
 8098TIP3   OH245784   5.699   2.271   3.220  1.0479  0.5115  0.1537
 8098TIP3    H145785   5.695   2.332   3.294  0.8852 -0.0643  0.6288
 8098TIP3    H245786   5.715   2.185   3.261  1.9524  0.3314 -0.5485
 8099TIP3   OH245787   4.879   5.984   2.808 -0.2513  0.8708  0.1772
 8099TIP3    H145788   4.793   6.008   2.775 -0.3239  0.6457  0.1997
 8099TIP3    H245789   4.868   5.895   2.842  0.5417 -0.1489 -1.9961
 8100TIP3   OH245790   6.167   0.626   2.916 -0.4552  0.1131 -0.1358
 8100TIP3    H145791   6.210   0.563   2.974 -0.2438  0.0933 -0.3112
 8100TIP3    H245792   6.173   0.709   2.962 -0.1919  0.1174 -0.1760
 8101TIP3   OH245793   0.786   5.229  14.329  0.7088 -0.1473  0.1702
 8101TIP3    H145794   0.764   5.280  14.407  0.7744 -0.9268  0.7056
 8101TIP3    H245795   0.878   5.251  14.312  0.9064 -0.5047  0.7338
 8102TIP3   OH245796   5.912   0.439   1.242  0.0283  0.0262 -0.1908
 8102TIP3    H145797   5.885   0.408   1.328 -1.4600 -1.3659 -1.0839
 8102TIP3    H245798   5.846   0.403   1.182  0.6282  1.5158 -1.8326
 8103TIP3   OH245799   4.529   5.227  11.389  0.0368 -0.2021 -0.3248
 8103TIP3    H145800   4.438   5.199  11.389 -0.1689  0.4229 -1.5105
 8103TIP3    H245801   4.578   5.155  11.349  0.1765 -0.8173  0.9056
 8104TIP3   OH245802   1.715   5.124   4.775  0.3953 -0.0503 -0.0151
 8104TIP3    H145803   1.714   5.213   4.738 -1.2818 -0.2760 -0.6322
 8104TIP3    H245804   1.635   5.084   4.740  0.7047 -1.5324  0.9216
 8105TIP3   OH245805   5.801   0.565   0.822  0.0479  0.2116  0.1177
 8105TIP3    H145806   5.736   0.621   0.780 -0.4705 -1.3327 -1.2196
 8105TIP3    H245807   5.832   0.507   0.752  0.3357 -1.3892  1.5059
 8106TIP3   OH245808   0.491   1.107   2.337 -0.3599  0.0209 -0.1774
 8106TIP3    H145809   0.523   1.123   2.248  1.2637 -1.1232  0.1680
 8106TIP3    H245810   0.436   1.029   2.329 -1.2658  0.6576 -0.3681
 8107TIP3   OH245811   1.247   6.372  16.809  0.0890 -0.8519  0.1895
 8107TIP3    H145812   1.191   6.424  16.866  0.8953 -0.2630  0.4653
 8107TIP3    H245813   1.302   6.437  16.765  0.6741 -1.4308  0.0566
 8108TIP3   OH245814   1.987   3.185   5.942 -0.1241 -0.1325  0.0788
 8108TIP3    H145815   1.929   3.162   5.869 -1.9359 -1.4004  1.8075
 8108TIP3    H245816   1.960   3.274   5.966 -2.1712 -1.0637  1.4985
 8109TIP3   OH245817   4.669   5.014   3.420 -0.1822  0.0123  0.1826
 8109TIP3    H145818   4.707   5.098   3.397 -0.0337 -0.4163 -1.2153
 8109TIP3    H245819   4.620   5.031   3.501 -0.2570  1.4509 -0.1399
 8110TIP3   OH245820   2.282   6.352   0.227 -0.1015  0.6811 -0.1555
 8110TIP3    H145821   2.315   6.368   0.316 -1.4587 -0.9795  0.7038
 8110TIP3    H245822   2.195   6.392   0.226 -1.3599 -1.8887  0.3221
 8111TIP3   OH245823   0.224   6.571   5.455  0.0842 -0.4404 -0.3280
 8111TIP3    H145824   0.233   6.661   5.424 -1.7270 -0.1182  0.0060
 8111TIP3    H245825   0.229   6.578   5.551  1.7471 -0.9541 -0.3382
 8112TIP3   OH245826   4.561   1.582   2.308 -0.6218 -0.3024  0.4879
 8112TIP3    H145827   4.468   1.566   2.319 -0.5774 -1.2539 -0.4273
 8112TIP3    H245828   4.576   1.575   2.214  0.3574 -0.0449  0.6125
 8113TIP3   OH245829   0.093   5.913  12.665  0.1673 -0.7953 -0.1909
 8113TIP3    H145830   0.081   5.819  12.678 -0.1058 -0.7202  0.1200
 8113TIP3    H245831   0.144   5.920  12.584  0.4489 -1.2175 -0.0491
 8114TIP3   OH245832   1.739   6.063  16.739  0.1998 -0.1891  0.3393
 8114TIP3    H145833   1.776   6.015  16.813 -0.4344 -0.5730  0.4236
 8114TIP3    H245834   1.653   6.093  16.771  1.0715  2.1347  0.7424
 8115TIP3   OH245835   2.935   3.958  16.073  0.0893 -0.1783 -0.6783
 8115TIP3    H145836   2.907   4.049  16.075 -0.7852 -0.4342 -1.0519
 8115TIP3    H245837   2.958   3.941  15.982 -0.7807 -0.6314 -0.8224
 8116TIP3   OH245838   4.470   1.110   4.708  0.3584  0.1206  0.4017
 8116TIP3    H145839   4.455   1.199   4.740  3.5261  1.4909 -1.4146
 8116TIP3    H245840   4.399   1.094   4.646 -0.4488  1.2091  1.0117
 8117TIP3   OH245841   2.909   3.428   1.011  0.4491 -0.3951  0.1374
 8117TIP3    H145842   2.866   3.512   0.998  1.4374 -0.1428 -1.8383
 8117TIP3    H245843   2.988   3.449   1.060  0.5980 -0.2057 -0.1839
 8118TIP3   OH245844   5.563   0.854  12.061  0.1923  0.1018  0.9429
 8118TIP3    H145845   5.542   0.940  12.097 -0.7302  1.5117 -2.5462
 8118TIP3    H245846   5.479   0.820  12.031  1.0231 -0.2169 -1.1912
 8119TIP3   OH245847   0.718   5.166  12.131  0.2080 -0.4786 -0.5196
 8119TIP3    H145848   0.657   5.202  12.196 -0.3527  1.7999 -2.1523
 8119TIP3    H245849   0.664   5.110  12.076  0.5577 -1.9127  0.5283
 8120TIP3   OH245850   1.980   4.536  11.733  0.3844  0.2224  0.2671
 8120TIP3    H145851   2.020   4.450  11.722 -0.4014 -0.0218 -0.8257
 8120TIP3    H245852   2.040   4.595  11.687 -0.1494 -0.0460 -0.7877
 8121TIP3   OH245853   4.734   0.689  12.747  0.1979  0.4048  0.8533
 8121TIP3    H145854   4.783   0.729  12.819 -0.0114  3.6878 -0.6552
 8121TIP3    H245855   4.802   0.653  12.690  0.5536  0.4964  1.2146
 8122TIP3   OH245856   3.869   3.329  13.048 -0.4011 -0.3126  1.0904
 8122TIP3    H145857   3.803   3.260  13.057 -0.6350 -0.5310 -1.5559
 8122TIP3    H245858   3.819   3.410  13.050 -0.3677 -0.3121  2.1654
 8123TIP3   OH245859   2.211   4.195  16.053 -0.2796  0.0523 -0.0624
 8123TIP3    H145860   2.250   4.129  15.996 -0.0028 -0.2560  0.4861
 8123TIP3    H245861   2.132   4.154  16.087 -0.2765  0.1217  0.0288
 8124TIP3   OH245862   1.149   1.442  16.429  0.1446  0.8160  0.7114
 8124TIP3    H145863   1.111   1.387  16.361 -0.1302  1.7201  0.1123
 8124TIP3    H245864   1.162   1.527  16.387  0.2238  1.3207  1.7126
 8125TIP3   OH245865   0.265   4.694   2.045  0.4797  0.0791  0.1154
 8125TIP3    H145866   0.194   4.681   2.108  0.7811  2.3483  1.0385
 8125TIP3    H245867   0.221   4.712   1.962 -0.0367  0.9406  0.5632
 8126TIP3   OH245868   5.248   5.847   3.317  0.5815  0.1689 -0.0270
 8126TIP3    H145869   5.259   5.919   3.254 -0.7108  1.0328  0.7069
 8126TIP3    H245870   5.278   5.882   3.400  1.9376 -0.8581 -0.0419
 8127TIP3   OH245871   3.340   2.111  15.202  0.0253  0.9709 -0.5403
 8127TIP3    H145872   3.417   2.120  15.258  0.3266 -1.9419 -0.2993
 8127TIP3    H245873   3.270   2.157  15.248  1.3280  2.7102 -0.2165
 8128TIP3   OH245874   0.353   1.764  13.065 -0.6413  0.0507 -0.6231
 8128TIP3    H145875   0.263   1.740  13.047 -0.5875 -1.1537  0.5060
 8128TIP3    H245876   0.385   1.804  12.984 -2.4571  1.4012 -0.7083
 8129TIP3   OH245877   6.716   6.558  12.559 -0.4020 -0.3583 -0.0101
 8129TIP3    H145878   6.786   6.622  12.557  0.3718 -1.2005 -0.6217
 8129TIP3    H245879   6.713   6.526  12.649  0.8510 -1.2066 -0.2401
 8130TIP3   OH245880   5.800   5.070  10.979 -0.5069 -0.6589 -0.6616
 8130TIP3    H145881   5.763   5.016  10.909 -1.2724 -2.5863  1.0796
 8130TIP3    H245882   5.725   5.116  11.016 -0.2461 -0.2804 -0.5984
 8131TIP3   OH245883   6.074   5.416  16.087 -0.0010  0.6718 -0.5009
 8131TIP3    H145884   6.139   5.425  16.157 -0.7686  0.4754  0.2607
 8131TIP3    H245885   6.120   5.368  16.018  0.8566  1.1052 -0.2505
 8132TIP3   OH245886   0.656   2.986   0.357  0.6689  0.4020 -0.4253
 8132TIP3    H145887   0.563   2.994   0.333  1.0784 -0.1973 -2.4136
 8132TIP3    H245888   0.655   2.937   0.439 -0.7898  0.7854 -0.1767
 8133TIP3   OH245889   4.219   4.589  14.668 -0.3316 -0.3141 -0.3618
 8133TIP3    H145890   4.217   4.639  14.750  1.5816 -0.1667 -0.3655
 8133TIP3    H245891   4.278   4.515  14.687  0.9335  0.2628 -1.8667
 8134TIP3   OH245892   6.798   6.242  11.496 -0.4551  0.0742 -0.1416
 8134TIP3    H145893   6.764   6.323  11.459  0.4948  0.4136 -0.3008
 8134TIP3    H245894   6.884   6.265  11.531 -1.1648 -0.3149  2.0011
 8135TIP3   OH245895   0.811   4.793   4.282 -0.4289  0.1163 -0.6505
 8135TIP3    H145896   0.849   4.807   4.369 -0.7829  1.9186 -0.7446
 8135TIP3    H245897   0.728   4.842   4.284  0.1004  1.1838 -2.3452
 8136TIP3   OH245898   1.673   0.264  14.870 -0.2870  0.7661  0.4557
 8136TIP3    H145899   1.643   0.243  14.958 -1.8516  1.4873  0.1292
 8136TIP3    H245900   1.670   0.360  14.867 -1.2460  0.7156 -0.6952
 8137TIP3   OH245901   6.279   3.022   4.726  0.4091  0.3559 -0.6832
 8137TIP3    H145902   6.294   3.005   4.633 -3.1949 -0.7332 -1.1989
 8137TIP3    H245903   6.254   3.114   4.730 -1.3137 -0.0671 -1.1321
 8138TIP3   OH245904   5.934   2.767  14.154  0.3619 -0.0579 -0.0333
 8138TIP3    H145905   5.884   2.697  14.195  0.4621 -0.2623 -0.2586
 8138TIP3    H245906   5.966   2.820  14.227 -0.9686  0.6263  0.0893
 8139TIP3   OH245907   5.647   1.398   0.828 -0.1394 -0.6267 -0.0698
 8139TIP3    H145908   5.730   1.382   0.783 -0.2912  0.0169 -0.5932
 8139TIP3    H245909   5.580   1.385   0.761 -0.3598  0.4426 -0.0680
 8140TIP3   OH245910   0.978   3.501  15.735 -0.0890 -0.5603 -0.3465
 8140TIP3    H145911   0.923   3.564  15.689 -1.4234 -1.0465  0.5145
 8140TIP3    H245912   0.979   3.531  15.826  1.1360 -0.5400 -0.3392
 8141TIP3   OH245913   3.170   1.184  13.492 -0.0120  0.3251  0.6044
 8141TIP3    H145914   3.171   1.170  13.587 -2.2124 -2.8908  0.3225
 8141TIP3    H245915   3.098   1.245  13.478  1.3795  2.1515  1.0259
 8142TIP3   OH245916   2.545   2.248   1.121  0.1922 -0.4550 -0.2952
 8142TIP3    H145917   2.512   2.276   1.036  1.5704 -0.6271 -0.9183
 8142TIP3    H245918   2.498   2.166   1.139 -0.1829 -0.3654 -0.8477
 8143TIP3   OH245919   0.829   0.258  16.408  0.1151  0.2598 -0.2593
 8143TIP3    H145920   0.821   0.353  16.410  0.4507  0.2859  1.2620
 8143TIP3    H245921   0.739   0.226  16.408  0.0004  0.5610 -0.9494
 8144TIP3   OH245922   1.791   6.324   0.838  0.2160 -0.3431 -0.2084
 8144TIP3    H145923   1.811   6.270   0.762 -1.3818 -0.6294 -0.4391
 8144TIP3    H245924   1.798   6.264   0.913 -1.8909 -1.0200 -0.4914
 8145TIP3   OH245925   0.268   2.183  12.656 -0.2013 -0.2337 -0.0239
 8145TIP3    H145926   0.275   2.228  12.572 -1.2905 -0.2062 -0.1159
 8145TIP3    H245927   0.312   2.240  12.718 -1.9900  1.2594 -0.0386
 8146TIP3   OH245928   4.339   2.329   1.835 -0.4377 -0.4750  0.7739
 8146TIP3    H145929   4.421   2.305   1.792 -0.3288 -1.5105  1.5142
 8146TIP3    H245930   4.271   2.298   1.776 -0.3761  1.9574 -0.7220
 8147TIP3   OH245931   2.397   6.780  11.694  0.3228  0.2288 -0.1166
 8147TIP3    H145932   2.375   6.723  11.768 -0.4765  0.0286 -0.5023
 8147TIP3    H245933   2.378   6.868  11.725 -2.1457  0.0018 -0.7815
 8148TIP3   OH245934   3.374   5.756   4.618  0.4708  0.2927  0.6550
 8148TIP3    H145935   3.413   5.743   4.532 -0.5064 -0.2218  0.2683
 8148TIP3    H245936   3.298   5.698   4.619  0.5628  0.1622  1.9357
 8149TIP3   OH245937   6.539   2.982   3.007 -0.0527 -0.1184  0.3188
 8149TIP3    H145938   6.552   3.077   3.010 -1.6116  0.1585 -0.7780
 8149TIP3    H245939   6.574   2.955   2.922  0.9190 -0.6430  0.8635
 8150TIP3   OH245940   1.004   1.309  13.598  0.0470 -0.9340 -0.8146
 8150TIP3    H145941   0.934   1.244  13.608  0.3384 -0.9837  1.8499
 8150TIP3    H245942   0.963   1.383  13.554 -1.4643 -1.2903 -0.0638
 8151TIP3   OH245943   5.928   2.462  16.802 -0.0335 -0.3927 -0.2604
 8151TIP3    H145944   5.867   2.529  16.771 -0.1348 -1.0053 -1.4338
 8151TIP3    H245945   6.014   2.504  16.795 -0.0963 -0.3688 -0.9809
 8152TIP3   OH245946   1.366   1.767  14.868  0.0695  0.1907 -0.0170
 8152TIP3    H145947   1.305   1.793  14.798  0.0952  0.9648  0.2379
 8152TIP3    H245948   1.317   1.779  14.949  0.5396  0.7726  0.1873
 8153TIP3   OH245949   6.321   3.890   0.386 -0.1314 -0.8144 -0.0914
 8153TIP3    H145950   6.247   3.912   0.442  0.4606 -1.4975  1.0050
 8153TIP3    H245951   6.396   3.884   0.446  0.1078 -3.9015 -0.5189
 8154TIP3   OH245952   3.052   1.798   3.467 -0.5772  0.3124 -1.3100
 8154TIP3    H145953   2.995   1.721   3.465  0.9495 -0.8824 -0.1365
 8154TIP3    H245954   3.002   1.864   3.515 -1.8129  0.0340 -2.1562
 8155TIP3   OH245955   0.722   1.893   1.430  0.0848 -0.3142 -0.1826
 8155TIP3    H145956   0.770   1.851   1.502 -0.8199 -0.9693  0.0541
 8155TIP3    H245957   0.630   1.881   1.452 -0.2492  2.1006  0.0530
 8156TIP3   OH245958   1.250   5.302   5.554 -0.6689 -0.0353  0.2212
 8156TIP3    H145959   1.279   5.214   5.528 -0.2412 -0.5038  2.1077
 8156TIP3    H245960   1.326   5.341   5.595 -1.1188  0.8842  0.2022
 8157TIP3   OH245961   6.043   2.076  12.803 -0.5941  0.5255  0.3711
 8157TIP3    H145962   6.089   1.997  12.776  0.5765  1.0310  0.8214
 8157TIP3    H245963   6.089   2.105  12.881 -1.6960  1.0546  0.8408
 8158TIP3   OH245964   3.356   5.585  13.849  0.2122 -0.0011  0.1553
 8158TIP3    H145965   3.425   5.524  13.874  0.5670  0.4256  0.2285
 8158TIP3    H245966   3.302   5.594  13.928 -1.8484 -2.8053 -0.7721
 8159TIP3   OH245967   0.973   5.818  14.465 -0.6641 -0.5091 -0.2178
 8159TIP3    H145968   0.930   5.903  14.455  0.9347  0.3095 -0.4602
 8159TIP3    H245969   0.984   5.808  14.560 -0.1748 -0.0880 -0.2291
 8160TIP3   OH245970   2.504   5.291   1.415  0.4982  0.3835  0.0038
 8160TIP3    H145971   2.462   5.236   1.349 -0.0194  1.2238 -0.3847
 8160TIP3    H245972   2.438   5.300   1.484  1.9523 -2.7609  2.0547
 8161TIP3   OH245973   2.942   5.522   1.795  0.1808 -0.1428  0.2753
 8161TIP3    H145974   2.879   5.560   1.734  0.7496 -0.2776 -0.4074
 8161TIP3    H245975   2.899   5.443   1.827  0.3338 -0.6829 -0.8246
 8162TIP3   OH245976   4.908   5.660   4.098  0.0754  0.7464  0.0653
 8162TIP3    H145977   4.872   5.619   4.019  0.3553  0.8135 -0.0993
 8162TIP3    H245978   5.002   5.668   4.080  0.6343 -1.6972  1.4486
 8163TIP3   OH245979   3.588   6.657   0.630  0.2900 -0.0814  0.1073
 8163TIP3    H145980   3.593   6.752   0.639  1.1784  0.0400 -1.3290
 8163TIP3    H245981   3.624   6.623   0.712 -0.1911  0.7987  0.7022
 8164TIP3   OH245982   0.210   2.584  16.339  0.4585 -0.0543 -0.2360
 8164TIP3    H145983   0.247   2.615  16.257  3.4459 -1.8550  0.2574
 8164TIP3    H245984   0.205   2.489  16.329  1.0915 -0.3408  1.6669
 8165TIP3   OH245985   1.781   3.764   4.971  0.0691 -0.4464 -0.1923
 8165TIP3    H145986   1.871   3.758   4.940  0.1203 -0.0534 -0.1240
 8165TIP3    H245987   1.744   3.838   4.923  0.3106  0.5270  1.0626
 8166TIP3   OH245988   6.666   3.229   2.936  0.2177 -0.3038 -0.1014
 8166TIP3    H145989   6.681   3.261   2.847  0.4347 -3.2559 -1.2196
 8166TIP3    H245990   6.737   3.167   2.952  0.1470  0.1020  2.1418
 8167TIP3   OH245991   2.928   5.698  14.231  1.1556  0.2085  0.0238
 8167TIP3    H145992   2.909   5.790  14.250  0.6078 -0.0536  0.8109
 8167TIP3    H245993   3.007   5.700  14.176  2.2535  1.0790  1.5415
 8168TIP3   OH245994   6.319   5.019  13.927 -0.0998  0.5282  0.4201
 8168TIP3    H145995   6.351   4.929  13.939 -2.0786 -0.4046 -0.7274
 8168TIP3    H245996   6.239   5.022  13.979 -1.7822  0.5338 -1.9953
 8169TIP3   OH245997   5.819   1.292   2.611 -0.7501  0.0834  0.5680
 8169TIP3    H145998   5.759   1.253   2.548 -0.2342  1.4433 -0.8500
 8169TIP3    H245999   5.824   1.384   2.585  2.5333 -0.0922  0.0631
 8170TIP3   OH246000   5.828   1.285  11.789 -0.4096 -0.9376  0.1264
 8170TIP3    H146001   5.798   1.233  11.863 -0.8645 -0.8091  0.0329
 8170TIP3    H246002   5.781   1.368  11.798 -0.6599 -1.0160 -0.4529
 8171TIP3   OH246003   1.329   0.860   2.954 -0.3816  0.2963  0.1643
 8171TIP3    H146004   1.288   0.931   3.003 -1.7510 -0.1214 -0.3325
 8171TIP3    H246005   1.378   0.904   2.884 -2.4544  0.7653 -1.0833
 8172TIP3   OH246006   2.046   0.838  12.218  0.1356 -0.0470  0.1072
 8172TIP3    H146007   1.980   0.770  12.232  0.1459  0.0134  0.4692
 8172TIP3    H246008   2.101   0.804  12.147 -0.8077  0.3013 -0.8208
 8173TIP3   OH246009   0.960   2.008   2.509 -0.3284 -0.5542 -0.0209
 8173TIP3    H146010   1.035   1.953   2.487 -0.1769 -0.9369  1.3697
 8173TIP3    H246011   0.900   1.997   2.436  1.3059  0.4242 -1.6043
 8174TIP3   OH246012   1.364   4.688  14.472 -0.6202  0.1800 -0.1124
 8174TIP3    H146013   1.353   4.598  14.443 -0.4350 -0.1570  0.8205
 8174TIP3    H246014   1.289   4.704  14.529 -1.0916  0.8948 -0.9084
 8175TIP3   OH246015   6.805   1.389   0.278 -0.2883  0.4139 -0.4225
 8175TIP3    H146016   6.712   1.413   0.274 -1.0604 -2.1225  0.5017
 8175TIP3    H246017   6.809   1.324   0.348  1.7789 -1.2618 -2.0091
 8176TIP3   OH246018   6.570   0.385   0.811  0.0090 -0.4666  0.0485
 8176TIP3    H146019   6.514   0.308   0.827 -1.2441  0.0327 -1.6163
 8176TIP3    H246020   6.612   0.367   0.727  0.7044  0.1319  0.2565
 8177TIP3   OH246021   4.158   0.668   5.877 -0.1995 -0.3874  0.1166
 8177TIP3    H146022   4.159   0.739   5.941 -0.5398 -0.7809  0.5623
 8177TIP3    H246023   4.065   0.650   5.863 -0.1633  0.3628 -1.2437
 8178TIP3   OH246024   5.195   3.197  10.719  0.2855 -0.0364  0.5357
 8178TIP3    H146025   5.236   3.233  10.797  0.3655 -0.6694  0.7876
 8178TIP3    H246026   5.218   3.258  10.649  0.7296  0.1994  0.8853
 8179TIP3   OH246027   0.719   0.586   0.002  0.4693  0.4940  0.0323
 8179TIP3    H146028   0.679   0.650   0.061 -0.0079  0.2303  0.0004
 8179TIP3    H246029   0.651   0.521  -0.012  0.6615  0.4261 -0.6186
 8180TIP3   OH246030   0.840   4.415   1.563 -0.2645 -0.2948 -0.5523
 8180TIP3    H146031   0.864   4.352   1.494 -0.9708  0.5913 -1.6437
 8180TIP3    H246032   0.824   4.497   1.516 -0.4734  0.4178  0.7194
 8181TIP3   OH246033   1.229   0.608  13.553  0.0520 -0.0938  0.2707
 8181TIP3    H146034   1.269   0.688  13.519  1.4491 -0.8019  0.1523
 8181TIP3    H246035   1.147   0.599  13.503  0.0267  1.0828  0.0700
 8182TIP3   OH246036   5.151   6.198   0.763 -0.0177 -0.1165 -0.3046
 8182TIP3    H146037   5.111   6.116   0.793  0.5196  0.2266  1.4580
 8182TIP3    H246038   5.122   6.207   0.672 -2.8273 -0.5611  0.4530
 8183TIP3   OH246039   6.227   2.441  14.865 -0.0260  0.2409  0.1179
 8183TIP3    H146040   6.264   2.423  14.951 -1.7192  0.2228  0.8753
 8183TIP3    H246041   6.166   2.513  14.879  0.1293  0.6620 -1.1965
 8184TIP3   OH246042   5.117   5.025   2.058 -0.7453 -0.5415  0.3398
 8184TIP3    H146043   5.022   5.021   2.060 -0.7979  0.4261  0.6678
 8184TIP3    H246044   5.143   5.026   2.150 -0.5698  1.4984  0.3089
 8185TIP3   OH246045   2.647   4.470  14.294 -0.3793  0.0539  0.6519
 8185TIP3    H146046   2.599   4.526  14.232 -1.4158  0.1698  1.5346
 8185TIP3    H246047   2.694   4.408  14.238  0.0742  1.2218 -0.3211
 8186TIP3   OH246048   6.013   5.985   0.096  0.3817 -0.3364 -0.1212
 8186TIP3    H146049   5.937   6.038   0.073  0.7195 -0.4155 -1.4910
 8186TIP3    H246050   6.058   6.035   0.164 -0.7481 -0.1807  0.5466
 8187TIP3   OH246051   6.298   6.191  12.756  0.4556  0.1181  0.0535
 8187TIP3    H146052   6.384   6.186  12.714  0.7849  0.0297  0.7338
 8187TIP3    H246053   6.248   6.118  12.718  0.8875 -0.2147  0.1206
 8188TIP3   OH246054   6.196   5.591  11.902  0.3411 -0.4508 -0.3920
 8188TIP3    H146055   6.157   5.515  11.859  1.4200 -0.4128 -1.4827
 8188TIP3    H246056   6.127   5.626  11.958 -0.9083 -0.8555 -1.6532
 8189TIP3   OH246057   0.117   6.044  15.781  0.3576  0.0036 -0.1404
 8189TIP3    H146058   0.148   6.023  15.693 -0.4543 -1.7483 -0.0492
 8189TIP3    H246059   0.181   6.002  15.839  0.3489  0.3179  0.0983
 8190TIP3   OH246060   1.066   6.308  11.868 -0.1201  0.2782  0.0661
 8190TIP3    H146061   1.040   6.216  11.869 -0.7278  0.4525  1.1515
 8190TIP3    H246062   1.161   6.306  11.854 -0.1717 -0.4899 -0.2374
 8191TIP3   OH246063   6.075   2.186   5.015  0.1238  0.1775 -0.4780
 8191TIP3    H146064   6.048   2.275   4.992 -3.3518 -0.4837  0.4622
 8191TIP3    H246065   6.053   2.177   5.108 -0.0533 -1.8205 -0.6711
 8192TIP3   OH246066   0.758   5.436   0.504 -0.1501 -0.4045 -0.6648
 8192TIP3    H146067   0.781   5.453   0.595 -1.6189 -2.8192  0.2620
 8192TIP3    H246068   0.686   5.497   0.486 -2.0392 -2.0356  0.9301
 8193TIP3   OH246069   0.390   2.754   4.510  0.4162 -0.4955  0.1809
 8193TIP3    H146070   0.419   2.780   4.597 -0.7248 -1.5405  0.9157
 8193TIP3    H246071   0.463   2.776   4.452  0.8560  1.0028  1.2593
 8194TIP3   OH246072   2.814   2.681  14.213 -0.1605  0.1574 -0.6657
 8194TIP3    H146073   2.761   2.744  14.262  1.8357  1.5726 -0.1883
 8194TIP3    H246074   2.840   2.728  14.134  2.7969  0.7364  0.4871
 8195TIP3   OH246075   0.020   6.016  15.053 -0.3178  0.3866 -0.2533
 8195TIP3    H146076   0.090   6.072  15.086 -0.0659  0.2792 -0.5960
 8195TIP3    H246077   0.053   5.927  15.067 -0.7166  0.3207  0.2932
 8196TIP3   OH246078   2.369   1.072   0.036 -0.5799 -0.0431 -0.1718
 8196TIP3    H146079   2.393   1.139   0.100  0.4340  0.7673 -1.3231
 8196TIP3    H246080   2.328   1.002   0.087  0.3010  0.5076  1.3571
 8197TIP3   OH246081   2.571   6.412  14.482 -0.6486  0.1692  0.7694
 8197TIP3    H146082   2.653   6.406  14.433 -1.0579  2.3144 -0.2934
 8197TIP3    H246083   2.538   6.322  14.485  1.9302 -0.8357  1.6493
 8198TIP3   OH246084   1.795   0.903  10.609  0.5692  0.2903 -0.6719
 8198TIP3    H146085   1.821   0.981  10.561  2.2741  0.0868 -0.1206
 8198TIP3    H246086   1.708   0.882  10.575 -0.0262  2.5416 -0.6533
 8199TIP3   OH246087   3.455   0.939  16.266 -0.0398  0.7048 -0.0283
 8199TIP3    H146088   3.486   0.924  16.177  1.3737  1.8632  0.2325
 8199TIP3    H246089   3.378   0.996  16.256  0.6863  1.6300 -0.4772
 8200TIP3   OH246090   0.549   5.097  13.055  0.0281  0.6707  0.0042
 8200TIP3    H146091   0.485   5.144  13.001 -0.3313 -0.7642 -0.8673
 8200TIP3    H246092   0.631   5.145  13.043  0.0593  0.1324 -2.1967
 8201TIP3   OH246093   5.884   6.658   6.023 -0.1855 -0.7377 -0.5778
 8201TIP3    H146094   5.791   6.638   6.027 -0.4703  0.7557  1.7801
 8201TIP3    H246095   5.889   6.754   6.027  1.4784 -0.8409  2.1223
 8202TIP3   OH246096   0.777   6.013   1.436 -0.4623 -0.1090 -0.2087
 8202TIP3    H146097   0.723   5.944   1.397 -0.2563  0.3668 -1.3771
 8202TIP3    H246098   0.763   6.005   1.530 -1.7338 -0.6821 -0.4354
 8203TIP3   OH246099   6.332   6.517   2.695 -0.3289  0.2975 -0.3624
 8203TIP3    H146100   6.397   6.580   2.727  0.6169 -0.9227  0.1536
 8203TIP3    H246101   6.345   6.516   2.601  2.0825 -1.6720 -0.0987
 8204TIP3   OH246102   4.382   0.317   2.954  0.8421  0.7595  0.1817
 8204TIP3    H146103   4.458   0.307   3.011  0.0857 -1.6693  0.8702
 8204TIP3    H246104   4.307   0.313   3.012  0.0637 -1.3582 -0.8588
 8205TIP3   OH246105   2.739   3.464  12.670 -0.3440 -0.6124 -0.6541
 8205TIP3    H146106   2.707   3.414  12.744  1.2995 -0.9519 -0.1424
 8205TIP3    H246107   2.664   3.519  12.644 -1.0250 -0.6667  1.0730
 8206TIP3   OH246108   3.600   0.802  11.868  0.5921 -0.2749  0.0145
 8206TIP3    H146109   3.519   0.825  11.914  0.9002  1.2141 -0.1388
 8206TIP3    H246110   3.573   0.740  11.801 -0.9690  2.2373 -1.8651
 8207TIP3   OH246111   1.565   3.384   1.547  0.3482 -0.0861  0.7663
 8207TIP3    H146112   1.639   3.438   1.574  0.6510 -0.1416  0.0736
 8207TIP3    H246113   1.596   3.337   1.470 -0.9853  1.2646 -0.6577
 8208TIP3   OH246114   5.795   4.130  13.310 -0.1695  0.2388  0.3877
 8208TIP3    H146115   5.836   4.209  13.274  0.0101  0.3721  0.8697
 8208TIP3    H246116   5.723   4.111  13.250 -1.2539  1.7358  1.1208
 8209TIP3   OH246117   5.684   4.578   5.500  0.0067 -0.3481 -0.4563
 8209TIP3    H146118   5.690   4.671   5.520 -1.2314 -0.2779 -0.3662
 8209TIP3    H246119   5.774   4.546   5.507  0.5341  0.9438 -1.0152
 8210TIP3   OH246120   4.343   2.821   0.073 -0.4610 -0.3325 -0.4825
 8210TIP3    H146121   4.362   2.891   0.010  1.9292  0.9291  1.4789
 8210TIP3    H246122   4.418   2.820   0.131 -2.1106 -2.0980  1.7865
 8211TIP3   OH246123   6.005   2.876   5.178 -0.7328 -0.1183 -0.4228
 8211TIP3    H146124   5.975   2.846   5.093 -0.8429  1.0498 -0.8181
 8211TIP3    H246125   6.100   2.865   5.176 -0.3884  2.3112 -1.7554
 8212TIP3   OH246126   4.698   1.457  15.130  0.1924 -0.1046 -0.5713
 8212TIP3    H146127   4.635   1.386  15.141  2.5879 -2.0848  1.7074
 8212TIP3    H246128   4.697   1.475  15.036 -1.8796 -1.8139 -0.9554
 8213TIP3   OH246129   1.938   4.148  16.124 -0.1538 -0.1383 -0.0148
 8213TIP3    H146130   1.978   4.078  16.174 -0.1688  0.1660  0.4274
 8213TIP3    H246131   1.849   4.156  16.159 -0.2471 -0.0943 -0.2577
 8214TIP3   OH246132   3.224   0.330  14.716 -0.0336 -0.2062 -0.2699
 8214TIP3    H146133   3.239   0.238  14.699 -0.6194 -0.6055  1.1915
 8214TIP3    H246134   3.159   0.356  14.651  2.0834 -0.0854 -2.4450
 8215TIP3   OH246135   6.705   5.299  13.516 -0.2526  0.0022  0.6247
 8215TIP3    H146136   6.698   5.394  13.510  1.3870  0.0655 -1.7606
 8215TIP3    H246137   6.795   5.283  13.543  0.4385 -0.8114 -1.8671
 8216TIP3   OH246138   5.111   0.320   6.705  0.1408  0.3844  1.0826
 8216TIP3    H146139   5.067   0.241   6.672  0.5016  0.2032  1.0331
 8216TIP3    H246140   5.191   0.287   6.746 -0.0845  0.6492  1.7531
 8217TIP3   OH246141   0.069   6.064   0.993 -0.2995 -0.8004 -0.2033
 8217TIP3    H146142   0.080   6.151   0.955  0.5670 -1.1516 -0.7749
 8217TIP3    H246143   0.152   6.048   1.039  0.0942 -1.8865 -1.2664
 8218TIP3   OH246144   2.001   0.923  16.338  0.1282  0.0363 -0.1289
 8218TIP3    H146145   1.982   0.944  16.246 -2.3759  0.9026  0.5060
 8218TIP3    H246146   2.053   0.997  16.369  1.3277 -0.4495 -0.9150
 8219TIP3   OH246147   3.286   0.092  14.999 -0.2607  0.1619  0.3005
 8219TIP3    H146148   3.198   0.070  15.031  0.4155  0.2147  2.3106
 8219TIP3    H246149   3.336   0.012  15.011 -0.2174 -0.1512 -1.6974
 8220TIP3   OH246150   2.179   2.109  15.576 -0.5162  0.2310  0.3147
 8220TIP3    H146151   2.100   2.158  15.600 -0.2359 -0.0544  1.8642
 8220TIP3    H246152   2.234   2.111  15.653  0.9948  0.3489 -0.7235
 8221TIP3   OH246153   3.068   5.457   3.092 -0.1018  0.2789 -0.2480
 8221TIP3    H146154   3.112   5.374   3.076 -2.2449 -0.5940 -2.2533
 8221TIP3    H246155   3.104   5.516   3.026 -0.0832  0.3174 -0.2035
 8222TIP3   OH246156   4.488   3.693  12.982  0.0193  0.3999  0.0736
 8222TIP3    H146157   4.496   3.611  13.031 -0.3914  1.0138  1.2208
 8222TIP3    H246158   4.570   3.701  12.934  0.5461 -0.1117  0.8610
 8223TIP3   OH246159   2.365   2.171   2.856  0.0274 -0.1648 -0.2199
 8223TIP3    H146160   2.346   2.127   2.773 -2.8642 -3.2219  1.7584
 8223TIP3    H246161   2.453   2.205   2.846  0.2480 -1.3626 -4.1122
 8224TIP3   OH246162   4.716   1.569   5.760 -0.1039 -0.3224  0.3069
 8224TIP3    H146163   4.668   1.497   5.720  0.7759 -1.4868  1.2498
 8224TIP3    H246164   4.657   1.602   5.828  0.2193 -1.4709  1.1819
 8225TIP3   OH246165   6.051   2.972  15.935 -0.3476  0.0061 -0.2293
 8225TIP3    H146166   6.065   2.889  15.981 -0.0500  0.7829  1.1190
 8225TIP3    H246167   5.958   2.969  15.910 -0.7959 -0.0156  1.3256
 8226TIP3   OH246168   1.977   3.819  12.362 -0.4571 -0.3289 -0.4702
 8226TIP3    H146169   1.958   3.728  12.339 -2.3226  0.0595 -0.6565
 8226TIP3    H246170   2.072   3.827  12.352 -0.5284 -1.5540 -3.1032
 8227TIP3   OH246171   5.989   5.447   3.790  0.5509  0.2722  0.4549
 8227TIP3    H146172   5.915   5.497   3.756 -0.5444 -2.6871 -1.9036
 8227TIP3    H246173   6.066   5.484   3.745 -0.1215  0.3418 -0.6660
 8228TIP3   OH246174   5.469   5.674  16.714  0.0217  0.1734 -0.5516
 8228TIP3    H146175   5.483   5.747  16.774  0.2402 -1.0236  0.9016
 8228TIP3    H246176   5.554   5.630  16.709 -0.4935 -0.9407 -0.0644
 8229TIP3   OH246177   5.117   0.835  16.742 -0.0035  0.0198 -0.3732
 8229TIP3    H146178   5.143   0.884  16.664 -0.9731 -1.1715 -1.5009
 8229TIP3    H246179   5.198   0.818  16.789  0.9538 -1.3222 -2.3950
 8230TIP3   OH246180   2.534   3.069   3.880 -0.1494 -0.3087 -0.3804
 8230TIP3    H146181   2.587   3.080   3.959  0.5063 -1.1342 -0.6828
 8230TIP3    H246182   2.515   3.158   3.851 -1.2949  0.0386  1.2704
 8231TIP3   OH246183   6.818   4.615   5.940  0.0987  0.8485  0.3916
 8231TIP3    H146184   6.882   4.606   6.011 -2.0721  0.0649  2.4149
 8231TIP3    H246185   6.742   4.655   5.982 -1.2544  0.4591 -1.5542
 8232TIP3   OH246186   6.747   4.511   0.020  0.0622  0.1237  0.2088
 8232TIP3    H146187   6.840   4.529   0.032  0.1534  0.2435 -0.6187
 8232TIP3    H246188   6.714   4.586  -0.030 -0.7679  0.7361  1.6334
 8233TIP3   OH246189   2.449   5.050  15.700 -0.0734  0.1552  0.1196
 8233TIP3    H146190   2.532   5.094  15.682 -0.9108  1.6665 -0.3065
 8233TIP3    H246191   2.404   5.108  15.762 -1.8943  0.8264 -1.6912
 8234TIP3   OH246192   0.424   1.676   2.684  0.2215 -0.0915  0.2271
 8234TIP3    H146193   0.497   1.707   2.738 -0.2098  0.5518  0.4438
 8234TIP3    H246194   0.376   1.755   2.660  0.1378 -0.4102 -0.7170
 8235TIP3   OH246195   1.227   0.197  14.849 -0.2117 -0.6992 -0.7145
 8235TIP3    H146196   1.227   0.292  14.840  0.2682 -0.6908 -0.6538
 8235TIP3    H246197   1.175   0.166  14.774 -1.2792 -0.3466 -0.1397
 8236TIP3   OH246198   2.753   5.646   1.617 -0.0382 -0.8789 -0.2473
 8236TIP3    H146199   2.734   5.731   1.577  0.6879 -0.6051 -0.0281
 8236TIP3    H246200   2.756   5.585   1.543 -1.5005 -0.9038 -0.3097
 8237TIP3   OH246201   3.769   0.550  15.437  0.7984  0.2350  0.3398
 8237TIP3    H146202   3.742   0.641  15.425 -0.4137 -0.0544  0.7330
 8237TIP3    H246203   3.773   0.538  15.531  1.2272 -0.0501  0.2902
 8238TIP3   OH246204   3.400   2.645   1.391  0.3507  0.2726 -0.1615
 8238TIP3    H146205   3.457   2.722   1.380 -2.0840  2.2784  0.4414
 8238TIP3    H246206   3.365   2.655   1.480  0.2772 -1.8183  0.0826
 8239TIP3   OH246207   1.373   1.682  12.110  0.1445  0.6321  0.4065
 8239TIP3    H146208   1.367   1.602  12.058 -2.6591  1.7199 -1.1619
 8239TIP3    H246209   1.398   1.750  12.046  0.9546  1.3107  1.3975
 8240TIP3   OH246210   6.155   2.877   6.305  0.4920 -0.5222 -0.0388
 8240TIP3    H146211   6.129   2.968   6.292  0.3658 -0.5495  0.0210
 8240TIP3    H246212   6.195   2.875   6.391 -0.9670 -0.8335  0.6658
 8241TIP3   OH246213   4.176   2.473   2.942  0.5905 -0.0432 -0.2476
 8241TIP3    H146214   4.266   2.492   2.969 -0.0665  1.6776  0.8687
 8241TIP3    H246215   4.174   2.496   2.849  1.5565 -1.1284 -0.5631
 8242TIP3   OH246216   1.212   2.611   3.586  0.2801  0.2605 -0.2751
 8242TIP3    H146217   1.213   2.579   3.676  0.1759  2.3703  0.5476
 8242TIP3    H246218   1.169   2.543   3.536  1.5301 -1.5677  1.0158
 8243TIP3   OH246219   5.509   6.133  13.973 -0.6987  0.4020  0.2213
 8243TIP3    H146220   5.435   6.191  13.990 -0.2690  1.0302 -0.0093
 8243TIP3    H246221   5.509   6.122  13.878 -1.5529 -1.0327  0.3528
 8244TIP3   OH246222   5.028   6.712   5.710 -0.6742 -0.3006  0.0437
 8244TIP3    H146223   5.115   6.674   5.707  0.3198  1.8405 -0.5955
 8244TIP3    H246224   4.970   6.644   5.677  0.5887 -2.1068  1.3932
 8245TIP3   OH246225   0.747   5.675  12.399 -0.2084  0.3811  0.3229
 8245TIP3    H146226   0.663   5.690  12.356  0.7361  2.7752 -0.8718
 8245TIP3    H246227   0.732   5.601  12.457 -2.4142 -0.9632 -1.8081
 8246TIP3   OH246228   1.688   4.396  13.684 -0.2678  0.1611 -0.3969
 8246TIP3    H146229   1.751   4.348  13.631 -0.0775 -0.3931  0.3172
 8246TIP3    H246230   1.644   4.329  13.736 -0.6447  0.6632 -0.0548
 8247TIP3   OH246231   3.300   3.978   2.723 -0.9664  0.3319  0.6847
 8247TIP3    H146232   3.264   3.908   2.778 -1.4714  0.2173  0.2211
 8247TIP3    H246233   3.382   4.002   2.765 -0.9135 -0.3660  0.9983
 8248TIP3   OH246234   2.290   4.119   1.222 -0.2445  0.3664 -0.6489
 8248TIP3    H146235   2.308   4.027   1.243 -0.0966  0.7082  0.7964
 8248TIP3    H246236   2.205   4.117   1.180 -0.9564 -0.2943  0.7502
 8249TIP3   OH246237   1.506   1.480  11.113 -0.2504 -0.1787  0.3133
 8249TIP3    H146238   1.540   1.477  11.024  1.4418 -1.0582  0.9367
 8249TIP3    H246239   1.513   1.572  11.139  0.2818 -0.1066 -0.0807
 8250TIP3   OH246240   6.821   3.770   1.101 -0.6412  0.1452  0.6030
 8250TIP3    H146241   6.814   3.694   1.044 -0.2626  0.9050 -0.5001
 8250TIP3    H246242   6.741   3.820   1.085  0.4544  1.4965 -1.0292
 8251TIP3   OH246243   3.995   5.254   5.164 -0.3064  0.5298 -0.8112
 8251TIP3    H146244   4.085   5.226   5.178 -0.1301  1.1109 -0.7819
 8251TIP3    H246245   4.002   5.345   5.134 -0.7844  0.0980 -2.3551
 8252TIP3   OH246246   5.317   2.389  11.369 -0.2796  0.5422  0.0628
 8252TIP3    H146247   5.306   2.392  11.274  0.0080 -0.0004  0.0074
 8252TIP3    H246248   5.255   2.323  11.399 -0.9464  1.2885  0.3493
 8253TIP3   OH246249   0.663   3.542   2.453 -0.0631 -0.1035 -0.5294
 8253TIP3    H146250   0.633   3.496   2.374  0.9745 -1.2498 -0.2865
 8253TIP3    H246251   0.752   3.511   2.466  0.2021  0.9927  0.4308
 8254TIP3   OH246252   0.940   6.069  12.937  0.0240  0.0067  0.4186
 8254TIP3    H146253   0.947   6.112  12.852 -1.4431 -1.1340 -0.3140
 8254TIP3    H246254   0.993   5.989  12.928  0.4820  0.2535  0.8487
 8255TIP3   OH246255   2.302   0.530  13.811 -0.1421  0.6639 -0.1696
 8255TIP3    H146256   2.398   0.532  13.813 -0.1493  1.1082  1.6721
 8255TIP3    H246257   2.278   0.612  13.769  0.2905  0.7304 -0.2997
 8256TIP3   OH246258   5.029   2.378   2.421 -0.2197  0.1393  0.4502
 8256TIP3    H146259   5.041   2.460   2.371 -1.4071 -0.1116 -0.2869
 8256TIP3    H246260   5.118   2.348   2.439  0.2976 -0.1018 -2.1288
 8257TIP3   OH246261   3.986   5.511  17.165 -0.1400 -0.4829  0.0440
 8257TIP3    H146262   4.031   5.572  17.223 -0.1379 -1.4411  1.0902
 8257TIP3    H246263   3.991   5.427  17.210 -1.2993 -0.9981 -0.7301
 8258TIP3   OH246264   0.915   5.264  11.975 -0.0612 -0.3739  0.5885
 8258TIP3    H146265   0.853   5.257  11.903  1.9777 -2.1590 -1.1455
 8258TIP3    H246266   0.865   5.234  12.052 -2.5320  2.3874  0.2189
 8259TIP3   OH246267   0.222   0.470   0.876 -0.6800  0.1646 -0.3207
 8259TIP3    H146268   0.193   0.533   0.810  0.2922 -0.3526 -1.2795
 8259TIP3    H246269   0.303   0.434   0.840 -0.4761 -0.6062  0.8690
 8260TIP3   OH246270   3.323   5.897   1.261  0.2018  0.2349 -0.4988
 8260TIP3    H146271   3.296   5.813   1.222 -2.3086  0.3892  0.6864
 8260TIP3    H246272   3.302   5.962   1.194  1.1539  0.0444 -1.0034
 8261TIP3   OH246273   0.438   1.859   6.142 -0.2324 -0.5113 -0.7049
 8261TIP3    H146274   0.361   1.899   6.102  1.2079  1.7505 -1.3978
 8261TIP3    H246275   0.422   1.863   6.236 -1.8684 -2.1235 -0.8602
 8262TIP3   OH246276   0.569   5.324   3.950  0.3464 -0.2271 -0.0808
 8262TIP3    H146277   0.643   5.381   3.928 -0.3044 -0.0120 -1.9319
 8262TIP3    H246278   0.529   5.304   3.865 -1.9986  0.0295  0.8847
 8263TIP3   OH246279   6.492   1.865  10.779 -0.5317  0.5050  0.0816
 8263TIP3    H146280   6.566   1.810  10.755 -0.9732  1.0101 -2.7856
 8263TIP3    H246281   6.526   1.925  10.845  1.5061  0.4573 -0.8646
 8264TIP3   OH246282   6.679   5.457   1.143  0.0074 -0.2108 -0.1535
 8264TIP3    H146283   6.757   5.505   1.114 -0.1770  0.6121  0.6488
 8264TIP3    H246284   6.616   5.526   1.165  0.1075 -0.7572  2.0860
 8265TIP3   OH246285   5.067   4.730   2.443  0.0108  0.2098 -0.7357
 8265TIP3    H146286   5.026   4.701   2.361  0.5609 -0.0686 -0.9114
 8265TIP3    H246287   5.149   4.771   2.416 -0.3936  1.2574 -0.4284
 8266TIP3   OH246288   5.676   6.721  16.840  0.1819  0.2727  0.8582
 8266TIP3    H146289   5.762   6.759  16.856  1.6208 -3.4692  3.1678
 8266TIP3    H246290   5.693   6.642  16.789 -2.1752  0.4256 -0.3153
 8267TIP3   OH246291   3.275   4.592  12.504  0.2713 -0.1518 -0.8485
 8267TIP3    H146292   3.295   4.535  12.578 -0.9724 -0.8182 -1.0061
 8267TIP3    H246293   3.238   4.671  12.544  0.7916  0.0148 -0.6958
 8268TIP3   OH246294   3.535   0.662  11.255 -0.1583  0.0017 -0.3069
 8268TIP3    H146295   3.587   0.743  11.250 -1.4853  0.8545 -0.9245
 8268TIP3    H246296   3.549   0.620  11.170 -2.5023  1.5958 -1.6117
 8269TIP3   OH246297   2.821   0.327  16.435 -0.2397  0.4897 -0.2689
 8269TIP3    H146298   2.904   0.313  16.480  0.4836  0.1969 -1.6540
 8269TIP3    H246299   2.756   0.285  16.492  0.4357  1.2958  1.1600
 8270TIP3   OH246300   1.906   3.900  11.939  0.0391 -0.4143 -0.1617
 8270TIP3    H146301   1.992   3.894  11.898  1.5959  2.6979  2.2343
 8270TIP3    H246302   1.922   3.883  12.032 -1.9571  0.1230  0.3326
 8271TIP3   OH246303   1.901   2.540  14.571 -0.3861 -0.4355 -0.3475
 8271TIP3    H146304   1.898   2.523  14.476  1.1871 -0.7662 -0.3738
 8271TIP3    H246305   1.811   2.530  14.600 -0.7939 -0.9780 -1.7154
 8272TIP3   OH246306   2.206   2.855   1.944  0.2893  0.1465  0.1555
 8272TIP3    H146307   2.191   2.924   2.008  0.0147 -0.8733  1.2167
 8272TIP3    H246308   2.216   2.775   1.996 -1.0305 -0.8947 -1.1212
 8273TIP3   OH246309   5.167   4.404  16.940 -0.3829  0.4258  0.3545
 8273TIP3    H146310   5.254   4.414  16.901 -0.1563  0.4954  0.8736
 8273TIP3    H246311   5.109   4.452  16.880 -0.4599 -1.6388 -1.3288
 8274TIP3   OH246312   4.593   5.829  16.793 -0.3286 -0.2979 -0.4459
 8274TIP3    H146313   4.624   5.862  16.877 -1.6604 -2.3666  0.9715
 8274TIP3    H246314   4.615   5.897  16.731 -0.6746  2.0347  1.8156
 8275TIP3   OH246315   5.214   2.111  12.182  0.0192  0.3458 -0.5737
 8275TIP3    H146316   5.238   2.168  12.109  0.5317  1.7425  0.6211
 8275TIP3    H246317   5.267   2.144  12.255 -1.2832 -0.2901  0.6939
 8276TIP3   OH246318   3.655   3.830  13.913 -0.0102 -0.2207  0.5117
 8276TIP3    H146319   3.632   3.807  13.823  1.5410  0.7981 -0.1944
 8276TIP3    H246320   3.590   3.896  13.938 -0.3404 -0.3693  0.0681
 8277TIP3   OH246321   6.281   1.846   2.785  0.1064  0.5210 -0.3864
 8277TIP3    H146322   6.276   1.929   2.833 -2.7088  1.7812 -2.5624
 8277TIP3    H246323   6.253   1.780   2.848 -1.1117  1.7692  0.4421
 8278TIP3   OH246324   1.022   1.201  15.581 -0.2877 -0.2704  0.0680
 8278TIP3    H146325   1.054   1.291  15.574 -0.3412 -0.2568  0.0016
 8278TIP3    H246326   0.935   1.209  15.620 -1.1224 -0.1438 -1.7403
 8279TIP3   OH246327   3.011   1.427  15.408 -0.2933 -0.2720 -0.4379
 8279TIP3    H146328   2.977   1.451  15.494 -0.4876 -3.7314  0.6380
 8279TIP3    H246329   2.960   1.479  15.346 -1.8015  0.6314  1.4712
 8280TIP3   OH246330   1.137   3.067   4.455 -0.0429  0.1203  0.0239
 8280TIP3    H146331   1.158   3.150   4.413 -0.5137 -0.1016 -0.6666
 8280TIP3    H246332   1.124   3.089   4.547 -1.5159  1.0616 -0.3820
 8281TIP3   OH246333   2.257   0.126  16.282  0.0045  0.1702  0.2165
 8281TIP3    H146334   2.171   0.104  16.245  0.9487  0.2310 -2.2034
 8281TIP3    H246335   2.240   0.203  16.337 -1.4292  0.4951 -0.6236
 8282TIP3   OH246336   1.858   6.271  15.942 -0.0365  0.1776 -0.1637
 8282TIP3    H146337   1.805   6.272  15.862 -1.3087  0.1086  0.6434
 8282TIP3    H246338   1.947   6.290  15.913 -0.0372 -2.0201 -1.8980
 8283TIP3   OH246339   6.480   3.347  12.175 -0.2134  1.0310 -0.6406
 8283TIP3    H146340   6.459   3.255  12.196 -0.8488  1.2737 -0.1806
 8283TIP3    H246341   6.566   3.361  12.214 -0.8883  1.1427  0.8958
 8284TIP3   OH246342   4.806   5.985  12.977  0.2028 -0.0627 -0.6290
 8284TIP3    H146343   4.738   6.039  13.018  0.4305  0.1651 -0.5549
 8284TIP3    H246344   4.765   5.953  12.896  0.3699  0.9195 -1.1050
 8285TIP3   OH246345   0.482   2.146  15.730  0.3256 -0.0696 -0.2285
 8285TIP3    H146346   0.453   2.144  15.639  0.2262 -0.8375 -0.1887
 8285TIP3    H246347   0.404   2.166  15.780  0.4638  0.7824 -0.3345
 8286TIP3   OH246348   0.292   3.540  11.452  0.1789  0.0533 -0.4573
 8286TIP3    H146349   0.230   3.487  11.402  0.2873  1.5881 -2.3095
 8286TIP3    H246350   0.237   3.596  11.507  0.0378 -0.7053  0.2056
 8287TIP3   OH246351   1.110   4.490   4.138 -0.1278 -0.2693 -0.0648
 8287TIP3    H146352   1.103   4.583   4.163 -1.3749 -0.4332  0.2588
 8287TIP3    H246353   1.162   4.491   4.058 -3.6254  1.1707 -2.5652
 8288TIP3   OH246354   1.330   3.072  14.997  0.5030 -0.0574  0.5922
 8288TIP3    H146355   1.315   3.163  15.022 -1.3474 -0.2405  0.2933
 8288TIP3    H246356   1.418   3.071  14.959 -0.3640  2.1178 -1.6969
 8289TIP3   OH246357   3.930   0.836   2.097 -0.3981 -0.5365  0.7140
 8289TIP3    H146358   3.835   0.846   2.085 -0.0911  2.4681 -0.1539
 8289TIP3    H246359   3.939   0.792   2.181 -2.5721 -0.8445  0.8536
 8290TIP3   OH246360   2.607   3.774  12.597  0.6612 -0.1876 -0.2266
 8290TIP3    H146361   2.649   3.708  12.542 -0.3818 -0.7528 -0.3706
 8290TIP3    H246362   2.566   3.834  12.535 -0.0138 -0.4961 -0.0948
 8291TIP3   OH246363   3.946   3.942  10.985 -0.1366  0.4085  0.3546
 8291TIP3    H146364   3.919   3.864  10.937 -0.9053  1.0946 -0.3421
 8291TIP3    H246365   4.032   3.919  11.022 -0.1246 -0.5760 -0.2644
 8292TIP3   OH246366   5.491   4.868   2.101 -0.7864 -0.7239  0.1774
 8292TIP3    H146367   5.455   4.903   2.020  0.1809  2.5899  1.0219
 8292TIP3    H246368   5.571   4.823   2.075  1.2434  2.9793 -0.5871
 8293TIP3   OH246369   4.979   3.829  13.715 -0.0439 -0.1884 -0.1837
 8293TIP3    H146370   4.906   3.768  13.728  1.5281 -1.8633  1.4002
 8293TIP3    H246371   4.998   3.862  13.803  1.5402 -0.3444 -0.4425
 8294TIP3   OH246372   1.888   3.993  11.468  0.0442 -0.5705  0.1740
 8294TIP3    H146373   1.949   3.942  11.415  0.1962  0.7960 -1.0335
 8294TIP3    H246374   1.823   3.929  11.498 -0.4137 -1.3306 -2.2101
 8295TIP3   OH246375   6.450   4.424  15.434 -0.4768 -0.3834  0.0092
 8295TIP3    H146376   6.356   4.417  15.451 -0.8097  1.5496 -0.7103
 8295TIP3    H246377   6.473   4.511  15.466  0.6300 -0.0211 -1.6369
 8296TIP3   OH246378   3.765   0.997  10.879 -0.2270 -0.3911 -0.1570
 8296TIP3    H146379   3.805   1.029  10.798 -0.0219  0.8960  0.4320
 8296TIP3    H246380   3.792   0.905  10.884  1.7453  0.1231 -0.3623
 8297TIP3   OH246381   6.118   2.547   4.085 -0.5517 -0.1653  0.1977
 8297TIP3    H146382   6.201   2.593   4.075  0.8025 -2.2302  1.1662
 8297TIP3    H246383   6.106   2.501   4.002 -1.0357  0.5723 -0.1486
 8298TIP3   OH246384   6.114   0.796  16.701 -0.4241 -0.3790 -0.1234
 8298TIP3    H146385   6.071   0.716  16.733 -0.5468  0.2469  1.3149
 8298TIP3    H246386   6.042   0.853  16.675 -0.6223  0.9062  2.8375
 8299TIP3   OH246387   3.210   4.652   3.653  0.1779  0.1069  0.1864
 8299TIP3    H146388   3.206   4.566   3.695  0.6718 -0.9952 -1.8822
 8299TIP3    H246389   3.219   4.713   3.725  0.1384 -1.6046  1.7197
 8300TIP3   OH246390   1.474   4.908  17.035 -0.0158 -0.0902 -0.0246
 8300TIP3    H146391   1.563   4.906  17.070  0.0570 -1.3330 -0.2213
 8300TIP3    H246392   1.460   4.999  17.008  1.1437  0.1436  0.1369
 8301TIP3   OH246393   1.752   4.939   4.328 -0.3494  0.0172 -0.7361
 8301TIP3    H146394   1.791   5.011   4.279  1.6668  0.1892  0.9599
 8301TIP3    H246395   1.671   4.975   4.364  1.4633  2.1361  1.5571
 8302TIP3   OH246396   2.115   2.998  11.392 -0.5208  0.1580  0.4027
 8302TIP3    H146397   2.079   3.070  11.340  0.4119  1.4945  1.5249
 8302TIP3    H246398   2.038   2.956  11.431 -1.1187  0.1037 -0.7884
 8303TIP3   OH246399   1.922   3.335   5.086  0.3875  0.2603 -0.2336
 8303TIP3    H146400   1.913   3.409   5.026 -0.2561  0.3551 -0.0241
 8303TIP3    H246401   1.879   3.262   5.043 -0.3734  0.4126  0.2526
 8304TIP3   OH246402   0.649   0.304  14.172  0.7419 -0.8666  0.0317
 8304TIP3    H146403   0.560   0.320  14.140  0.4506 -3.9245 -1.0071
 8304TIP3    H246404   0.706   0.327  14.098  0.4902 -2.4161 -0.6779
 8305TIP3   OH246405   4.185   6.196   5.104 -0.3355  0.4377 -0.0835
 8305TIP3    H146406   4.224   6.135   5.167  0.2107 -1.5487 -2.2389
 8305TIP3    H246407   4.112   6.148   5.066  0.8883  0.5616 -2.7704
 8306TIP3   OH246408   3.226   6.808  10.915 -0.3374  0.2635 -0.0847
 8306TIP3    H146409   3.240   6.717  10.889  1.4416  0.6075 -0.4197
 8306TIP3    H246410   3.143   6.833  10.872  0.7287 -0.2457 -2.6093
 8307TIP3   OH246411   2.847   3.619   2.740 -0.2814 -0.1778 -0.8688
 8307TIP3    H146412   2.886   3.706   2.737 -1.7775  0.5421 -0.3192
 8307TIP3    H246413   2.852   3.587   2.650  0.2786  0.4666 -1.0728
 8308TIP3   OH246414   5.707   3.825  13.186 -0.9745 -0.2354 -0.1163
 8308TIP3    H146415   5.719   3.895  13.122 -1.5831  0.3920  0.4341
 8308TIP3    H246416   5.743   3.747  13.144  2.6020  0.9493  0.4245
 8309TIP3   OH246417   4.714   4.621   5.159 -0.4688 -0.3757  0.5239
 8309TIP3    H146418   4.686   4.551   5.099 -1.1136 -1.1601  1.6979
 8309TIP3    H246419   4.804   4.640   5.132 -0.2159 -1.7875  0.2639
 8310TIP3   OH246420   3.939   0.796  16.848  0.8600 -0.3982  0.7621
 8310TIP3    H146421   3.927   0.864  16.915 -3.0276 -0.3009  0.2176
 8310TIP3    H246422   3.934   0.844  16.765  0.9427 -1.0179  0.3941
 8311TIP3   OH246423   1.411   3.526  13.381  0.7544 -0.2045  0.0503
 8311TIP3    H146424   1.316   3.530  13.369  0.9067  2.0778 -1.0229
 8311TIP3    H246425   1.424   3.552  13.472  0.3300 -1.4606  0.4866
 8312TIP3   OH246426   4.882   6.552  15.044 -0.7895 -0.5333 -0.0150
 8312TIP3    H146427   4.806   6.541  15.102 -0.5861 -0.6305  0.2340
 8312TIP3    H246428   4.941   6.481  15.068 -1.3298 -1.4742 -1.3411
 8313TIP3   OH246429   6.384   6.372  14.941 -0.5261  0.1203 -0.1187
 8313TIP3    H146430   6.315   6.337  14.998 -1.6942  1.3831 -0.6946
 8313TIP3    H246431   6.456   6.309  14.949 -1.2382 -0.5494  1.5237
 8314TIP3   OH246432   4.842   1.341  13.985 -0.7008  0.3610 -0.3850
 8314TIP3    H146433   4.760   1.296  14.004 -1.6982  1.7738 -1.2080
 8314TIP3    H246434   4.816   1.426  13.950  1.1172  0.8377 -0.6930
 8315TIP3   OH246435   1.901   3.129  11.940  0.1837  0.0602 -0.2176
 8315TIP3    H146436   1.960   3.178  11.997 -0.4506  1.2630 -0.5819
 8315TIP3    H246437   1.867   3.193  11.878  0.2832 -1.0745 -1.4982
 8316TIP3   OH246438   3.872   1.310  13.300 -0.3008  0.4609 -0.1550
 8316TIP3    H146439   3.783   1.316  13.266  0.0181  0.8305 -0.9587
 8316TIP3    H246440   3.866   1.342  13.390 -1.2316 -0.8590  0.2725
 8317TIP3   OH246441   2.709   1.500  10.370 -0.3762 -0.1087  0.0896
 8317TIP3    H146442   2.758   1.576  10.341  0.3323 -0.3199  0.7205
 8317TIP3    H246443   2.775   1.438  10.400 -1.0532  0.1366  2.2614
 8318TIP3   OH246444   6.684   4.925  13.790 -0.2806 -0.1223 -0.1452
 8318TIP3    H146445   6.613   4.969  13.743 -1.8705 -2.4401 -0.1017
 8318TIP3    H246446   6.740   4.889  13.721  0.7366  1.4156 -0.1773
 8319TIP3   OH246447   1.106   1.847  16.085 -0.1692  0.2098  0.1595
 8319TIP3    H146448   1.024   1.882  16.049  0.3304  1.0674 -0.1565
 8319TIP3    H246449   1.173   1.908  16.056  0.8466 -1.4149 -1.0788
 8320TIP3   OH246450   5.371   5.331   1.615 -0.4557 -0.6025  0.5402
 8320TIP3    H146451   5.298   5.373   1.659  0.1345  1.3040 -0.1996
 8320TIP3    H246452   5.446   5.389   1.632  0.7812 -2.2237  0.8473
 8321TIP3   OH246453   6.115   1.775   2.995  0.2671 -0.2457  0.5916
 8321TIP3    H146454   6.134   1.833   3.068 -0.2796 -0.0843  0.6086
 8321TIP3    H246455   6.040   1.815   2.951  0.2724 -0.6098  0.2421
 8322TIP3   OH246456   2.610   4.743   1.911  0.1489 -0.6560  0.3925
 8322TIP3    H146457   2.582   4.824   1.955  2.0193  0.8413 -0.9801
 8322TIP3    H246458   2.529   4.705   1.878 -0.7039  1.2852  0.1162
 8323TIP3   OH246459   2.742   0.745  16.158 -0.3319  0.3326 -0.4124
 8323TIP3    H146460   2.769   0.655  16.175  0.1230  0.8667  2.0331
 8323TIP3    H246461   2.823   0.791  16.136 -0.2184  0.5879  0.5141
 8324TIP3   OH246462   5.662   6.406  12.858 -0.0281 -0.2195  0.6804
 8324TIP3    H146463   5.726   6.474  12.837 -1.5371  1.2147  0.4265
 8324TIP3    H246464   5.695   6.365  12.938  1.9611 -0.6066 -0.2914
 8325TIP3   OH246465   6.357   1.621   5.432 -0.5053 -0.2851  0.4024
 8325TIP3    H146466   6.277   1.666   5.407 -0.8914 -0.5110  1.2262
 8325TIP3    H246467   6.427   1.672   5.391 -1.0717 -0.1951 -0.4700
 8326TIP3   OH246468   4.761   1.335   6.117  0.5152  0.2130 -0.4176
 8326TIP3    H146469   4.807   1.335   6.032  2.0748 -1.8905  0.3209
 8326TIP3    H246470   4.822   1.378   6.177  0.6821 -0.8199  0.1750
 8327TIP3   OH246471   1.634   1.226  13.247 -0.7092  0.2497 -0.1398
 8327TIP3    H146472   1.717   1.201  13.287 -0.4373  0.9130 -0.2852
 8327TIP3    H246473   1.569   1.208  13.316 -0.4559 -0.2589 -0.0234
 8328TIP3   OH246474   3.898   0.328   2.769 -0.2373 -0.1531 -0.0049
 8328TIP3    H146475   3.925   0.366   2.686 -0.0192  1.2917  0.6860
 8328TIP3    H246476   3.916   0.234   2.760 -1.7507 -0.2941 -2.1430
 8329TIP3   OH246477   3.552   4.675   2.428  0.3688  0.1667  0.0312
 8329TIP3    H146478   3.644   4.663   2.452  0.6319  0.2380 -0.9263
 8329TIP3    H246479   3.518   4.735   2.495  0.8094 -0.4615  0.8387
 8330TIP3   OH246480   2.194   0.579  14.535 -0.2333 -0.2512  0.0608
 8330TIP3    H146481   2.184   0.489  14.502 -0.8722 -0.5181  0.9328
 8330TIP3    H246482   2.252   0.621  14.472  0.5452 -1.4433 -0.0548
 8331TIP3   OH246483   6.364   3.436   5.967  0.2324 -0.5195 -0.0220
 8331TIP3    H146484   6.375   3.343   5.948  0.1011 -0.5285 -0.0584
 8331TIP3    H246485   6.367   3.441   6.062 -0.9259 -0.7212  0.0411
 8332TIP3   OH246486   1.520   0.351   0.740 -0.0962 -0.3206  0.6103
 8332TIP3    H146487   1.478   0.288   0.800  0.8970  0.6143  2.3839
 8332TIP3    H246488   1.451   0.415   0.721  0.1548  0.6876  2.7460
 8333TIP3   OH246489   4.205   6.365   2.223 -0.1509 -0.3525 -0.0762
 8333TIP3    H146490   4.262   6.359   2.300  1.6155 -1.0177 -1.3568
 8333TIP3    H246491   4.118   6.341   2.255  0.9836 -3.1986  1.2495
 8334TIP3   OH246492   0.858   4.136  12.295 -0.1617 -0.0152 -0.0027
 8334TIP3    H146493   0.831   4.082  12.220 -0.0786  1.2011 -0.9427
 8334TIP3    H246494   0.777   4.177  12.325 -0.1139 -0.1100  0.2561
 8335TIP3   OH246495   6.614   6.682  13.564 -0.1997 -0.1014  0.4383
 8335TIP3    H146496   6.609   6.766  13.517  0.7761  0.4139  1.2098
 8335TIP3    H246497   6.602   6.706  13.656  1.7982 -0.5558  0.8593
 8336TIP3   OH246498   0.501   2.502   4.557  0.2038  0.5101  0.0304
 8336TIP3    H146499   0.457   2.469   4.479 -0.4372  1.6190 -0.0837
 8336TIP3    H246500   0.473   2.593   4.565 -0.0318  0.3225  1.7564
 8337TIP3   OH246501   0.279   5.835   3.604  0.5922  0.1674  0.1984
 8337TIP3    H146502   0.299   5.929   3.601  1.4238  0.0051  0.5186
 8337TIP3    H246503   0.290   5.805   3.514  0.1423  0.4027  0.0581
 8338TIP3   OH246504   0.062   2.694  15.883 -0.1154  0.2332  0.2652
 8338TIP3    H146505   0.028   2.721  15.968 -0.4147  1.0171 -0.0927
 8338TIP3    H246506  -0.015   2.666  15.834 -0.0279  0.3846  0.0379
 8339TIP3   OH246507   2.436   0.559  15.859  0.2679  0.0499  0.3035
 8339TIP3    H146508   2.370   0.626  15.846  1.5530  0.8869 -2.8451
 8339TIP3    H246509   2.407   0.486  15.804  1.4363  0.0706 -0.3761
 8340TIP3   OH246510   1.567   1.547   0.152 -0.0420 -0.1452 -0.5197
 8340TIP3    H146511   1.486   1.562   0.202 -0.7412 -0.7871 -1.4127
 8340TIP3    H246512   1.561   1.607   0.078  0.2475 -0.2579 -0.6376
 8341TIP3   OH246513   6.673   5.574   6.733  0.6744 -0.6567  0.0487
 8341TIP3    H146514   6.735   5.521   6.683  0.7102 -0.4362 -0.1400
 8341TIP3    H246515   6.715   5.659   6.742  0.7002 -0.7170  0.5207
 8342TIP3   OH246516   1.337   6.409   3.296  0.1788  0.4749  0.5087
 8342TIP3    H146517   1.249   6.375   3.311  0.2610 -0.3090 -0.6506
 8342TIP3    H246518   1.324   6.498   3.265 -0.2403  0.2064 -0.1062
 8343TIP3   OH246519   5.978   4.768   0.585  0.2224 -0.1616 -0.1778
 8343TIP3    H146520   5.887   4.759   0.611 -0.1585  1.8742 -0.6211
 8343TIP3    H246521   5.979   4.842   0.524  2.4347  1.3176  1.4597
 8344TIP3   OH246522   4.983   2.248  14.456 -0.3548  0.7030  0.2009
 8344TIP3    H146523   5.076   2.268  14.466  0.6057 -2.8909 -0.1993
 8344TIP3    H246524   4.963   2.275  14.366  0.3351  1.3419  0.2281
 8345TIP3   OH246525   4.511   4.054   0.588 -0.5217  0.4332  0.1297
 8345TIP3    H146526   4.423   4.018   0.572 -0.1432 -0.3944 -0.1295
 8345TIP3    H246527   4.558   4.040   0.507 -0.5311  2.1022 -0.1959
 8346TIP3   OH246528   5.472   2.943   3.137 -0.6694  0.0134  0.1977
 8346TIP3    H146529   5.544   2.882   3.155 -0.9088 -0.5720 -0.7653
 8346TIP3    H246530   5.424   2.949   3.219 -0.0939 -0.3507  0.5699
 8347TIP3   OH246531   1.985   5.870  12.853 -0.7462  0.3856  0.0192
 8347TIP3    H146532   1.892   5.868  12.875 -0.9478  0.5382 -0.7781
 8347TIP3    H246533   1.990   5.924  12.774  0.0596  0.6479  0.2313
 8348TIP3   OH246534   5.307   3.833   4.619  0.3134  0.2090 -0.4207
 8348TIP3    H146535   5.380   3.883   4.583  0.3728 -1.0918 -2.2436
 8348TIP3    H246536   5.288   3.767   4.552 -1.5489 -0.4451  0.6895
 8349TIP3   OH246537   1.423   0.510  13.727  0.1554  0.0152 -0.2360
 8349TIP3    H146538   1.358   0.543  13.666 -0.3939 -0.5899  0.0168
 8349TIP3    H246539   1.507   0.526  13.684 -0.2415 -0.7183 -1.3032
 8350TIP3   OH246540   3.611   4.224  16.531  0.0112 -0.0139 -0.3820
 8350TIP3    H146541   3.624   4.264  16.445  1.4631 -0.6512 -0.4902
 8350TIP3    H246542   3.624   4.295  16.593  0.4879  0.1372 -0.6489
 8351TIP3   OH246543   4.565   0.860   4.320  0.5420 -0.0754  0.2226
 8351TIP3    H146544   4.495   0.795   4.326  1.1301 -0.8932 -1.2955
 8351TIP3    H246545   4.630   0.832   4.384 -0.6984  0.9723  2.0054
 8352TIP3   OH246546   3.848   4.548  16.343  0.0973 -0.0560 -0.1652
 8352TIP3    H146547   3.887   4.563  16.428 -0.0019  0.2145 -0.1680
 8352TIP3    H246548   3.841   4.452  16.336 -1.8724 -0.0543  1.0304
 8353TIP3   OH246549   3.425   3.675  15.963 -0.2397 -1.2413 -0.6405
 8353TIP3    H146550   3.427   3.750  16.023  0.4426 -0.9671 -0.9977
 8353TIP3    H246551   3.334   3.644  15.967 -0.8926  0.4427 -1.5131
 8354TIP3   OH246552   1.117   2.615  15.243 -0.2308  0.2268 -0.0455
 8354TIP3    H146553   1.023   2.617  15.223 -0.1023  0.0769 -0.6983
 8354TIP3    H246554   1.147   2.532  15.205  0.0073 -0.1426  0.9179
 8355TIP3   OH246555   1.290   2.594  11.608 -0.0172  0.4012 -0.0703
 8355TIP3    H146556   1.223   2.662  11.610  1.4153  1.8758  0.7488
 8355TIP3    H246557   1.373   2.643  11.600  0.9979 -1.3209 -0.6728
 8356TIP3   OH246558   3.478   1.109  11.818 -0.3337 -0.5825 -0.9536
 8356TIP3    H146559   3.451   1.133  11.729 -0.4483  0.1640 -0.7233
 8356TIP3    H246560   3.573   1.112  11.815 -0.3453  1.5614 -0.5102
 8357TIP3   OH246561   5.139   3.426  14.434  0.8122  1.0293  0.8094
 8357TIP3    H146562   5.108   3.515  14.453  0.4006  1.3925 -1.3416
 8357TIP3    H246563   5.199   3.436  14.360 -0.6083 -0.6401 -0.6644
 8358TIP3   OH246564   3.236   5.420  16.430 -0.2939  0.6447 -0.1785
 8358TIP3    H146565   3.317   5.409  16.481 -0.8437 -1.7622  0.3328
 8358TIP3    H246566   3.215   5.513  16.437  1.9060  1.1595  0.4655
 8359TIP3   OH246567   3.529   5.914   1.474  0.3087  0.2862 -0.2939
 8359TIP3    H146568   3.454   5.926   1.415  0.2505  1.4269 -0.0086
 8359TIP3    H246569   3.576   5.839   1.438 -0.1614  0.4787 -1.3472
 8360TIP3   OH246570   0.324   6.561   0.614 -0.6918 -0.5290 -0.1834
 8360TIP3    H146571   0.391   6.501   0.647 -0.2383  0.4004  0.6316
 8360TIP3    H246572   0.360   6.648   0.630  0.2402  0.1164 -4.4117
 8361TIP3   OH246573   3.135   2.577   4.570  0.3934 -0.0788 -0.2709
 8361TIP3    H146574   3.051   2.546   4.534  0.7151  1.8317 -2.9494
 8361TIP3    H246575   3.115   2.599   4.661 -1.7651 -0.5504 -0.5729
 8362TIP3   OH246576   1.996   2.424   6.072  0.2211  0.1172 -0.8864
 8362TIP3    H146577   2.007   2.360   6.142  3.9333  0.5257 -0.9227
 8362TIP3    H246578   1.912   2.402   6.033 -0.7930 -1.7545  2.0055
 8363TIP3   OH246579   5.091   4.732  13.924 -0.6600 -0.2408 -0.4559
 8363TIP3    H146580   5.154   4.670  13.888 -0.5874 -0.5457  0.1846
 8363TIP3    H246581   5.126   4.756  14.010 -1.7766 -1.0049  0.2510
 8364TIP3   OH246582   3.462   4.502  15.384 -0.1642  0.0187  0.2367
 8364TIP3    H146583   3.445   4.532  15.473 -1.3786 -0.4280  0.1786
 8364TIP3    H246584   3.531   4.437  15.393  1.0789  1.3313  0.5991
 8365TIP3   OH246585   4.085   3.128   5.081 -0.0810  0.2151  0.4130
 8365TIP3    H146586   4.134   3.209   5.096 -0.3562  0.6697 -0.9369
 8365TIP3    H246587   4.000   3.143   5.123 -0.1416  0.6465  0.1437
 8366TIP3   OH246588   0.993   0.606  15.058 -1.1661 -0.4596  0.2885
 8366TIP3    H146589   1.074   0.652  15.079  0.2581 -1.5853 -2.2766
 8366TIP3    H246590   0.924   0.659  15.097  0.7198  1.1156  1.6588
 8367TIP3   OH246591   3.826   1.551  17.219  0.7537 -0.1990  0.0096
 8367TIP3    H146592   3.878   1.529  17.296  1.7084  1.3105 -0.1446
 8367TIP3    H246593   3.750   1.598  17.253  0.5402 -0.6208  0.1122
 8368TIP3   OH246594   1.046   5.549  11.662  0.1103 -0.3236  0.0703
 8368TIP3    H146595   1.115   5.610  11.635  2.3669 -2.6623  0.2075
 8368TIP3    H246596   1.069   5.525  11.752 -1.7918 -0.0318  0.6824
 8369TIP3   OH246597   0.398   2.792   5.760 -0.3147  0.1026  0.1412
 8369TIP3    H146598   0.449   2.714   5.736 -3.0315 -2.3606  1.7831
 8369TIP3    H246599   0.385   2.785   5.854 -0.1353  2.9936  0.4809
 8370TIP3   OH246600   1.945   2.001  14.117 -0.1117 -1.0001  0.9876
 8370TIP3    H146601   1.853   1.993  14.145  0.4315 -2.7889  2.5231
 8370TIP3    H246602   1.978   2.078  14.163 -0.3146 -1.5719  2.1224
 8371TIP3   OH246603   3.057   0.178  13.643 -0.0852 -0.1053  0.1538
 8371TIP3    H146604   3.132   0.117  13.648 -0.1368 -0.3921 -1.7469
 8371TIP3    H246605   3.094   0.262  13.668  0.4313 -0.5674  1.0237
 8372TIP3   OH246606   6.463   2.839  13.051  0.3647 -0.7762 -0.6309
 8372TIP3    H146607   6.533   2.775  13.047  0.0167 -1.2585  0.4351
 8372TIP3    H246608   6.479   2.886  13.133  0.7901  0.7279 -1.5367
 8373TIP3   OH246609   2.345   2.514  14.067 -0.0958 -0.6998  0.5167
 8373TIP3    H146610   2.277   2.577  14.090  0.4681 -0.2354  0.8951
 8373TIP3    H246611   2.420   2.567  14.040  1.2900 -1.1065  3.2812
 8374TIP3   OH246612   1.787   5.513  12.103  0.5377 -0.3691  0.0970
 8374TIP3    H146613   1.755   5.526  12.192  0.9893 -1.1602  0.3851
 8374TIP3    H246614   1.856   5.580  12.093  0.0992  0.0957  0.1331
 8375TIP3   OH246615   5.491   4.472   5.676  0.0142  0.3159 -0.0250
 8375TIP3    H146616   5.560   4.494   5.613  1.1256  0.6478  1.2558
 8375TIP3    H246617   5.415   4.522   5.646 -0.3010 -1.4403 -2.5149
 8376TIP3   OH246618   3.929   1.597   6.251  0.3956  0.1262  0.0742
 8376TIP3    H146619   3.994   1.632   6.190  0.7051 -2.2506 -1.0410
 8376TIP3    H246620   3.970   1.606   6.337  0.2711  2.8020 -0.0406
 8377TIP3   OH246621   2.328   2.827  12.489 -0.1895 -0.2687  0.0667
 8377TIP3    H146622   2.356   2.915  12.514 -1.0507  0.2758 -0.8134
 8377TIP3    H246623   2.392   2.799  12.424 -0.5994  0.2210 -0.5639
 8378TIP3   OH246624   6.609   5.430  16.734  0.5747 -0.3533  0.0121
 8378TIP3    H146625   6.654   5.404  16.654 -0.3391  0.8285 -0.9263
 8378TIP3    H246626   6.530   5.474  16.704  0.1775  0.0741  1.5743
 8379TIP3   OH246627   4.429   1.756   0.546 -0.3470 -0.7499  0.6170
 8379TIP3    H146628   4.426   1.699   0.469  0.4143 -0.3112  0.2503
 8379TIP3    H246629   4.366   1.825   0.528 -1.1430 -1.3702  0.9837
 8380TIP3   OH246630   3.236   3.163   1.700 -0.5931 -0.0764 -0.2849
 8380TIP3    H146631   3.211   3.177   1.791 -0.1837  1.4249 -0.3782
 8380TIP3    H246632   3.315   3.216   1.688  0.1896 -1.3673 -1.1472
 8381TIP3   OH246633   0.692   4.327   2.054  0.4559 -0.2010  0.1389
 8381TIP3    H146634   0.734   4.355   1.972 -0.0357  2.2650  0.6483
 8381TIP3    H246635   0.633   4.399   2.076  0.7173 -0.6964  2.7730
 8382TIP3   OH246636   0.627   4.031  12.168 -0.0096 -0.0785  0.3443
 8382TIP3    H146637   0.626   3.960  12.104 -2.1621  0.5591 -0.4201
 8382TIP3    H246638   0.624   4.111  12.115 -1.6290  0.4699  1.2076
 8383TIP3   OH246639   0.667   3.900   2.848 -0.1187 -0.4361 -0.4837
 8383TIP3    H146640   0.749   3.945   2.828  0.1228 -0.5899  0.1573
 8383TIP3    H246641   0.693   3.819   2.890 -0.5961 -0.5927 -0.4837
 8384TIP3   OH246642   5.526   5.186  14.619 -0.4993 -0.1071 -0.2465
 8384TIP3    H146643   5.497   5.265  14.665 -1.4663  0.6830 -2.0767
 8384TIP3    H246644   5.621   5.184  14.631 -0.6886  0.1838  1.5200
 8385TIP3   OH246645   4.282   4.111   4.979 -0.8190  0.7461  0.1957
 8385TIP3    H146646   4.244   4.029   5.009  2.3053 -0.3706  1.5896
 8385TIP3    H246647   4.299   4.160   5.060  3.3630 -0.2265  0.1452
 8386TIP3   OH246648   0.558   5.875   2.205  0.4252  0.0812 -0.4959
 8386TIP3    H146649   0.477   5.839   2.169 -0.8691  2.0920  0.2605
 8386TIP3    H246650   0.600   5.918   2.132  0.9824 -1.1573 -0.9425
 8387TIP3   OH246651   1.644   1.204   1.723 -0.7240  0.7702 -0.6156
 8387TIP3    H146652   1.682   1.130   1.676  0.2090  0.9043 -0.0777
 8387TIP3    H246653   1.706   1.276   1.710  0.2355  0.4627  1.9069
 8388TIP3   OH246654   2.837   1.136  16.832  0.0270  0.3408  0.0122
 8388TIP3    H146655   2.876   1.120  16.746  2.9468  1.4271  0.9989
 8388TIP3    H246656   2.775   1.207  16.818 -2.3747 -1.9149 -1.7606
 8389TIP3   OH246657   6.248   5.400   0.664  0.1361 -0.0219 -0.6625
 8389TIP3    H146658   6.248   5.407   0.760  0.0024  0.0382 -0.6677
 8389TIP3    H246659   6.237   5.489   0.633  3.4940  0.5172 -0.7639
 8390TIP3   OH246660   1.219   0.398  16.701  0.1478  0.3822  0.0922
 8390TIP3    H146661   1.150   0.428  16.642 -0.0100  2.0145  1.0160
 8390TIP3    H246662   1.291   0.459  16.685  0.9162 -0.5427  0.0127
 8391TIP3   OH246663   6.225   4.761  11.984  0.1205  0.0572 -0.3849
 8391TIP3    H146664   6.142   4.714  11.994  0.8143 -1.0511  0.2709
 8391TIP3    H246665   6.232   4.815  12.063  0.0766  0.0870 -0.4010
 8392TIP3   OH246666   6.384   2.663   6.214  0.8259  0.2844 -0.4832
 8392TIP3    H146667   6.344   2.578   6.233  2.5040 -0.3291  0.5213
 8392TIP3    H246668   6.323   2.705   6.152 -0.2535 -1.4470 -0.6662
 8393TIP3   OH246669   1.780   1.992  12.554  0.0845 -0.0506  0.6510
 8393TIP3    H146670   1.774   2.086  12.570  3.3089  0.5317 -0.7251
 8393TIP3    H246671   1.855   1.963  12.605 -1.2228 -2.0827  1.5477
 8394TIP3   OH246672   0.041   3.190  14.100  0.7141  0.4677 -0.2752
 8394TIP3    H146673   0.051   3.097  14.122 -0.4729  0.2031 -0.7668
 8394TIP3    H246674   0.061   3.236  14.181  0.9473 -0.2427  0.0802
 8395TIP3   OH246675   6.716   0.879   3.510  0.3443 -0.1512  0.5235
 8395TIP3    H146676   6.759   0.956   3.472  0.2187 -0.3273  0.0204
 8395TIP3    H246677   6.685   0.909   3.596 -0.5513  0.6496 -0.0615
 8396TIP3   OH246678   1.149   6.477  15.586  0.1385 -0.1202 -0.0172
 8396TIP3    H146679   1.148   6.420  15.508 -0.4404  1.0588 -0.8958
 8396TIP3    H246680   1.133   6.565  15.551 -1.1958  0.2975  1.5643
 8397TIP3   OH246681   1.123   6.273   1.593  0.2027  0.2871  0.3984
 8397TIP3    H146682   1.202   6.305   1.549  1.0726 -0.4513  1.3621
 8397TIP3    H246683   1.156   6.217   1.663 -1.1645  0.4569  1.2228
 8398TIP3   OH246684   3.925   0.718   2.336 -0.5561 -0.2248 -0.3798
 8398TIP3    H146685   3.859   0.659   2.371  0.2702 -0.9149  0.0380
 8398TIP3    H246686   4.007   0.690   2.377 -0.2092  1.4782  0.1660
 8399TIP3   OH246687   1.311   6.718   5.731 -0.0803 -0.0395  0.4194
 8399TIP3    H146688   1.401   6.751   5.739 -0.5163  2.2833 -2.6476
 8399TIP3    H246689   1.321   6.630   5.695  0.9528 -0.3417  1.3848
 8400TIP3   OH246690   5.682   4.025  17.040 -0.6328 -0.2804 -0.1133
 8400TIP3    H146691   5.763   3.983  17.068  0.1865  0.9300 -0.5812
 8400TIP3    H246692   5.666   3.992  16.951 -1.0586 -1.0560  0.2374
 8401TIP3   OH246693   5.214   4.032  16.056  0.0391  0.0288 -0.0727
 8401TIP3    H146694   5.203   4.118  16.015 -3.3921  1.4119  3.0936
 8401TIP3    H246695   5.276   4.048  16.128 -1.1808  0.1727  0.9952
 8402TIP3   OH246696   5.013   3.985   0.225 -0.0964  0.1194 -0.0329
 8402TIP3    H146697   5.109   3.976   0.225 -0.2152 -1.6394  1.3305
 8402TIP3    H246698   4.994   4.034   0.145  1.8282 -0.9733 -1.2579
 8403TIP3   OH246699   3.939   5.296  13.676 -0.0660 -0.2172  0.4471
 8403TIP3    H146700   3.959   5.389  13.679  3.2135 -0.5847 -2.7940
 8403TIP3    H246701   3.974   5.261  13.758  2.7993  0.9241 -0.1569
 8404TIP3   OH246702   6.320   6.024   1.562  0.1356 -0.5922 -0.3217
 8404TIP3    H146703   6.246   6.040   1.503 -0.1134 -0.2700  0.0751
 8404TIP3    H246704   6.304   6.081   1.637  0.5134 -0.9101  0.0064
 8405TIP3   OH246705   2.660   0.125   0.288 -0.0700 -0.2428 -0.3996
 8405TIP3    H146706   2.600   0.185   0.333  0.5564  0.7273 -0.8112
 8405TIP3    H246707   2.706   0.079   0.358  0.4054  0.7602 -0.0267
 8406TIP3   OH246708   3.999   6.811   0.014 -0.0299 -0.3253  0.0960
 8406TIP3    H146709   4.069   6.788  -0.048  0.1253  0.7743 -0.1604
 8406TIP3    H246710   3.923   6.831  -0.042  0.0647  0.5149  0.2508
 8407TIP3   OH246711   5.885   0.016  12.029 -0.4378 -0.0873 -0.3732
 8407TIP3    H146712   5.964   0.025  11.975 -1.0787  0.0077 -1.3130
 8407TIP3    H246713   5.899  -0.066  12.077  0.4502  0.1802 -0.1389
 8408TIP3   OH246714   4.292   2.914   2.594 -0.5063 -0.0227 -0.1970
 8408TIP3    H146715   4.246   2.998   2.587 -0.7673 -0.2039 -0.7286
 8408TIP3    H246716   4.311   2.889   2.503  0.6292  0.0318  0.0090
 8409TIP3   OH246717   5.531   5.675   5.956  0.2357 -0.0616 -0.4430
 8409TIP3    H146718   5.476   5.608   5.996 -0.6137  0.0993 -1.2914
 8409TIP3    H246719   5.621   5.646   5.973 -0.0915 -0.1111  1.3245
 8410TIP3   OH246720   0.044   0.278   0.886  0.1943  0.1561 -0.1664
 8410TIP3    H146721  -0.030   0.328   0.919 -0.9662 -0.2885 -1.9670
 8410TIP3    H246722   0.117   0.340   0.888 -0.6166  1.1314  0.0230
 8411TIP3   OH246723   5.709   1.784   2.256  0.4026  0.0728 -0.0626
 8411TIP3    H146724   5.679   1.871   2.230  0.4445 -0.3737 -1.7276
 8411TIP3    H246725   5.651   1.724   2.209  0.8953 -0.7926  0.4088
 8412TIP3   OH246726   1.970   1.998   6.407  0.1281  0.5951 -0.0097
 8412TIP3    H146727   1.987   2.054   6.331 -0.8941  0.5939 -0.2476
 8412TIP3    H246728   1.877   2.008   6.424  0.7193  2.4552  2.7300
 8413TIP3   OH246729   2.032   1.166  15.383  0.0160 -0.9988  0.5733
 8413TIP3    H146730   2.011   1.083  15.425  2.2791 -1.9251 -0.0004
 8413TIP3    H246731   2.059   1.141  15.294  0.0360  0.4317  0.1562
 8414TIP3   OH246732   5.786   4.696  16.443  0.4946  0.3470  0.3762
 8414TIP3    H146733   5.821   4.728  16.526  1.4299  0.2254  0.0483
 8414TIP3    H246734   5.815   4.761  16.378 -1.9051  1.5150  0.3822
 8415TIP3   OH246735   2.083   3.959   4.490 -0.2321  0.2689 -0.2432
 8415TIP3    H146736   2.174   3.989   4.495 -0.0368 -0.4498  1.1705
 8415TIP3    H246737   2.042   3.993   4.570 -0.6205 -1.1889  0.2123
 8416TIP3   OH246738   6.541   5.252  17.088  0.4544 -0.0048 -0.5442
 8416TIP3    H146739   6.478   5.259  17.159  0.4360  0.5939 -0.6116
 8416TIP3    H246740   6.625   5.241  17.132  0.3044 -0.8813 -0.4557
 8417TIP3   OH246741   1.828   3.095   5.499 -0.3631  0.0577  0.2981
 8417TIP3    H146742   1.856   3.179   5.463 -0.1648  0.0949  0.5356
 8417TIP3    H246743   1.777   3.118   5.577 -1.3846  0.0106 -0.3274
 8418TIP3   OH246744   4.470   0.905  14.196 -0.5673 -0.0817 -1.0428
 8418TIP3    H146745   4.479   0.948  14.280  1.7811 -2.7373  0.2276
 8418TIP3    H246746   4.375   0.896  14.183 -1.0184 -1.2863  2.2905
 8419TIP3   OH246747   3.754   4.869   1.080  0.3916 -0.2100 -0.0301
 8419TIP3    H146748   3.794   4.942   1.126 -2.4795  0.0621  2.3274
 8419TIP3    H246749   3.701   4.909   1.011 -0.4079 -0.1011  0.6345
 8420TIP3   OH246750   3.108   3.783   3.939 -0.1998 -0.6207 -0.0851
 8420TIP3    H146751   3.165   3.797   3.864 -0.1546  0.8062  0.1986
 8420TIP3    H246752   3.040   3.724   3.906 -0.6767  0.6725 -1.5065
 8421TIP3   OH246753   4.390   1.018  14.433 -0.2929 -0.0417  0.2353
 8421TIP3    H146754   4.451   0.970  14.489 -0.3326 -0.6783 -0.2527
 8421TIP3    H246755   4.309   0.967  14.437 -0.0403 -0.5927 -1.0718
 8422TIP3   OH246756   2.951   1.835  14.955  0.5307  0.5680  0.2390
 8422TIP3    H146757   2.933   1.814  15.047 -0.0262 -0.5134 -0.0937
 8422TIP3    H246758   2.876   1.886  14.927  0.8512  1.1698  0.4626
 8423TIP3   OH246759   0.366   3.099   1.390 -0.4002 -0.5560  0.2125
 8423TIP3    H146760   0.311   3.177   1.385  2.0796  1.5725  2.4803
 8423TIP3    H246761   0.379   3.073   1.299 -1.3051  1.7305 -0.6550
 8424TIP3   OH246762   0.599   0.532   0.853 -0.0206  0.0330 -0.4415
 8424TIP3    H146763   0.670   0.565   0.797 -0.4474  0.1476 -0.9174
 8424TIP3    H246764   0.622   0.563   0.941  0.1039  0.7584 -0.7203
 8425TIP3   OH246765   3.662   0.885   0.073 -0.2310 -0.2996  0.1403
 8425TIP3    H146766   3.683   0.915  -0.016  0.7123  0.0214  0.4521
 8425TIP3    H246767   3.584   0.831   0.063  0.1065 -0.6092 -0.9449
 8426TIP3   OH246768   0.331   3.787  13.058 -0.2936 -0.0081 -0.1320
 8426TIP3    H146769   0.297   3.768  12.970 -1.0164  0.7748 -0.0345
 8426TIP3    H246770   0.315   3.881  13.070  2.2694  0.5354 -0.2302
 8427TIP3   OH246771   5.675   3.177   1.262 -0.1812 -0.8153  0.0493
 8427TIP3    H146772   5.609   3.118   1.297  0.9853 -1.2868  1.5954
 8427TIP3    H246773   5.745   3.177   1.328  0.7529  0.7260 -0.8570
 8428TIP3   OH246774   3.275   1.407   0.512  0.1839 -0.3338 -0.1526
 8428TIP3    H146775   3.281   1.434   0.420  0.6648 -0.7072 -0.2342
 8428TIP3    H246776   3.302   1.484   0.561  0.0186 -0.1616 -0.3306
 8429TIP3   OH246777   6.320   5.921  14.773 -0.2909 -0.2914  0.3459
 8429TIP3    H146778   6.320   5.859  14.701 -1.0532 -2.2484  1.9466
 8429TIP3    H246779   6.234   5.962  14.770 -0.3184 -0.3643  0.1596
 8430TIP3   OH246780   2.765   5.398   0.690 -0.4495  1.3430 -0.0262
 8430TIP3    H146781   2.704   5.422   0.760 -0.0643  1.1611  0.3717
 8430TIP3    H246782   2.712   5.343   0.632 -0.5358  0.7641  0.5840
 8431TIP3   OH246783   2.507   4.939  12.648 -0.0900  0.5046  0.0853
 8431TIP3    H146784   2.497   5.019  12.700 -1.7700  1.1205 -1.0944
 8431TIP3    H246785   2.593   4.946  12.608  0.3114  1.0861  1.0225
 8432TIP3   OH246786   2.221   6.156   5.232  0.0080  0.1097  0.1055
 8432TIP3    H146787   2.163   6.229   5.253 -0.9048 -0.1724 -1.3108
 8432TIP3    H246788   2.309   6.191   5.246 -0.3463  1.9011 -1.6328
 8433TIP3   OH246789   6.645   1.911   4.819 -0.1152  0.1380  0.7625
 8433TIP3    H146790   6.655   1.943   4.908 -1.8068  1.4778  0.5171
 8433TIP3    H246791   6.554   1.931   4.796  0.9345  2.1642 -2.1355
 8434TIP3   OH246792   4.005   5.079   3.598 -0.3321 -0.1440 -0.3754
 8434TIP3    H146793   4.067   5.039   3.537 -0.1365  0.5047 -0.6067
 8434TIP3    H246794   3.983   5.009   3.659  1.4348 -0.1254  0.3475
 8435TIP3   OH246795   0.472   3.748  10.792 -0.5781 -0.4700 -0.0968
 8435TIP3    H146796   0.386   3.754  10.834 -1.8433  0.3323 -2.5782
 8435TIP3    H246797   0.468   3.669  10.739  1.3651 -2.0431  1.8851
 8436TIP3   OH246798   0.692   3.040   1.197 -0.4272  0.0962  0.2861
 8436TIP3    H146799   0.605   3.079   1.200 -0.3114  0.3183  0.9139
 8436TIP3    H246800   0.677   2.947   1.217 -0.6962 -0.2076 -1.1651
 8437TIP3   OH246801   6.718   6.441  11.324 -0.8782 -0.0383  0.4164
 8437TIP3    H146802   6.660   6.430  11.249 -0.3065 -0.8127  0.0730
 8437TIP3    H246803   6.802   6.466  11.286 -1.1050  1.6482  0.9425
 8438TIP3   OH246804   0.560   3.692   0.839  0.1805  0.0572  0.1625
 8438TIP3    H146805   0.615   3.624   0.800 -0.7024 -0.0326 -0.9701
 8438TIP3    H246806   0.478   3.646   0.861 -0.0868  0.5646  0.2330
 8439TIP3   OH246807   3.827   2.680  15.821  0.5193 -0.1316 -0.8532
 8439TIP3    H146808   3.834   2.721  15.735 -0.4951  0.4264 -0.6860
 8439TIP3    H246809   3.781   2.745  15.875  0.1149 -0.9324 -0.2081
 8440TIP3   OH246810   4.666   1.204   3.659  0.0828  0.0363  0.1116
 8440TIP3    H146811   4.684   1.113   3.682 -0.6340  0.5191  3.1188
 8440TIP3    H246812   4.585   1.225   3.707 -0.1893  2.0501 -1.1051
 8441TIP3   OH246813   2.801   4.485   4.917  0.0488  0.4494 -0.7367
 8441TIP3    H146814   2.803   4.539   4.996  1.2832 -1.9619  1.0214
 8441TIP3    H246815   2.884   4.438   4.917 -1.1997 -1.9739 -1.7070
 8442TIP3   OH246816   3.888   2.944  16.760  1.0118  0.3193  0.9693
 8442TIP3    H146817   3.932   2.974  16.680  0.0582  1.5293  0.8727
 8442TIP3    H246818   3.890   2.849  16.753 -0.4562  0.3745 -1.3323
 8443TIP3   OH246819   0.152   2.250  13.074  0.1790  0.0951 -0.5024
 8443TIP3    H146820   0.229   2.193  13.072  0.3268  0.2926 -0.4920
 8443TIP3    H246821   0.118   2.242  13.163 -0.1442 -0.4290 -0.6661
 8444TIP3   OH246822   6.591   6.768  14.799  0.0080  0.2450  0.3344
 8444TIP3    H146823   6.661   6.808  14.748 -1.0979  1.0781 -0.5745
 8444TIP3    H246824   6.605   6.800  14.888  1.6768 -0.8456  0.5044
 8445TIP3   OH246825   4.698   1.902   3.286 -0.0982 -0.3524  0.3969
 8445TIP3    H146826   4.778   1.866   3.324 -0.0729  1.3962  2.1946
 8445TIP3    H246827   4.627   1.856   3.331 -0.0605  0.9236  1.8516
 8446TIP3   OH246828   0.182   0.183  14.760  0.3464 -0.3907 -0.4061
 8446TIP3    H146829   0.243   0.195  14.687  0.4541  0.8621 -0.1373
 8446TIP3    H246830   0.206   0.252  14.822 -1.3253  0.1132 -0.2775
 8447TIP3   OH246831   5.271   3.747  16.686  0.0118 -0.6802 -0.5115
 8447TIP3    H146832   5.286   3.837  16.659  0.1859 -0.6410 -0.2836
 8447TIP3    H246833   5.273   3.749  16.781  2.6161 -1.3361 -0.4713
 8448TIP3   OH246834   5.819   6.707  15.670 -0.1268  0.5422  0.5117
 8448TIP3    H146835   5.875   6.633  15.692 -0.3230  0.3705  0.4413
 8448TIP3    H246836   5.792   6.743  15.754 -1.0803 -0.2659  0.5665
 8449TIP3   OH246837   4.082   4.269   4.895  0.0974 -0.4556  0.3928
 8449TIP3    H146838   4.059   4.305   4.981  0.2467 -1.5271  0.9027
 8449TIP3    H246839   4.147   4.202   4.914  1.0878  0.1552 -0.6954
 8450TIP3   OH246840   6.009   1.059  17.137 -0.5867 -0.2787  0.0806
 8450TIP3    H146841   5.990   0.966  17.148 -0.7396 -0.1699  0.7479
 8450TIP3    H246842   6.022   1.069  17.043 -0.0442 -1.0742  0.0525
 8451TIP3   OH246843   2.619   0.002  13.555 -0.0618  0.3144 -0.0982
 8451TIP3    H146844   2.664   0.085  13.572 -0.1713  0.0273  1.7043
 8451TIP3    H246845   2.579   0.015  13.468  0.8533  1.7155 -0.3537
 8452TIP3   OH246846   6.020   5.596  10.980 -0.0796  0.6127 -0.6061
 8452TIP3    H146847   5.974   5.572  10.899 -1.2473  0.2704  0.1261
 8452TIP3    H246848   6.086   5.660  10.953  0.4442 -0.4733 -2.0261
 8453TIP3   OH246849   6.000   0.940   2.551  0.2404  0.3285 -0.1057
 8453TIP3    H146850   5.950   0.862   2.528 -0.1916  0.8745 -1.0762
 8453TIP3    H246851   6.008   0.989   2.469  2.3806  0.2653  0.0029
 8454TIP3   OH246852   5.469   0.629   0.993  0.7734  0.3395 -0.4319
 8454TIP3    H146853   5.474   0.567   0.920  0.2999 -2.0935  1.4520
 8454TIP3    H246854   5.512   0.584   1.065 -1.0285  1.5102  1.4980
 8455TIP3   OH246855   5.556   3.718   4.285 -0.2970  0.3847 -0.7551
 8455TIP3    H146856   5.575   3.770   4.363 -0.3574  0.0170 -0.4970
 8455TIP3    H246857   5.462   3.701   4.289 -0.2357  0.0489 -0.7105
 8456TIP3   OH246858   6.254   1.595  14.462 -0.0635 -0.7141  0.3361
 8456TIP3    H146859   6.195   1.653  14.510  1.7221  1.2512  0.2867
 8456TIP3    H246860   6.244   1.510  14.505 -0.9003  0.2160  2.0742
 8457TIP3   OH246861   4.977   3.005  10.876  0.0520  0.1100  0.1906
 8457TIP3    H146862   5.034   3.071  10.916  0.6809 -1.4182  1.9367
 8457TIP3    H246863   4.974   2.934  10.939 -0.6640 -1.5417 -1.6017
 8458TIP3   OH246864   2.978   3.279  12.568  0.5579  0.2639  0.1166
 8458TIP3    H146865   2.909   3.342  12.592  1.6771  0.3403  3.5941
 8458TIP3    H246866   2.946   3.195  12.602  0.8104 -0.3320 -1.0794
 8459TIP3   OH246867   0.736   5.514   3.820  0.0860 -0.1767 -0.3075
 8459TIP3    H146868   0.758   5.597   3.863 -1.3464 -0.0279  0.1731
 8459TIP3    H246869   0.821   5.477   3.796  0.7542  1.6534 -0.9928
 8460TIP3   OH246870   4.052   1.737  11.641  0.4204  0.2215  0.3638
 8460TIP3    H146871   4.024   1.670  11.703 -0.6438 -0.0634 -0.4058
 8460TIP3    H246872   3.979   1.747  11.580  2.1896 -1.0753 -2.1846
 8461TIP3   OH246873   6.687   3.557   3.544  0.2845 -0.0657  0.3028
 8461TIP3    H146874   6.741   3.631   3.516  0.2689  0.4141  1.5258
 8461TIP3    H246875   6.601   3.594   3.562  0.1013 -0.4882  0.3201
 8462TIP3   OH246876   1.775   1.344  13.564 -0.6881 -0.0211  0.2579
 8462TIP3    H146877   1.801   1.284  13.495 -0.2019  0.8765 -0.3614
 8462TIP3    H246878   1.684   1.365  13.546  0.0123  1.8873 -1.4311
 8463TIP3   OH246879   6.315   0.546  12.406 -0.3346  0.2308 -0.5103
 8463TIP3    H146880   6.248   0.608  12.377  0.5022  0.0991 -2.8763
 8463TIP3    H246881   6.275   0.460  12.393 -0.5472  0.1786  0.3707
 8464TIP3   OH246882   5.204   2.878  14.683  0.0964  0.9473 -0.0555
 8464TIP3    H146883   5.147   2.807  14.654  0.7375  0.4264 -0.0602
 8464TIP3    H246884   5.211   2.936  14.607  1.2074 -0.0512 -0.7540
 8465TIP3   OH246885   0.446   2.369  16.121  0.3110  0.4525 -0.3959
 8465TIP3    H146886   0.360   2.406  16.140  0.4628  0.0523  1.3002
 8465TIP3    H246887   0.508   2.434  16.152  0.5847 -0.1554  0.3796
 8466TIP3   OH246888   2.928   0.513  13.770 -0.2222 -0.8061 -0.3803
 8466TIP3    H146889   2.934   0.608  13.769 -1.4156 -0.7063 -0.0027
 8466TIP3    H246890   2.938   0.487  13.678 -1.3073 -0.1998 -0.6818
 8467TIP3   OH246891   0.628   2.981  11.812  0.0021 -0.2536 -0.0776
 8467TIP3    H146892   0.578   2.930  11.876 -0.2908 -0.8654 -0.7860
 8467TIP3    H246893   0.639   2.922  11.737  3.4992 -0.9483  0.7673
 8468TIP3   OH246894   2.248   4.501  14.913  0.3765  0.8472 -0.1011
 8468TIP3    H146895   2.302   4.534  14.840  1.7454  2.4367  1.5410
 8468TIP3    H246896   2.298   4.523  14.991 -1.6538  0.3500  1.4072
 8469TIP3   OH246897   4.112   2.011   1.311 -0.1333 -0.1894 -0.2247
 8469TIP3    H146898   4.059   1.989   1.387  1.7356  0.9776  1.4973
 8469TIP3    H246899   4.167   1.935   1.296 -0.3055 -0.3109 -0.2433
 8470TIP3   OH246900   6.442   4.519   6.053 -0.3233  0.2253 -0.0707
 8470TIP3    H146901   6.385   4.562   6.117 -0.0943  1.8296 -0.8774
 8470TIP3    H246902   6.514   4.582   6.040  0.2814 -0.6245 -0.9604
 8471TIP3   OH246903   6.052   0.045   2.909 -0.3130  0.3982 -0.2275
 8471TIP3    H146904   5.959   0.021   2.920 -1.0046  2.7278 -0.4494
 8471TIP3    H246905   6.051   0.115   2.844  1.6548  0.3059 -0.4064
 8472TIP3   OH246906   4.058   4.004  17.223 -0.1609  0.7308  0.0679
 8472TIP3    H146907   4.078   3.958  17.141 -0.3652  1.7510 -0.5635
 8472TIP3    H246908   4.049   3.933  17.287 -0.5228 -0.1328 -0.8949
 8473TIP3   OH246909   5.978   2.596   0.499 -0.4346 -0.0536  0.0803
 8473TIP3    H146910   5.952   2.590   0.590  1.3926 -0.4276  0.6227
 8473TIP3    H246911   6.047   2.663   0.498 -1.2710  0.8369 -1.2407
 8474TIP3   OH246912   4.003   1.057  13.231  0.1159 -0.0569  0.6621
 8474TIP3    H146913   4.076   1.103  13.188  1.3744 -0.2249  2.5223
 8474TIP3    H246914   3.976   1.115  13.302 -0.6778 -0.6142  0.8314
 8475TIP3   OH246915   2.773   0.117  15.428 -0.0478 -0.1643 -0.6255
 8475TIP3    H146916   2.818   0.084  15.506 -0.5068 -2.2179 -1.1647
 8475TIP3    H246917   2.682   0.128  15.456 -0.4708 -2.0257 -1.0935
 8476TIP3   OH246918   3.564   2.607  17.241  0.0496  0.1544  0.2544
 8476TIP3    H146919   3.659   2.596  17.241  0.4640  1.7412 -3.8305
 8476TIP3    H246920   3.530   2.519  17.231  1.4148 -0.1984 -2.0998
 8477TIP3   OH246921   2.513   0.722  16.919 -0.0839  0.0344 -0.5837
 8477TIP3    H146922   2.607   0.723  16.901 -0.0899  0.1075 -0.6129
 8477TIP3    H246923   2.503   0.768  17.002  0.0723 -1.4388  0.2829
 8478TIP3   OH246924   0.883   4.343   5.659  0.1376 -0.2487  0.3236
 8478TIP3    H146925   0.832   4.280   5.608  0.7570 -1.2233  0.8590
 8478TIP3    H246926   0.851   4.332   5.749  0.0579  0.4076  0.3761
 8479TIP3   OH246927   2.584   5.835  14.878  0.0533  0.1053  0.0975
 8479TIP3    H146928   2.510   5.802  14.928  0.6861  0.7107  1.5074
 8479TIP3    H246929   2.593   5.926  14.906  0.7869  0.2973 -0.7156
 8480TIP3   OH246930   3.135   4.944   0.384 -0.3661  0.2638  0.2913
 8480TIP3    H146931   3.086   4.867   0.355 -0.5007  0.8958 -1.2650
 8480TIP3    H246932   3.076   5.018   0.369  0.2214  0.8067  0.5623
 8481TIP3   OH246933   5.998   0.326   0.965 -0.1382 -0.2413  0.5809
 8481TIP3    H146934   6.019   0.414   0.995 -0.6000  0.0233  0.1441
 8481TIP3    H246935   5.912   0.307   1.002  0.1925 -0.7229  1.1172
 8482TIP3   OH246936   0.110   4.011   2.648  0.0702 -0.0114  0.4198
 8482TIP3    H146937   0.104   3.917   2.663  0.6135 -0.1108  0.0563
 8482TIP3    H246938   0.125   4.020   2.554 -3.3380  0.6177 -0.1647
 8483TIP3   OH246939   0.033   4.914  14.912 -0.1323 -0.0865 -0.5607
 8483TIP3    H146940   0.084   4.834  14.920 -1.6773 -1.3012 -2.0077
 8483TIP3    H246941   0.080   4.979  14.964  0.5749 -2.2015  1.5658
 8484TIP3   OH246942   5.176   2.263   4.074  0.4264 -0.0876 -0.6111
 8484TIP3    H146943   5.231   2.194   4.037  0.5366 -1.0316  1.2286
 8484TIP3    H246944   5.237   2.316   4.126 -0.4099 -1.5274  1.9910
 8485TIP3   OH246945   3.269   2.205   1.148  0.0045 -0.0208  0.6862
 8485TIP3    H146946   3.269   2.300   1.142  1.8004 -0.0848 -1.8035
 8485TIP3    H246947   3.184   2.178   1.113 -0.0294  0.6502  0.2400
 8486TIP3   OH246948   0.507   1.226   1.327 -0.2236  0.1960 -0.1000
 8486TIP3    H146949   0.579   1.210   1.389  0.0402  0.1700 -0.4088
 8486TIP3    H246950   0.445   1.155   1.344  0.4163 -0.5297 -0.6938
 8487TIP3   OH246951   2.805   3.008   3.530 -0.4420  0.1290 -0.5591
 8487TIP3    H146952   2.803   3.067   3.455 -0.3198  0.5712 -0.2184
 8487TIP3    H246953   2.881   2.951   3.514 -0.4813  0.1519 -0.8217
 8488TIP3   OH246954   6.095   5.194   4.660 -0.5416 -0.5614 -0.3937
 8488TIP3    H146955   6.117   5.102   4.651  1.6900 -0.2534  1.0061
 8488TIP3    H246956   6.061   5.220   4.575  1.1343 -2.0932 -1.5991
 8489TIP3   OH246957   0.472   6.638   0.372 -0.5547  0.2465  0.4305
 8489TIP3    H146958   0.560   6.666   0.396 -0.2650  0.0782 -0.3894
 8489TIP3    H246959   0.459   6.556   0.418 -0.4022  0.4253  0.7968
 8490TIP3   OH246960   6.247   4.209  14.109 -0.3837 -0.1421 -0.1549
 8490TIP3    H146961   6.181   4.146  14.138  0.6852 -1.3432 -0.2141
 8490TIP3    H246962   6.227   4.224  14.016 -1.7005  0.9967  0.2877
 8491TIP3   OH246963   6.812   6.647   3.540  0.2966 -0.1347  0.0426
 8491TIP3    H146964   6.765   6.706   3.481  1.7846  1.6186  0.4858
 8491TIP3    H246965   6.855   6.584   3.482  1.4385  1.3357 -0.7711
 8492TIP3   OH246966   5.709   0.210   2.023 -0.3161  0.1431  0.6814
 8492TIP3    H146967   5.625   0.182   2.059 -0.5291 -0.4656 -0.2645
 8492TIP3    H246968   5.694   0.215   1.929  0.5701  0.5415  0.5544
 8493TIP3   OH246969   4.946   0.990   1.557 -0.2370 -0.2163  0.4530
 8493TIP3    H146970   4.994   1.068   1.530  0.9737 -1.1554 -0.2026
 8493TIP3    H246971   4.883   0.975   1.487  2.1053 -1.9748 -1.4425
 8494TIP3   OH246972   2.041   4.160  10.723  0.7182 -0.3588 -0.4718
 8494TIP3    H146973   1.956   4.151  10.766  0.4591  0.4892 -0.7891
 8494TIP3    H246974   2.064   4.070  10.697  0.1473 -0.6607  0.0359
 8495TIP3   OH246975   4.700   1.463   3.491  0.4528 -0.4197 -0.2595
 8495TIP3    H146976   4.620   1.447   3.543  2.0043 -0.7949  2.1656
 8495TIP3    H246977   4.746   1.379   3.492  2.1108  0.4462  0.6858
 8496TIP3   OH246978   4.568   1.077  12.809  0.0849  0.0329  0.3387
 8496TIP3    H146979   4.509   1.151  12.821  0.0769  0.1414 -0.3109
 8496TIP3    H246980   4.528   1.026  12.739  0.8311  0.1863 -0.2102
 8497TIP3   OH246981   5.230   5.629  16.923  0.0202 -0.7128 -0.1537
 8497TIP3    H146982   5.318   5.620  16.958  0.1338 -1.6181 -0.6492
 8497TIP3    H246983   5.232   5.712  16.875  0.8893 -1.1768 -0.9537
 8498TIP3   OH246984   2.826   5.947  13.372 -0.1388  0.5594  0.2498
 8498TIP3    H146985   2.777   5.942  13.290 -0.1964 -1.5187  0.3539
 8498TIP3    H246986   2.848   5.856  13.392  1.5831  1.2137  1.5332
 8499TIP3   OH246987   2.460   3.170   4.479  0.2323  0.3946 -0.5785
 8499TIP3    H146988   2.521   3.105   4.514 -1.2950 -0.1033  1.3628
 8499TIP3    H246989   2.377   3.122   4.469 -0.1124  1.2585 -2.3059
 8500TIP3   OH246990   4.748   6.670   4.454 -0.1803  0.2450 -0.3475
 8500TIP3    H146991   4.792   6.731   4.394 -0.8842  1.2346  0.1198
 8500TIP3    H246992   4.712   6.726   4.522 -1.6074 -0.6072 -0.3794
 8501TIP3   OH246993   4.770   6.407   3.286  0.1104 -0.1637 -0.0625
 8501TIP3    H146994   4.694   6.353   3.310 -0.7376  1.2292  0.5492
 8501TIP3    H246995   4.844   6.367   3.331 -0.7254 -0.1032  1.4456
 8502TIP3   OH246996   3.587   5.090  15.594  0.1648 -0.1332 -0.1851
 8502TIP3    H146997   3.554   5.098  15.504 -0.9708 -2.1318 -0.0096
 8502TIP3    H246998   3.589   5.180  15.627 -2.4292  0.3847 -1.1749
 8503TIP3   OH246999   0.509   2.556   5.703  0.2990  0.7539  0.2398
 8503TIP3    H147000   0.557   2.581   5.782 -0.9468  1.6262  0.7578
 8503TIP3    H247001   0.556   2.480   5.669  0.2535 -0.2949  2.4014
 8504TIP3   OH247002   0.579   6.004  13.672 -0.3850  0.1055 -0.1156
 8504TIP3    H147003   0.596   5.985  13.580  0.3527  2.4123 -0.5278
 8504TIP3    H247004   0.552   6.096  13.673  0.0701  0.2792  2.0161
 8505TIP3   OH247005   0.653   2.236   0.938  0.1275  0.4533 -0.2769
 8505TIP3    H147006   0.712   2.173   0.980 -0.0450  0.3581 -0.1762
 8505TIP3    H247007   0.619   2.190   0.862 -0.9980 -0.0451  0.5088
 8506TIP3   OH247008   3.843   4.601  15.038 -0.1650 -0.1664  0.3500
 8506TIP3    H147009   3.765   4.576  15.088  0.7968 -3.1600  0.5237
 8506TIP3    H247010   3.839   4.548  14.959  0.4060  1.5965 -0.9390
 8507TIP3   OH247011   6.659   1.918   5.109 -0.3734 -0.0678  0.2874
 8507TIP3    H147012   6.628   1.951   5.194 -0.6429 -0.7154  0.4484
 8507TIP3    H247013   6.634   1.825   5.109  1.7599 -0.6757  0.5007
 8508TIP3   OH247014   3.279   2.324  15.824 -0.2380 -0.6151 -0.2871
 8508TIP3    H147015   3.280   2.291  15.914 -0.1530  1.3697  0.4807
 8508TIP3    H247016   3.365   2.301  15.789  0.7790  0.8974  1.0624
 8509TIP3   OH247017   0.389   2.301   6.130 -0.2687  0.0248 -0.1990
 8509TIP3    H147018   0.456   2.353   6.175 -0.6691 -0.1899  0.6639
 8509TIP3    H247019   0.316   2.297   6.191 -0.5342 -0.9263 -0.5598
 8510TIP3   OH247020   1.958   0.675  10.551 -0.6567  1.1060  0.3077
 8510TIP3    H147021   1.975   0.656  10.459 -0.7987  0.9509  0.3131
 8510TIP3    H247022   1.898   0.750  10.549 -0.7656  1.0189  0.2701
 8511TIP3   OH247023   4.055   2.844   5.795  0.0745 -0.2142 -0.2218
 8511TIP3    H147024   4.038   2.796   5.715  1.2728  0.4879 -0.9338
 8511TIP3    H247025   4.150   2.857   5.795 -0.3126  3.8606 -1.1148
 8512TIP3   OH247026   1.731   6.342  15.722  0.0383  0.1758  0.9437
 8512TIP3    H147027   1.802   6.388  15.677 -0.8815  0.0244 -0.7647
 8512TIP3    H247028   1.661   6.408  15.729 -0.0961 -0.0244  1.4912
 8513TIP3   OH247029   2.504   0.075  15.873 -0.5631  0.5023 -0.0121
 8513TIP3    H147030   2.555  -0.006  15.875 -0.8263  0.3456  0.7859
 8513TIP3    H247031   2.569   0.144  15.883 -0.5159  0.2807  1.5803
 8514TIP3   OH247032   1.372   6.769   4.263  0.1191 -0.2704 -0.0706
 8514TIP3    H147033   1.383   6.864   4.264 -0.3987 -0.1957  0.9529
 8514TIP3    H247034   1.326   6.751   4.181 -2.2725  0.7217  0.9527
 8515TIP3   OH247035   6.705   6.495   0.753  0.2647  0.1437 -0.6398
 8515TIP3    H147036   6.774   6.487   0.688  2.9937  2.3144  1.7114
 8515TIP3    H247037   6.627   6.520   0.703  2.3427  2.3915 -3.0682
 8516TIP3   OH247038   2.887   0.451  14.776  0.0572 -0.2609 -0.8847
 8516TIP3    H147039   2.799   0.418  14.760  0.1529 -2.9270  2.9561
 8516TIP3    H247040   2.940   0.414  14.705 -1.4564 -0.7021 -1.8179
 8517TIP3   OH247041   5.463   6.404   2.088  0.2696  0.1548 -0.1786
 8517TIP3    H147042   5.499   6.478   2.039  0.3384 -0.1466 -0.5931
 8517TIP3    H247043   5.379   6.435   2.120  0.0621  0.2451 -0.7961
 8518TIP3   OH247044   6.370   3.576   1.746 -0.2815  0.1872  0.2147
 8518TIP3    H147045   6.340   3.602   1.833 -0.2356 -0.5135  0.4500
 8518TIP3    H247046   6.418   3.652   1.713  1.9835 -0.4052  1.8615
 8519TIP3   OH247047   3.965   5.176  12.132  0.2010  0.1424  0.3723
 8519TIP3    H147048   3.899   5.238  12.164  0.5450  1.2238 -0.9543
 8519TIP3    H247049   4.047   5.225  12.134  0.1529  0.5297 -2.7342
 8520TIP3   OH247050   0.364   4.995  16.958 -0.6336  0.3673  0.2322
 8520TIP3    H147051   0.358   4.948  17.041 -0.7266 -0.2206 -0.1033
 8520TIP3    H247052   0.279   4.981  16.916 -0.4889  0.4231 -0.0863
 8521TIP3   OH247053   6.623   3.056  16.642  0.2914  0.2907 -0.0184
 8521TIP3    H147054   6.611   3.108  16.563 -2.3756 -0.1553 -0.0153
 8521TIP3    H247055   6.694   2.995  16.620  0.9472  1.4710 -1.3191
 8522TIP3   OH247056   4.409   6.570   4.142  0.8826  0.2549  0.1309
 8522TIP3    H147057   4.478   6.635   4.128 -0.3142  1.1752 -2.0206
 8522TIP3    H247058   4.427   6.502   4.077 -0.4213  0.7132 -0.7562
 8523TIP3   OH247059   3.728   4.900   2.172 -0.1354 -0.2025  0.6740
 8523TIP3    H147060   3.645   4.872   2.211 -0.7767  0.0857 -0.4441
 8523TIP3    H247061   3.708   4.984   2.132  0.9057  0.2341  1.0509
 8524TIP3   OH247062   4.916   6.304  14.868  0.2309 -0.0701 -0.1835
 8524TIP3    H147063   4.988   6.361  14.842  0.1011  0.0456 -0.2904
 8524TIP3    H247064   4.885   6.265  14.786 -0.7903  1.0117 -0.3339
 8525TIP3   OH247065   6.634   3.842   2.300  0.1236 -0.0975  0.2056
 8525TIP3    H147066   6.682   3.767   2.335  0.8336  1.1998  2.1876
 8525TIP3    H247067   6.699   3.913   2.298 -0.2655  0.2865 -2.5081
 8526TIP3   OH247068   0.710   3.900   0.038  0.0536 -0.3980 -0.3385
 8526TIP3    H147069   0.769   3.897  -0.037  0.5390 -0.0561  0.0342
 8526TIP3    H247070   0.681   3.809   0.048  0.0464 -0.4610 -0.8868
 8527TIP3   OH247071   4.341   6.508  13.904 -0.0337  0.2714 -0.2984
 8527TIP3    H147072   4.296   6.471  13.980  0.5772  1.2621  0.5631
 8527TIP3    H247073   4.295   6.590  13.887 -0.0318  0.1594 -0.8879
 8528TIP3   OH247074   0.610   1.392   3.362 -0.3310  0.3184 -0.5224
 8528TIP3    H147075   0.686   1.363   3.312 -0.0909  1.3248 -0.7669
 8528TIP3    H247076   0.547   1.423   3.297 -0.3024  0.9755 -0.2483
 8529TIP3   OH247077   6.054   5.953   3.651  0.0329  0.2882 -0.1842
 8529TIP3    H147078   6.130   6.003   3.621  1.6321 -0.6882  2.0302
 8529TIP3    H247079   5.989   6.020   3.674  0.1405  1.1312 -2.1323
 8530TIP3   OH247080   2.630   4.078   6.375 -0.6405  0.8340 -0.5841
 8530TIP3    H147081   2.630   3.985   6.400  0.4549  1.1531  0.7198
 8530TIP3    H247082   2.713   4.091   6.329 -0.9060  1.1189 -0.9884
 8531TIP3   OH247083   6.522   5.348   0.304 -0.5415 -0.3214  0.1743
 8531TIP3    H147084   6.436   5.318   0.275 -0.9744 -0.1037  1.2022
 8531TIP3    H247085   6.583   5.280   0.273 -1.1051 -0.6035 -0.3300
 8532TIP3   OH247086   5.562   5.272   0.996 -0.2895 -0.3851  0.3611
 8532TIP3    H147087   5.488   5.213   0.982  1.1368 -1.8635 -1.4502
 8532TIP3    H247088   5.629   5.216   1.037  0.2471  0.6366  0.9098
 8533TIP3   OH247089   3.862   4.861   1.664 -0.3027  0.2871 -0.2244
 8533TIP3    H147090   3.864   4.792   1.597 -0.3368  1.6880 -1.7198
 8533TIP3    H247091   3.786   4.839   1.718 -1.0463 -0.1951 -1.4132
 8534TIP3   OH247092   1.142   4.628   6.724  0.0061  0.0414  0.2011
 8534TIP3    H147093   1.058   4.638   6.679  0.1003  0.7738  0.1761
 8534TIP3    H247094   1.144   4.701   6.786 -0.3687 -1.2776  1.8142
 8535TIP3   OH247095   2.075   0.338   4.257  0.3466  0.1376 -0.3241
 8535TIP3    H147096   2.078   0.339   4.161 -4.2719 -1.8481 -0.7732
 8535TIP3    H247097   1.988   0.371   4.278  0.6650 -0.8751  3.1384
 8536TIP3   OH247098   1.733   3.783   3.961  0.0389  0.0532  0.1515
 8536TIP3    H147099   1.828   3.794   3.969 -0.3512  3.6185  1.8712
 8536TIP3    H247100   1.709   3.731   4.038  0.6453 -2.0586 -1.0131
 8537TIP3   OH247101   0.597   3.421   2.217  0.6408 -0.0749  0.5112
 8537TIP3    H147102   0.657   3.472   2.163  0.1531 -0.1519 -0.1200
 8537TIP3    H247103   0.530   3.391   2.156  0.6279 -1.0257  0.9772
 8538TIP3   OH247104   0.720   3.394  13.035  0.2475 -0.1354 -0.1524
 8538TIP3    H147105   0.705   3.303  13.009 -0.2650 -0.1080  0.0480
 8538TIP3    H247106   0.635   3.425  13.065  0.4088  0.4308 -0.2737
 8539TIP3   OH247107   5.345   2.566   1.266  0.5178 -0.1192  0.4778
 8539TIP3    H147108   5.369   2.486   1.313  2.0372  0.7683  1.2657
 8539TIP3    H247109   5.369   2.637   1.325 -2.2185  0.9460  0.4395
 8540TIP3   OH247110   5.568   4.578  16.017 -0.7824 -0.4126 -0.3962
 8540TIP3    H147111   5.654   4.591  16.057  0.3068  1.0374 -2.9726
 8540TIP3    H247112   5.557   4.483  16.013  1.3242 -0.6736 -1.1816
 8541TIP3   OH247113   2.223   1.483   0.216 -0.3124 -0.5937  0.1159
 8541TIP3    H147114   2.153   1.430   0.177  0.8598 -1.5481 -0.7613
 8541TIP3    H247115   2.256   1.536   0.143  1.3787 -1.8274 -0.0777
 8542TIP3   OH247116   1.156   4.632   0.688 -0.1242  0.2911 -0.1802
 8542TIP3    H147117   1.178   4.723   0.667 -2.0198  0.6833 -0.6097
 8542TIP3    H247118   1.161   4.586   0.605 -1.2297  0.4668 -0.3566
 8543TIP3   OH247119   5.823   3.102   2.126  0.2572 -0.6443 -0.2020
 8543TIP3    H147120   5.911   3.065   2.120  0.5419  0.0033 -0.0912
 8543TIP3    H247121   5.806   3.139   2.040  0.3633 -0.1802 -0.0267
 8544TIP3   OH247122   4.439   5.820   2.608 -0.0071 -0.9130 -0.2838
 8544TIP3    H147123   4.375   5.873   2.560 -0.8506 -0.7699  0.9530
 8544TIP3    H247124   4.477   5.762   2.542 -0.6472 -0.2696 -1.2409
 8545TIP3   OH247125   4.170   3.073   5.351 -0.1023 -0.2037  0.1401
 8545TIP3    H147126   4.086   3.105   5.382  0.4238 -0.7960  2.3002
 8545TIP3    H247127   4.211   3.149   5.310 -1.3679  0.2654 -0.2954
 8546TIP3   OH247128   2.164   1.875  12.331 -0.2352  0.1492 -0.0653
 8546TIP3    H147129   2.188   1.852  12.241 -1.4069 -3.1236  0.3171
 8546TIP3    H247130   2.203   1.807  12.385  1.5123  2.7016  2.1878
 8547TIP3   OH247131   5.184   1.790  16.964  0.2983 -0.2546 -0.5887
 8547TIP3    H147132   5.220   1.863  16.914  0.5934 -0.6645 -0.9816
 8547TIP3    H247133   5.246   1.778  17.036 -0.9779  1.3998  0.8594
 8548TIP3   OH247134   4.044   5.231  16.201 -0.1759  0.0378  0.1604
 8548TIP3    H147135   4.003   5.291  16.264 -2.5450 -0.1180 -1.1146
 8548TIP3    H247136   4.116   5.282  16.163  0.0351  0.8185  1.5304
 8549TIP3   OH247137   3.258   2.841   4.539 -0.1806  0.5174 -0.2050
 8549TIP3    H147138   3.206   2.761   4.548  0.9503 -0.4410 -1.6951
 8549TIP3    H247139   3.337   2.824   4.590  0.5122  0.2634 -1.3451
 8550TIP3   OH247140   3.427   2.322  11.672 -0.1430 -0.2978  0.5206
 8550TIP3    H147141   3.501   2.328  11.732 -1.2440  0.1681  1.9016
 8550TIP3    H247142   3.418   2.410  11.636  1.4437 -0.9174 -1.5692
 8551TIP3   OH247143   2.520   5.374   3.371  0.2915 -0.5531  0.3161
 8551TIP3    H147144   2.552   5.452   3.325  0.2722  0.0718  1.3352
 8551TIP3    H247145   2.426   5.374   3.357  0.1899  0.0459  0.9482
 8552TIP3   OH247146   4.994   2.283   0.898 -0.2808 -1.0824  0.6823
 8552TIP3    H147147   4.974   2.270   0.805  0.0716  1.5930  0.1505
 8552TIP3    H247148   4.909   2.288   0.941 -0.5656  0.6473 -0.0174
 8553TIP3   OH247149   1.358   2.052   3.420  0.5627 -0.1377 -0.4865
 8553TIP3    H147150   1.349   2.014   3.333  1.2986  0.8144 -0.9978
 8553TIP3    H247151   1.435   2.010   3.458 -2.1102 -3.8516  1.5366
 8554TIP3   OH247152   0.354   1.567   1.329  0.2971 -0.5149  0.2361
 8554TIP3    H147153   0.346   1.504   1.401 -1.6096  0.5847  1.0835
 8554TIP3    H247154   0.269   1.565   1.286  1.2895 -0.8924 -1.8453
 8555TIP3   OH247155   6.266   3.155   3.090  0.1347 -0.2522  0.1359
 8555TIP3    H147156   6.179   3.183   3.118  0.3034 -1.0664  1.5712
 8555TIP3    H247157   6.325   3.182   3.160  0.4823 -2.9231  1.0053
 8556TIP3   OH247158   1.863   1.692   6.662  0.5187 -0.0010 -0.5835
 8556TIP3    H147159   1.796   1.710   6.596  0.4519 -2.7561 -1.4063
 8556TIP3    H247160   1.839   1.746   6.737 -1.9062  0.0187 -1.2937
 8557TIP3   OH247161   1.418   2.767   0.277 -0.2413 -0.2835  0.1917
 8557TIP3    H147162   1.399   2.802   0.364  0.5304  2.2833 -0.5652
 8557TIP3    H247163   1.514   2.761   0.275 -0.3207 -2.0160  0.0694
 8558TIP3   OH247164   5.971   1.112  10.955 -0.0522  0.2107 -0.2102
 8558TIP3    H147165   6.015   1.197  10.952 -2.6295  1.7342  1.5301
 8558TIP3    H247166   5.895   1.123  10.898  0.4091 -1.5387 -1.2367
 8559TIP3   OH247167   6.479   1.284  13.215  0.9369 -0.1930 -0.1892
 8559TIP3    H147168   6.396   1.280  13.262  1.3621 -0.3058  0.5757
 8559TIP3    H247169   6.499   1.378  13.210  0.4167 -0.1142 -1.0245
 8560TIP3   OH247170   4.488   3.043   1.833  0.2476 -0.8579  0.1764
 8560TIP3    H147171   4.548   3.118   1.827 -0.1618 -0.5979 -1.0683
 8560TIP3    H247172   4.408   3.079   1.870 -0.0384 -0.5939 -0.6617
 8561TIP3   OH247173   0.111   2.266  12.402 -0.2088 -0.1073  0.1239
 8561TIP3    H147174   0.083   2.211  12.329 -0.6748  0.4429 -0.1153
 8561TIP3    H247175   0.205   2.247  12.411 -0.8671 -3.0425  1.8774
 8562TIP3   OH247176   0.710   0.415  15.014 -0.0131  0.2500  0.3147
 8562TIP3    H147177   0.647   0.360  14.970  0.9797 -0.3177 -0.4281
 8562TIP3    H247178   0.657   0.474  15.069 -1.0926 -1.3596  1.0668
 8563TIP3   OH247179   3.074   3.954  14.157 -0.0359 -0.3392 -0.4362
 8563TIP3    H147180   2.987   3.990  14.179  0.3111  1.4140 -1.7110
 8563TIP3    H247181   3.055   3.873  14.110 -0.9602 -0.3224 -0.1237
 8564TIP3   OH247182   0.905   4.002   2.780 -0.2814 -0.2093 -0.0891
 8564TIP3    H147183   0.939   4.068   2.841 -0.3285  0.2105 -0.5108
 8564TIP3    H247184   0.978   3.983   2.722 -0.1356 -0.8525  0.2901
 8565TIP3   OH247185   5.463   0.074  16.451 -0.1609  0.0142  0.3421
 8565TIP3    H147186   5.555   0.047  16.457 -0.0553  0.5472  1.4977
 8565TIP3    H247187   5.428   0.024  16.378  0.8343 -0.8323  0.4148
 8566TIP3   OH247188   5.872   3.352  11.990 -0.1155  0.1999 -0.2017
 8566TIP3    H147189   5.960   3.390  11.993  0.0114 -0.1101  0.0774
 8566TIP3    H247190   5.813   3.428  11.993  0.1178  0.3612  1.5435
 8567TIP3   OH247191   6.348   2.204   1.641 -0.6091  0.3142 -0.7231
 8567TIP3    H147192   6.268   2.165   1.607 -0.9630  0.7798 -0.4408
 8567TIP3    H247193   6.337   2.204   1.736 -0.1639  0.1512 -0.6687
 8568TIP3   OH247194   5.238   5.548  15.776  0.4606  0.6117  0.1564
 8568TIP3    H147195   5.255   5.640  15.795  4.6859  0.3466 -1.2557
 8568TIP3    H247196   5.272   5.536  15.687 -1.8295 -1.9381 -0.4959
 8569TIP3   OH247197   3.261   1.099   3.123  0.1761  0.2374 -0.2168
 8569TIP3    H147198   3.273   1.052   3.041 -0.9287  0.0975 -0.3025
 8569TIP3    H247199   3.348   1.098   3.163  1.4477  2.7030 -2.6185
 8570TIP3   OH247200   5.444   6.451  14.557 -0.8066  0.3427 -0.4256
 8570TIP3    H147201   5.480   6.408  14.479  0.0542  1.9537 -0.9719
 8570TIP3    H247202   5.480   6.402  14.630 -0.1753 -0.1051 -1.0250
 8571TIP3   OH247203   4.363   6.234   4.429 -0.5666 -0.2420  0.0308
 8571TIP3    H147204   4.439   6.177   4.418 -0.6430 -0.2372 -0.5603
 8571TIP3    H247205   4.384   6.288   4.506 -0.0246 -0.3131 -0.0638
 8572TIP3   OH247206   0.613   6.583  12.157  0.0252  0.1408 -0.4681
 8572TIP3    H147207   0.609   6.663  12.209  1.2869 -0.1161  0.0677
 8572TIP3    H247208   0.706   6.572  12.137 -0.3294 -0.2469 -2.0480
 8573TIP3   OH247209   0.255   4.168   5.628  1.0272 -0.1076 -0.1830
 8573TIP3    H147210   0.252   4.073   5.617  0.7660 -0.1898  0.5383
 8573TIP3    H247211   0.333   4.184   5.680  0.6257 -0.0129  0.4091
 8574TIP3   OH247212   2.173   4.293  14.552 -0.2821  0.3876 -0.1819
 8574TIP3    H147213   2.158   4.277  14.645  0.2152  0.3106 -0.1120
 8574TIP3    H247214   2.155   4.387  14.541 -0.7953  0.3020 -0.1040
 8575TIP3   OH247215   3.474   3.886  16.768  0.0199  0.3575 -0.3420
 8575TIP3    H147216   3.432   3.835  16.838 -0.6682 -0.2743 -1.1854
 8575TIP3    H247217   3.478   3.975  16.803  0.8267 -0.1739  0.9828
 8576TIP3   OH247218   5.360   2.717   3.570  0.8801  0.3320  0.7539
 8576TIP3    H147219   5.277   2.765   3.574 -0.6226 -2.1793  3.0407
 8576TIP3    H247220   5.355   2.668   3.488 -0.8750 -1.2379  1.7194
 8577TIP3   OH247221   1.685   4.207  15.795  0.6029 -0.1468 -0.0815
 8577TIP3    H147222   1.622   4.238  15.859 -0.1633  0.2860 -1.0323
 8577TIP3    H247223   1.659   4.116  15.777  1.5000 -0.6600  1.0256
 8578TIP3   OH247224   2.920   3.963   2.018 -0.0795 -0.6536  0.4581
 8578TIP3    H147225   2.878   3.900   1.959  2.5408 -0.5870 -1.6747
 8578TIP3    H247226   2.995   3.916   2.054  1.5104  0.9507 -0.5959
 8579TIP3   OH247227   1.908   0.035  14.872 -0.2422 -0.1270 -0.0525
 8579TIP3    H147228   1.937   0.121  14.844  0.1742 -0.8604 -2.0777
 8579TIP3    H247229   1.986  -0.020  14.869 -0.5549 -0.6554  0.9251
 8580TIP3   OH247230   6.205   2.728   5.048 -0.6258 -0.5501 -0.2007
 8580TIP3    H147231   6.268   2.656   5.051 -1.7788 -1.5732  0.4748
 8580TIP3    H247232   6.162   2.719   4.963  1.6900  1.6012 -1.7445
 8581TIP3   OH247233   3.778   5.262   1.005  0.1466  0.3260  0.2411
 8581TIP3    H147234   3.712   5.290   1.069  0.6748  0.8379  0.5720
 8581TIP3    H247235   3.727   5.241   0.927 -0.4337  0.4839  0.5662
 8582TIP3   OH247236   0.331   5.890  16.287  0.1403  0.4114 -0.3245
 8582TIP3    H147237   0.360   5.863  16.374  1.7921  2.3447 -0.2219
 8582TIP3    H247238   0.243   5.925  16.301 -1.1438 -2.5779 -0.1123
 8583TIP3   OH247239   1.335   6.587  13.257 -0.4014 -0.0606  0.4051
 8583TIP3    H147240   1.311   6.523  13.190 -2.8221  0.4533  0.6785
 8583TIP3    H247241   1.315   6.672  13.217 -3.1926  0.2203  2.0951
 8584TIP3   OH247242   3.318   0.964   2.892 -0.6115 -0.3907  0.0686
 8584TIP3    H147243   3.339   1.041   2.840 -0.5910 -0.6094 -0.2520
 8584TIP3    H247244   3.306   0.894   2.827 -1.1573 -0.5341  0.3250
 8585TIP3   OH247245   1.231   3.513   1.907  0.3686  0.3923 -0.4773
 8585TIP3    H147246   1.296   3.525   1.837  1.2828  1.3339  0.4782
 8585TIP3    H247247   1.275   3.457   1.971  0.3305  1.1848  0.2649
 8586TIP3   OH247248   5.027   0.913   1.112  0.9929  0.4905  0.0442
 8586TIP3    H147249   4.996   0.979   1.174  0.2626 -0.0504  0.2631
 8586TIP3    H247250   5.111   0.884   1.148  2.2198  2.5253 -0.9600
 8587TIP3   OH247251   3.245   4.185  14.211  0.1570 -0.6695 -0.5805
 8587TIP3    H147252   3.154   4.213  14.220  0.0580 -0.7919 -1.1868
 8587TIP3    H247253   3.241   4.090  14.222  0.5833 -0.4458  2.2064
 8588TIP3   OH247254   2.029   1.428   1.038 -0.0774 -0.5858 -0.1006
 8588TIP3    H147255   1.952   1.387   0.998 -0.7330  1.1343 -0.7275
 8588TIP3    H247256   2.047   1.504   0.982 -0.6910  1.6210  2.4965
 8589TIP3   OH247257   4.341   2.520  14.837  0.5199 -0.1552 -0.5866
 8589TIP3    H147258   4.415   2.466  14.809 -0.2059 -1.4626 -0.0980
 8589TIP3    H247259   4.370   2.558  14.920  0.7960 -0.3599 -0.5847
 8590TIP3   OH247260   1.795   3.460   2.806 -0.4104  0.4622  0.2832
 8590TIP3    H147261   1.859   3.440   2.738  0.4367  0.2084  1.1236
 8590TIP3    H247262   1.797   3.383   2.863 -0.3845  1.0673  1.1156
 8591TIP3   OH247263   4.414   4.479   2.435  0.4769 -0.6688  0.3159
 8591TIP3    H147264   4.388   4.570   2.418  1.7327  0.0452  1.9104
 8591TIP3    H247265   4.363   4.427   2.373 -0.8469  1.0542 -0.1048
 8592TIP3   OH247266   3.327   4.169  10.715  0.7078 -0.3013 -0.7249
 8592TIP3    H147267   3.403   4.143  10.769  0.0737  0.5838  0.6534
 8592TIP3    H247268   3.304   4.089  10.667  2.6891 -0.5067 -1.4237
 8593TIP3   OH247269   5.941   5.068   3.498 -0.0016 -0.2743 -0.4167
 8593TIP3    H147270   5.866   5.099   3.447  0.3790  0.4405 -0.5655
 8593TIP3    H247271   5.947   4.975   3.478  0.8965  0.1829 -2.7597
 8594TIP3   OH247272   2.449   6.004  12.740 -0.0881 -0.1441 -0.5948
 8594TIP3    H147273   2.482   5.918  12.765 -0.1276 -0.1770 -0.6572
 8594TIP3    H247274   2.408   6.038  12.820  0.4598  0.0703 -0.3978
 8595TIP3   OH247275   0.553   1.429   5.134  0.1118  0.2722 -0.1626
 8595TIP3    H147276   0.526   1.519   5.149 -2.2061 -0.2505 -0.7744
 8595TIP3    H247277   0.500   1.378   5.195 -1.2366 -0.9458 -2.2435
 8596TIP3   OH247278   5.812   2.786  14.658 -0.4078 -0.6323  0.3161
 8596TIP3    H147279   5.741   2.830  14.613  0.9895  1.3251 -0.0858
 8596TIP3    H247280   5.776   2.765  14.745 -1.8386 -0.8211 -0.3003
 8597TIP3   OH247281   1.178   5.949   1.430 -0.6227 -0.2902  0.7707
 8597TIP3    H147282   1.253   5.893   1.410 -0.8426 -1.2587  2.4440
 8597TIP3    H247283   1.210   6.038   1.417  0.2689 -0.7443 -0.2657
 8598TIP3   OH247284   3.947   4.324  15.629 -0.1526 -0.0895  0.0271
 8598TIP3    H147285   3.946   4.230  15.610  0.2791 -0.5680  2.1326
 8598TIP3    H247286   3.858   4.344  15.658 -0.4285  0.3317 -1.0493
 8599TIP3   OH247287   1.392   6.432  11.339 -0.5392  0.0490  0.1980
 8599TIP3    H147288   1.454   6.437  11.266 -2.0920  1.2192 -1.1400
 8599TIP3    H247289   1.340   6.354  11.321  0.3178 -0.7841  1.1777
 8600TIP3   OH247290   4.878   4.546   0.263 -0.7462  0.0235 -0.3587
 8600TIP3    H147291   4.935   4.472   0.283 -2.3856 -0.7893  1.7335
 8600TIP3    H247292   4.935   4.623   0.267  0.5851 -0.9204 -0.4794
 8601TIP3   OH247293   5.598   5.257  11.681 -0.3798  0.4062 -0.0690
 8601TIP3    H147294   5.626   5.172  11.646 -0.6914 -0.3761  1.4792
 8601TIP3    H247295   5.544   5.295  11.612 -0.1048 -0.5817 -0.8590
 8602TIP3   OH247296   4.800   2.896  15.082  0.0144 -0.2092  0.2031
 8602TIP3    H147297   4.865   2.860  15.021 -0.2902  1.1231 -0.9625
 8602TIP3    H247298   4.754   2.819  15.115  0.7992 -1.0351 -0.5481
 8603TIP3   OH247299   3.363   0.889   4.942  0.3237 -0.0941 -0.6106
 8603TIP3    H147300   3.428   0.866   4.875  1.0757 -0.1691  0.1294
 8603TIP3    H247301   3.361   0.813   5.001  0.6540  0.5090  0.1947
 8604TIP3   OH247302   0.285   6.620   6.755 -0.1740 -0.4156  0.5120
 8604TIP3    H147303   0.205   6.645   6.801 -0.0414  1.0345  0.0107
 8604TIP3    H247304   0.295   6.526   6.773 -0.2854  0.0026  3.1478
 8605TIP3   OH247305   0.222   5.745   3.006  0.3450  0.0863  0.2048
 8605TIP3    H147306   0.195   5.787   2.925 -0.7649  1.3413  1.2035
 8605TIP3    H247307   0.207   5.651   2.990 -3.4725  0.5575  0.2260
 8606TIP3   OH247308   4.969   0.120   3.891  0.0031 -0.0776  0.0114
 8606TIP3    H147309   5.051   0.111   3.940 -0.5065 -1.5875  0.6572
 8606TIP3    H247310   4.979   0.059   3.818 -0.0968  0.5737 -0.5446
 8607TIP3   OH247311   3.479   6.506  13.850 -0.3979 -0.1537 -0.0616
 8607TIP3    H147312   3.384   6.513  13.855 -0.3055  0.9082  0.5955
 8607TIP3    H247313   3.510   6.549  13.930  0.5934 -1.7646  0.4534
 8608TIP3   OH247314   3.538   2.586  15.598  0.0007 -0.2082 -0.0510
 8608TIP3    H147315   3.506   2.587  15.508 -0.8012 -0.1889  0.2343
 8608TIP3    H247316   3.566   2.676  15.615  2.0208 -0.6114 -0.9254
 8609TIP3   OH247317   4.001   1.563  11.836  0.6873  0.3983  0.0857
 8609TIP3    H147318   3.944   1.580  11.911 -1.2617 -1.0823 -0.9799
 8609TIP3    H247319   4.031   1.473  11.848  1.2322  0.5092 -0.3811
 8610TIP3   OH247320   0.926   3.821   2.130  0.7149  0.2957 -0.1562
 8610TIP3    H147321   1.012   3.845   2.095  1.8935  0.0412  2.3801
 8610TIP3    H247322   0.875   3.901   2.122  1.7011  0.9420 -0.2200
 8611TIP3   OH247323   1.528   3.518   0.210 -0.5401 -0.2495 -0.0227
 8611TIP3    H147324   1.620   3.495   0.209 -0.8417 -1.5373 -0.4774
 8611TIP3    H247325   1.521   3.593   0.150  0.4799  1.1796  1.5500
 8612TIP3   OH247326   3.757   1.713   0.958  0.7137  0.3747 -0.4963
 8612TIP3    H147327   3.737   1.635   0.905  0.1390  0.2339 -0.0791
 8612TIP3    H247328   3.672   1.741   0.993  1.0263  0.7301 -0.0125
 8613TIP3   OH247329   4.862   6.086  10.950  0.0415  0.2102  0.3090
 8613TIP3    H147330   4.944   6.068  10.904  0.2593  2.0410 -0.1035
 8613TIP3    H247331   4.793   6.064  10.886  0.3380  2.5381 -0.9284
 8614TIP3   OH247332   6.740   2.262  12.927 -0.0732  0.2438  0.5690
 8614TIP3    H147333   6.811   2.272  12.991  0.4977  1.9133 -0.2565
 8614TIP3    H247334   6.694   2.183  12.954  1.7771 -0.5906  1.4475
 8615TIP3   OH247335   4.696   3.720  13.987  0.1990 -0.4934  0.4772
 8615TIP3    H147336   4.622   3.676  14.029  1.2206 -1.5910  1.1663
 8615TIP3    H247337   4.720   3.664  13.913  1.7469 -1.3525  1.5806
 8616TIP3   OH247338   3.027   1.250   2.486 -0.3261 -0.4939 -0.1050
 8616TIP3    H147339   3.093   1.183   2.503  0.8505  0.9856  1.4700
 8616TIP3    H247340   2.944   1.209   2.511  0.4065 -1.2664  1.1338
 8617TIP3   OH247341   5.010   6.218  15.848  0.0190  0.2860  0.5350
 8617TIP3    H147342   5.076   6.279  15.816 -0.0270  1.2534  2.1909
 8617TIP3    H247343   5.057   6.137  15.863  0.2237  0.0756 -1.0049
 8618TIP3   OH247344   2.872   2.551   4.026 -0.0385  0.6714 -0.4649
 8618TIP3    H147345   2.805   2.571   4.091  0.1490  0.8696 -0.3327
 8618TIP3    H247346   2.952   2.537   4.077 -0.0915 -0.0883 -0.5753
 8619TIP3   OH247347   1.344   0.037  16.019  0.2833 -0.4325  0.2368
 8619TIP3    H147348   1.303   0.121  16.041  1.4862  0.2609 -0.0879
 8619TIP3    H247349   1.434   0.060  15.995  0.5215 -1.7790 -0.2206
 8620TIP3   OH247350   5.503   0.607  11.893 -0.0910  0.7198  0.5107
 8620TIP3    H147351   5.486   0.678  11.831  2.7493  0.4746 -0.6890
 8620TIP3    H247352   5.584   0.632  11.937  0.2139 -1.1042  1.0829
 8621TIP3   OH247353   5.289   4.689   0.856  0.1143  0.6834 -0.0018
 8621TIP3    H147354   5.252   4.652   0.936  2.0300 -0.4178  0.4528
 8621TIP3    H247355   5.265   4.628   0.787  2.6316 -1.1876  0.6246
 8622TIP3   OH247356   2.267   2.471  16.831 -0.3913  0.1443  0.1628
 8622TIP3    H147357   2.363   2.479  16.827 -0.4244  0.3440 -0.4427
 8622TIP3    H247358   2.236   2.534  16.767 -0.9044 -0.4357 -0.1728
 8623TIP3   OH247359   0.937   2.348   1.877  0.0271 -0.3964  0.0294
 8623TIP3    H147360   0.907   2.390   1.797 -3.3327  0.0266  1.3444
 8623TIP3    H247361   0.885   2.267   1.883  3.6967 -3.0277 -0.5617
 8624TIP3   OH247362   6.334   4.625   5.064 -0.3937 -0.9373 -0.1501
 8624TIP3    H147363   6.255   4.594   5.020 -0.4739  0.5627 -1.1334
 8624TIP3    H247364   6.347   4.564   5.137 -4.2859  0.6018  2.1022
 8625TIP3   OH247365   2.879   2.622  16.934 -0.2223 -0.8382 -0.1474
 8625TIP3    H147366   2.837   2.619  16.848  1.3919 -0.0952 -1.0265
 8625TIP3    H247367   2.973   2.615  16.915  0.2619  0.5775  1.4350
 8626TIP3   OH247368   0.497   5.303  15.665 -0.1122 -0.0796 -0.9140
 8626TIP3    H147369   0.573   5.247  15.681 -0.6436 -0.1333  1.9837
 8626TIP3    H247370   0.425   5.243  15.647 -0.3267 -0.2824  0.5352
 8627TIP3   OH247371   4.308   2.679   0.901  0.0972  0.1479 -0.2394
 8627TIP3    H147372   4.256   2.599   0.911  1.2448 -0.4520  1.2644
 8627TIP3    H247373   4.289   2.709   0.812 -0.0339 -2.0445 -1.0045
 8628TIP3   OH247374   5.675   6.141   5.053  0.1022 -0.4037  0.2836
 8628TIP3    H147375   5.647   6.083   5.124 -1.9194 -1.7520 -1.4973
 8628TIP3    H247376   5.657   6.092   4.973  0.2999  1.8837 -1.2621
 8629TIP3   OH247377   1.900   5.884  10.911 -0.1291 -0.0084 -0.3566
 8629TIP3    H147378   1.957   5.949  10.870 -0.3398  0.6453  0.3695
 8629TIP3    H247379   1.811   5.910  10.886 -0.1312 -1.1233 -1.6272
 8630TIP3   OH247380   1.764   4.853   3.611  0.2388 -0.5798 -0.1758
 8630TIP3    H147381   1.684   4.891   3.573  0.8644 -1.4259 -2.5655
 8630TIP3    H247382   1.732   4.785   3.671 -0.8277  0.3586  0.3522
 8631TIP3   OH247383   6.004   1.533  17.182  0.2492  0.5120 -0.4249
 8631TIP3    H147384   6.045   1.448  17.195 -0.7078  0.2939  1.4731
 8631TIP3    H247385   6.037   1.563  17.097  1.3074 -1.3253 -0.7074
 8632TIP3   OH247386   4.230   1.107   4.286  0.1647 -0.0264  0.5656
 8632TIP3    H147387   4.225   1.119   4.381 -0.6542  2.0471  0.3084
 8632TIP3    H247388   4.154   1.052   4.265 -0.5301  0.7625  0.9521
 8633TIP3   OH247389   6.587   6.259   0.161 -0.0513 -0.9456 -0.1777
 8633TIP3    H147390   6.554   6.346   0.185  1.2962 -0.1324 -1.1592
 8633TIP3    H247391   6.669   6.276   0.116  1.0424 -2.8272  0.9915
 8634TIP3   OH247392   1.742   2.956   5.275 -0.3358 -0.2771 -0.1627
 8634TIP3    H147393   1.812   2.971   5.212  0.3478 -0.0478  0.6220
 8634TIP3    H247394   1.784   2.968   5.360 -0.8010 -2.3716  0.4140
 8635TIP3   OH247395   3.844   0.456   0.310  0.0376  0.1179  0.1443
 8635TIP3    H147396   3.906   0.417   0.248  0.0076  0.9458 -0.4241
 8635TIP3    H247397   3.885   0.445   0.396  0.3309 -0.5622 -0.0752
 8636TIP3   OH247398   6.556   3.538  11.964  0.2748 -0.3606 -0.5560
 8636TIP3    H147399   6.596   3.625  11.967 -1.5862  0.5951 -1.6733
 8636TIP3    H247400   6.518   3.525  12.050 -0.1368  0.3013 -0.6323
 8637TIP3   OH247401   4.156   3.100  16.257  0.8556 -0.8351  0.5185
 8637TIP3    H147402   4.101   3.049  16.316 -0.6974  1.1007  0.8375
 8637TIP3    H247403   4.116   3.090  16.171  1.0263 -0.8044  0.4334
 8638TIP3   OH247404   0.143   2.679   3.680  0.0889 -0.8728 -0.2845
 8638TIP3    H147405   0.138   2.613   3.611  1.7600 -0.1835 -1.1107
 8638TIP3    H247406   0.202   2.641   3.745  2.7882  0.5278 -1.7297
 8639TIP3   OH247407   3.961   5.024  13.140  0.4607 -0.3301 -0.1550
 8639TIP3    H147408   3.868   5.007  13.155  0.5272  0.0713  0.7696
 8639TIP3    H247409   4.006   4.951  13.183  0.5764 -0.6208 -0.7559
 8640TIP3   OH247410   1.441   1.337  12.833  0.1718  0.0132  0.0818
 8640TIP3    H147411   1.461   1.398  12.762  0.0086  0.2333  0.2239
 8640TIP3    H247412   1.526   1.317  12.872  0.0342  2.0485  1.5980
 8641TIP3   OH247413   4.389   5.145   5.449  0.1872  0.0712  0.3755
 8641TIP3    H147414   4.477   5.134   5.413  0.3312 -0.3431  0.8400
 8641TIP3    H247415   4.404   5.174   5.540 -0.1621  0.4317  0.3224
 8642TIP3   OH247416   6.627   5.079  11.135  0.3439  0.3232 -0.2223
 8642TIP3    H147417   6.658   4.997  11.098 -0.3734 -1.1055  2.1324
 8642TIP3    H247418   6.690   5.099  11.204 -0.1937  1.0638  0.0666
 8643TIP3   OH247419   0.860   4.979  14.546  0.2675  0.2190  0.2699
 8643TIP3    H147420   0.891   4.960  14.457 -0.1288  0.3539  0.0969
 8643TIP3    H247421   0.939   4.983  14.599  0.6034  1.2109 -0.2794
 8644TIP3   OH247422   2.936   2.488  15.435  0.1570  0.3290  0.4000
 8644TIP3    H147423   2.925   2.566  15.491  1.1504  0.4705  0.4183
 8644TIP3    H247424   2.881   2.421  15.477  0.6980  0.5020  1.4299
 8645TIP3   OH247425   2.678   1.548  13.137 -0.6096 -0.2102  0.2138
 8645TIP3    H147426   2.601   1.550  13.080  0.6427  0.4329 -1.5409
 8645TIP3    H247427   2.654   1.604  13.211 -1.6808  0.3090 -0.4995
 8646TIP3   OH247428   5.969   5.627  12.065  0.0034 -0.0738 -0.2279
 8646TIP3    H147429   5.940   5.703  12.015  0.1086 -1.5996 -2.7939
 8646TIP3    H247430   5.905   5.559  12.044  1.8147 -1.6710 -0.8391
 8647TIP3   OH247431   2.121   0.293  15.842  0.0342 -0.2449 -0.0533
 8647TIP3    H147432   2.144   0.343  15.920 -1.8222  2.7751 -1.2317
 8647TIP3    H247433   2.040   0.248  15.865  0.4966 -0.8899  0.3238
 8648TIP3   OH247434   1.503   5.224   3.064  0.6559  0.7380  0.1875
 8648TIP3    H147435   1.537   5.313   3.058  0.0019  0.9207 -1.0246
 8648TIP3    H247436   1.433   5.220   2.999 -0.9506  0.0507  1.8634
 8649TIP3   OH247437   3.609   2.131  11.995  0.6903 -0.3234  0.4808
 8649TIP3    H147438   3.607   2.059  12.058  1.1147 -0.6193  0.1626
 8649TIP3    H247439   3.517   2.148  11.974  0.5504 -0.2548  1.1410
 8650TIP3   OH247440   2.523   0.412   5.004  0.6612 -0.3680 -0.0268
 8650TIP3    H147441   2.569   0.390   4.922  0.3816 -0.2417 -0.2183
 8650TIP3    H247442   2.551   0.344   5.065  2.7341  0.8492  0.4761
 8651TIP3   OH247443   0.495   3.775   5.301 -0.1122 -0.4639  0.3095
 8651TIP3    H147444   0.474   3.687   5.270  0.4587 -0.3900 -0.3176
 8651TIP3    H247445   0.538   3.817   5.226 -2.9558  1.3773 -0.4853
 8652TIP3   OH247446   0.001   3.099  11.631  0.7026 -0.1888 -0.2517
 8652TIP3    H147447   0.066   3.073  11.695  0.5173  1.9577  0.9160
 8652TIP3    H247448  -0.075   3.126  11.683  0.3642  1.1383 -1.3618
 8653TIP3   OH247449   3.403   3.944  14.334 -0.1541 -0.4715  0.1574
 8653TIP3    H147450   3.488   3.903  14.325 -0.3099 -0.6328 -0.6921
 8653TIP3    H247451   3.340   3.874  14.313 -0.5095 -0.4319  1.0481
 8654TIP3   OH247452   4.581   5.935  12.274 -0.1953  0.0177  0.1006
 8654TIP3    H147453   4.491   5.930  12.305 -0.0521  1.2207  0.7428
 8654TIP3    H247454   4.616   6.015  12.312  0.9183 -0.0288 -0.7605
 8655TIP3   OH247455   2.979   5.767  15.699  0.3442  0.2124 -0.3870
 8655TIP3    H147456   2.895   5.812  15.709  0.7309  0.6915  1.1023
 8655TIP3    H247457   3.044   5.837  15.703  0.9252 -0.3689  1.2512
 8656TIP3   OH247458   3.155   5.248   3.426  0.3471  0.2830 -0.5605
 8656TIP3    H147459   3.166   5.184   3.496 -1.3850 -0.4051 -0.8566
 8656TIP3    H247460   3.163   5.333   3.469  0.1934 -0.1341  0.3106
 8657TIP3   OH247461   1.181   0.011  14.210 -0.2473 -0.1939 -0.0477
 8657TIP3    H147462   1.190   0.041  14.300 -0.3258  0.0539 -0.1207
 8657TIP3    H247463   1.229  -0.071  14.207 -1.2342 -0.8109  0.5202
 8658TIP3   OH247464   4.219   1.103  14.945 -0.3726 -0.2336  0.4641
 8658TIP3    H147465   4.186   1.131  14.859 -1.0216 -2.0966  0.0521
 8658TIP3    H247466   4.312   1.083  14.929 -0.7587 -1.7187 -0.1591
 8659TIP3   OH247467   4.224   3.970   2.081 -0.8398 -0.1816  0.0995
 8659TIP3    H147468   4.168   4.046   2.064 -0.7916 -0.3826 -0.9957
 8659TIP3    H247469   4.280   3.963   2.005  0.3902 -0.2625  0.9841
 8660TIP3   OH247470   6.312   0.377   1.757  0.2624  0.3325 -0.3536
 8660TIP3    H147471   6.373   0.439   1.718  1.1131 -1.0295 -1.2339
 8660TIP3    H247472   6.247   0.433   1.800  0.7994  1.8373 -1.3968
 8661TIP3   OH247473   5.787   2.265   5.480 -0.0138 -0.1711 -0.4097
 8661TIP3    H147474   5.733   2.317   5.421 -0.6795 -0.1607  0.1850
 8661TIP3    H247475   5.740   2.181   5.488  0.2820 -0.3209 -0.2183
 8662TIP3   OH247476   0.016   6.491   0.273 -0.4899 -0.0198  0.0799
 8662TIP3    H147477  -0.026   6.550   0.210 -1.1147 -2.3711 -1.8235
 8662TIP3    H247478   0.070   6.432   0.220 -0.1753 -1.4078  1.8428
 8663TIP3   OH247479   4.333   3.337  14.203  0.0857 -0.1093 -0.5109
 8663TIP3    H147480   4.241   3.353  14.225  0.2558  0.3433 -0.1152
 8663TIP3    H247481   4.381   3.367  14.280  0.5692 -0.3264 -0.7258
 8664TIP3   OH247482   4.805   6.051   5.551 -0.2873 -0.1590 -0.0143
 8664TIP3    H147483   4.880   6.065   5.609 -0.7553 -2.0266  1.1337
 8664TIP3    H247484   4.736   6.016   5.608 -1.6255  0.3398 -1.2661
 8665TIP3   OH247485   2.993   6.763  15.101  0.8789 -0.7933 -0.1117
 8665TIP3    H147486   2.940   6.822  15.154 -0.6049 -1.8574 -0.3456
 8665TIP3    H247487   3.046   6.715  15.164 -1.1675 -2.3491  0.5328
 8666TIP3   OH247488   0.613   0.565   3.869  0.2459 -0.0205  0.4219
 8666TIP3    H147489   0.683   0.524   3.919  0.4684 -0.3065 -0.1119
 8666TIP3    H247490   0.536   0.509   3.886  0.8819 -1.6161 -1.4820
 8667TIP3   OH247491   1.513   6.017   2.422  0.1309  0.4131 -0.8995
 8667TIP3    H147492   1.510   6.038   2.515 -0.1910  1.0894 -1.0602
 8667TIP3    H247493   1.520   5.921   2.420 -1.0177  0.2848 -0.1834
 8668TIP3   OH247494   4.161   0.387   6.333  0.4499  0.0115  0.5772
 8668TIP3    H147495   4.071   0.385   6.301  0.4715  1.3421  0.3659
 8668TIP3    H247496   4.202   0.308   6.296 -0.2196  0.1796 -0.5641
 8669TIP3   OH247497   1.923   6.620   3.521  0.1961 -0.1642 -0.3115
 8669TIP3    H147498   1.956   6.557   3.586  4.7293  0.8465 -1.2875
 8669TIP3    H247499   1.863   6.569   3.467 -1.1544 -1.8894  2.5594
 8670TIP3   OH247500   2.789   2.266  16.100  0.6426  0.1593 -0.2497
 8670TIP3    H147501   2.845   2.322  16.154  2.1214  0.0297 -1.6040
 8670TIP3    H247502   2.810   2.177  16.128  1.0843  0.1111 -0.7437
 8671TIP3   OH247503   5.485   0.740  10.990 -0.2235  0.5307 -0.6208
 8671TIP3    H147504   5.573   0.773  11.009 -0.1202  0.2848 -0.6734
 8671TIP3    H247505   5.429   0.818  10.991  0.0153  0.7019 -0.7056
 8672TIP3   OH247506   1.856   1.597   2.436  0.0949  0.2422  0.0652
 8672TIP3    H147507   1.801   1.612   2.359  1.9934  0.8281 -1.2543
 8672TIP3    H247508   1.894   1.510   2.422  1.2441  0.7708 -0.2121
 8673TIP3   OH247509   6.338   4.034   2.606  0.0826 -0.2806  0.0292
 8673TIP3    H147510   6.393   4.019   2.683 -1.1769  0.6772  1.1554
 8673TIP3    H247511   6.248   4.030   2.639 -0.4694  1.1267 -1.1904
 8674TIP3   OH247512   6.682   2.664   4.641 -0.5424  0.4417 -0.4117
 8674TIP3    H147513   6.717   2.603   4.576  0.5397  0.6044 -0.0059
 8674TIP3    H247514   6.698   2.750   4.602 -0.8337  0.5096 -0.3811
 8675TIP3   OH247515   4.467   1.498   4.035  0.2957  0.1549  0.0807
 8675TIP3    H147516   4.525   1.554   4.086  1.1311 -1.1284  0.6215
 8675TIP3    H247517   4.429   1.438   4.099  1.3925 -1.5177 -0.7380
 8676TIP3   OH247518   3.649   1.922   0.700  0.6463  0.0549  0.5316
 8676TIP3    H147519   3.740   1.894   0.687  0.6099  0.1760  0.0002
 8676TIP3    H247520   3.646   1.952   0.791  1.6450  1.9072  0.0097
 8677TIP3   OH247521   1.114   6.439   3.020  0.0952  0.0137 -0.0601
 8677TIP3    H147522   1.193   6.489   2.999  0.4876 -0.7644 -0.4560
 8677TIP3    H247523   1.072   6.424   2.936 -0.0063 -0.3405  0.0522
 8678TIP3   OH247524   5.723   2.048  14.877 -0.3633  0.3371 -0.4149
 8678TIP3    H147525   5.710   2.067  14.970 -3.2387 -0.2368 -0.6135
 8678TIP3    H247526   5.731   2.134  14.836  2.3807  0.5877  0.4489
 8679TIP3   OH247527   2.511   4.133   1.032 -0.4821  0.0089  0.3655
 8679TIP3    H147528   2.461   4.156   1.109  2.5643  0.1544  2.4974
 8679TIP3    H247529   2.539   4.043   1.047  1.2980  0.4840  0.1805
 8680TIP3   OH247530   4.360   4.393  15.743  0.1481  0.5892  0.5230
 8680TIP3    H147531   4.304   4.469  15.760 -1.9418 -1.3609  3.6762
 8680TIP3    H247532   4.317   4.322  15.791  3.5822 -1.9035  0.2411
 8681TIP3   OH247533   3.124   5.639  12.792 -0.2633 -0.3125  0.7657
 8681TIP3    H147534   3.100   5.694  12.867  0.2129 -0.1472  0.8013
 8681TIP3    H247535   3.196   5.585  12.825  0.0700 -0.1099  0.3755
 8682TIP3   OH247536   1.470   5.782  16.788  0.2577  0.0606  0.6749
 8682TIP3    H147537   1.398   5.792  16.850  0.1427 -2.0893  0.9625
 8682TIP3    H247538   1.452   5.847  16.720 -0.9332  0.8085  1.6574
 8683TIP3   OH247539   3.437   2.818  12.802 -0.3909  0.2345  0.5300
 8683TIP3    H147540   3.389   2.840  12.722 -0.7604  0.5395  0.8317
 8683TIP3    H247541   3.424   2.724  12.812  0.4008  0.0287 -0.2512
 8684TIP3   OH247542   2.975   5.081   5.585 -0.9762 -0.0854  0.0231
 8684TIP3    H147543   3.004   4.996   5.618 -2.2660  0.1726  2.0190
 8684TIP3    H247544   2.905   5.060   5.523 -2.7046 -0.5214  1.9984
 8685TIP3   OH247545   5.627   3.339   4.264  0.1276 -0.4462  0.2109
 8685TIP3    H147546   5.698   3.303   4.318  0.3734  2.6289  2.1542
 8685TIP3    H247547   5.672   3.379   4.190  0.4020  0.7785  1.0151
 8686TIP3   OH247548   6.105   0.265  13.055 -0.4861  0.3593 -0.4182
 8686TIP3    H147549   6.125   0.176  13.025 -0.4493 -0.0587  0.8092
 8686TIP3    H247550   6.068   0.307  12.978  1.3011 -0.0966 -1.5957
 8687TIP3   OH247551   6.127   1.259   2.165 -0.1865  0.3491 -0.4416
 8687TIP3    H147552   6.140   1.331   2.228  0.1965  0.9746 -1.2194
 8687TIP3    H247553   6.073   1.297   2.096  0.1187 -0.0754 -0.9244
 8688TIP3   OH247554   0.031   0.889   3.833 -0.1214 -0.8901  0.5116
 8688TIP3    H147555   0.108   0.943   3.853  0.8434 -2.2716  0.7149
 8688TIP3    H247556   0.057   0.838   3.757 -1.0980 -0.9276  0.1867
 8689TIP3   OH247557   0.147   2.856   5.642 -0.1629  0.0672  0.4356
 8689TIP3    H147558   0.138   2.945   5.677  0.5604  0.0922  0.5745
 8689TIP3    H247559   0.230   2.824   5.679  0.5305  0.0149 -1.0966
 8690TIP3   OH247560   3.241   2.790   5.886 -0.0484 -0.2946  0.1310
 8690TIP3    H147561   3.258   2.813   5.795 -1.0058 -1.6216 -0.4204
 8690TIP3    H247562   3.324   2.752   5.917  0.0798 -0.4684 -0.4096
 8691TIP3   OH247563   4.157   5.319   4.160 -0.1441 -0.1165  0.1696
 8691TIP3    H147564   4.222   5.307   4.091 -0.6761 -1.0964 -0.1978
 8691TIP3    H247565   4.195   5.277   4.237  0.9240  1.9273  0.8253
 8692TIP3   OH247566   1.899   4.237  11.663 -0.0588  0.6107 -0.1321
 8692TIP3    H147567   1.937   4.158  11.626  0.4609  1.5857 -1.7872
 8692TIP3    H247568   1.899   4.300  11.591  0.9177  2.6024  1.5014
 8693TIP3   OH247569   1.502   5.136   5.915 -0.0986  0.2076  0.6375
 8693TIP3    H147570   1.505   5.203   5.846  0.8148 -0.9264 -0.4843
 8693TIP3    H247571   1.561   5.169   5.982  1.5138 -0.1019 -0.5568
 8694TIP3   OH247572   5.889   0.105   2.188  0.1990 -0.0997 -0.3574
 8694TIP3    H147573   5.819   0.128   2.126  0.5414 -0.7291 -0.9979
 8694TIP3    H247574   5.966   0.089   2.133  0.5308 -0.6007  0.2335
 8695TIP3   OH247575   1.646   4.142  13.109  0.4735 -0.1516 -0.0750
 8695TIP3    H147576   1.617   4.208  13.045 -1.9471 -0.6589  0.3871
 8695TIP3    H247577   1.569   4.128  13.164  1.7687 -1.4645  1.4830
 8696TIP3   OH247578   6.524   2.576   5.263 -0.0805 -0.1232  0.2523
 8696TIP3    H147579   6.564   2.623   5.336  0.6888  1.3554 -1.0716
 8696TIP3    H247580   6.596   2.526   5.224  0.1614  1.2328 -1.1153
 8697TIP3   OH247581   1.460   1.815   3.548 -0.0816  0.6312 -0.1670
 8697TIP3    H147582   1.553   1.803   3.569  0.7211  3.3714 -1.5929
 8697TIP3    H247583   1.441   1.747   3.484  0.0237 -1.8224  2.2256
 8698TIP3   OH247584   0.692   6.306   4.993 -0.0926 -0.2616 -0.1879
 8698TIP3    H147585   0.623   6.314   4.928  1.3000 -0.1297 -1.7183
 8698TIP3    H247586   0.738   6.390   4.990  0.1102 -0.3183  0.8424
 8699TIP3   OH247587   4.348   6.794  12.469 -0.3791 -0.2889 -0.1529
 8699TIP3    H147588   4.387   6.777  12.555  0.2669 -0.1425 -0.4111
 8699TIP3    H247589   4.258   6.760  12.476 -0.2460 -0.5222  0.4891
 8700TIP3   OH247590   0.494   5.153  12.790 -0.1669  0.2199  0.1727
 8700TIP3    H147591   0.451   5.164  12.705  0.6419 -0.5654 -0.3662
 8700TIP3    H247592   0.526   5.241  12.812  0.7871  0.2034 -1.0078
 8701TIP3   OH247593   3.144   3.033   4.037  0.6109 -0.1083 -0.1463
 8701TIP3    H147594   3.183   3.079   4.112  1.9926  0.2137 -1.0170
 8701TIP3    H247595   3.177   2.943   4.045 -0.4110 -0.4495  0.4061
 8702TIP3   OH247596   1.205   4.857   3.717 -0.4041  0.2166 -0.2810
 8702TIP3    H147597   1.202   4.953   3.720 -1.7342  0.1693  0.9510
 8702TIP3    H247598   1.218   4.837   3.624  0.9737  1.5787 -0.4263
 8703TIP3   OH247599   2.536   0.359  11.847  0.3734  0.8008  0.0686
 8703TIP3    H147600   2.543   0.341  11.753 -0.0506  0.0191  0.1870
 8703TIP3    H247601   2.601   0.428  11.862 -0.0595  1.4621 -0.9315
 8704TIP3   OH247602   6.339   2.910  13.579 -0.1909  0.3044  0.3597
 8704TIP3    H147603   6.317   2.838  13.637  0.3899  1.9763  2.8086
 8704TIP3    H247604   6.377   2.977  13.636 -0.8202  2.6307 -1.7498
 8705TIP3   OH247605   0.393   0.100  16.165 -0.1917 -0.0222  0.3449
 8705TIP3    H147606   0.389   0.143  16.080  0.3239 -0.1537  0.2526
 8705TIP3    H247607   0.411   0.170  16.227 -2.4183  0.3807  0.6000
 8706TIP3   OH247608   0.654   0.529  11.778  0.4638  0.2462 -0.3663
 8706TIP3    H147609   0.613   0.501  11.860 -0.6241  0.4763 -0.8142
 8706TIP3    H247610   0.732   0.475  11.771 -1.2336 -2.3194 -0.9006
 8707TIP3   OH247611   1.793   1.805  13.579  0.3203  0.3070  0.0570
 8707TIP3    H147612   1.722   1.855  13.539 -0.0776  0.5327  1.0154
 8707TIP3    H247613   1.788   1.827  13.673  0.9525 -0.5363  0.2977
 8708TIP3   OH247614   3.028   0.620  11.793  1.3691 -0.2272  0.3108
 8708TIP3    H147615   2.986   0.681  11.854 -0.0772 -0.2390 -0.6391
 8708TIP3    H247616   3.028   0.667  11.709  0.5766 -1.3731 -0.3500
 8709TIP3   OH247617   6.358   1.458   2.970  0.1168 -0.5873 -0.3613
 8709TIP3    H147618   6.383   1.458   3.062  2.3853  1.4047 -0.9109
 8709TIP3    H247619   6.423   1.403   2.927  0.3457  0.2099 -1.0607
 8710TIP3   OH247620   5.471   0.349  11.818  1.2134  0.2123 -0.0930
 8710TIP3    H147621   5.550   0.319  11.863  1.8521  1.5367 -0.2546
 8710TIP3    H247622   5.461   0.440  11.846  0.3578  0.3921 -0.9186
 8711TIP3   OH247623   0.886   4.244   1.362  0.3588  0.2394  0.1955
 8711TIP3    H147624   0.796   4.214   1.350  0.4575 -0.0552  0.1725
 8711TIP3    H247625   0.911   4.282   1.278  0.1506  0.6109  0.2983
 8712TIP3   OH247626   1.651   0.405  12.769 -0.5770 -0.0618 -0.8885
 8712TIP3    H147627   1.704   0.359  12.703 -1.1491 -1.3018 -0.5209
 8712TIP3    H247628   1.663   0.354  12.849 -0.5495  0.9497 -0.2310
 8713TIP3   OH247629   0.483   2.474  15.673  0.1701 -0.4614  0.0956
 8713TIP3    H147630   0.402   2.483  15.723 -0.1755  1.5961 -0.7332
 8713TIP3    H247631   0.455   2.434  15.590  0.1380 -0.5101  0.1290
 8714TIP3   OH247632   3.186   4.207  11.792  0.7337  0.6695  0.2055
 8714TIP3    H147633   3.264   4.172  11.748  0.0891 -0.5166 -0.0218
 8714TIP3    H247634   3.217   4.235  11.878  1.4238  0.2580  0.0987
 8715TIP3   OH247635   0.734   1.650   2.856  0.6746 -0.2915  0.7356
 8715TIP3    H147636   0.739   1.677   2.764  1.4649 -0.7291  0.6341
 8715TIP3    H247637   0.810   1.691   2.897  0.1267  0.1884  1.2778
 8716TIP3   OH247638   2.236   4.315  10.837 -1.0616 -0.1387 -0.5243
 8716TIP3    H147639   2.152   4.290  10.798 -1.3899  1.5065 -0.9572
 8716TIP3    H247640   2.293   4.333  10.762  0.2338 -2.7311 -0.2781
 8717TIP3   OH247641   4.192   6.410  16.524 -0.0171  0.0746  0.3979
 8717TIP3    H147642   4.119   6.413  16.462  0.1718  0.9371  0.2025
 8717TIP3    H247643   4.209   6.317  16.538 -1.5336 -0.1502  0.8951
 8718TIP3   OH247644   1.319   4.767  12.531  0.1857 -0.9659 -0.2878
 8718TIP3    H147645   1.391   4.706  12.512  0.8062  0.3248 -2.4684
 8718TIP3    H247646   1.346   4.811  12.612  0.5736 -2.3189  0.3433
 8719TIP3   OH247647   6.072   1.107  13.566 -0.3101 -0.3126  0.0254
 8719TIP3    H147648   6.028   1.097  13.651  0.7326 -1.4898  0.4493
 8719TIP3    H247649   6.045   1.194  13.536 -2.3636 -0.7140  0.5685
 8720TIP3   OH247650   4.582   2.936   4.861  0.7848  0.0368 -1.0855
 8720TIP3    H147651   4.660   2.891   4.894  0.4513  0.7087  0.7282
 8720TIP3    H247652   4.611   3.025   4.844  0.8048 -0.1500 -2.0872
 8721TIP3   OH247653   3.366   5.540  12.926 -0.0877 -0.3063  0.0611
 8721TIP3    H147654   3.415   5.527  12.845 -1.9435 -3.5669 -0.7605
 8721TIP3    H247655   3.404   5.477  12.987 -0.1415  0.5687  1.0268
 8722TIP3   OH247656   6.542   6.176   0.609  0.0172 -0.0251  0.0489
 8722TIP3    H147657   6.553   6.083   0.588  0.7460  0.6721 -3.0640
 8722TIP3    H247658   6.631   6.207   0.628 -0.1054  0.2586  0.1663
 8723TIP3   OH247659   4.225   4.957   3.463  0.3543 -0.3517  0.0414
 8723TIP3    H147660   4.219   4.997   3.376  0.7819 -1.0104 -0.2960
 8723TIP3    H247661   4.295   5.007   3.507 -1.1569  1.2628  0.7216
 8724TIP3   OH247662   2.700   5.737  10.737  0.1359 -0.3415  0.2257
 8724TIP3    H147663   2.617   5.784  10.747 -1.1628 -1.9820 -2.0049
 8724TIP3    H247664   2.758   5.801  10.694 -0.1618  0.5742  1.1365
 8725TIP3   OH247665   2.579   2.686   2.410 -0.0738  0.2470  0.3654
 8725TIP3    H147666   2.527   2.622   2.362 -1.1304  0.0052  1.7552
 8725TIP3    H247667   2.531   2.699   2.492  1.6479  0.6328  1.3666
 8726TIP3   OH247668   5.221   1.744  15.334 -0.5948  0.2476  0.5357
 8726TIP3    H147669   5.278   1.675  15.368 -1.3031 -2.3643 -3.0230
 8726TIP3    H247670   5.157   1.699  15.279 -2.3673  3.5992 -0.4716
 8727TIP3   OH247671   0.029   0.168  11.246 -0.2570  0.0263  0.3421
 8727TIP3    H147672  -0.041   0.178  11.310  0.5736 -0.4141  1.3563
 8727TIP3    H247673   0.038   0.254  11.206 -1.4244  0.0671  0.1157
 8728TIP3   OH247674   2.449   1.174   6.587 -0.2472 -0.5734  0.0173
 8728TIP3    H147675   2.416   1.193   6.675 -1.8646 -0.6333 -0.5352
 8728TIP3    H247676   2.388   1.220   6.529  0.5884 -0.8297 -1.0831
 8729TIP3   OH247677   0.975   2.193  17.097 -0.0989  0.1842  0.4113
 8729TIP3    H147678   0.972   2.286  17.121 -0.7237  1.3048 -3.3800
 8729TIP3    H247679   1.034   2.189  17.022 -0.2203 -2.4787  0.3715
 8730TIP3   OH247680   0.029   1.600   4.318 -0.2501  0.2726 -0.2861
 8730TIP3    H147681   0.038   1.661   4.245 -0.8406 -0.0141 -0.6060
 8730TIP3    H247682  -0.064   1.603   4.341 -0.7536 -2.0087 -1.6497
 8731TIP3   OH247683   1.331   1.621   0.273 -0.3592 -0.1347  0.1783
 8731TIP3    H147684   1.340   1.692   0.336  0.7325 -1.2980  1.3807
 8731TIP3    H247685   1.242   1.587   0.287  0.0631 -0.7529  1.5328
 8732TIP3   OH247686   4.662   4.299   5.999  0.3576 -0.4179  0.5179
 8732TIP3    H147687   4.587   4.321   5.943  1.5370  1.4289 -0.4359
 8732TIP3    H247688   4.630   4.311   6.088 -0.3281  1.0237  0.1128
 8733TIP3   OH247689   4.129   2.660   3.324 -0.3074 -0.5266 -0.9087
 8733TIP3    H147690   4.118   2.565   3.318 -1.5636 -0.4568 -0.1375
 8733TIP3    H247691   4.116   2.691   3.235  0.7793 -1.1259 -1.2929
 8734TIP3   OH247692   0.130   2.898   2.417  0.3517 -0.3140  0.3929
 8734TIP3    H147693   0.068   2.915   2.345 -0.3348  0.8751  1.2246
 8734TIP3    H247694   0.193   2.836   2.380 -2.9494 -4.0588  0.3381
 8735TIP3   OH247695   2.380   6.736  15.375  0.2518 -0.3580 -0.1618
 8735TIP3    H147696   2.422   6.654  15.349  0.1100 -0.4430 -0.1228
 8735TIP3    H247697   2.374   6.786  15.294 -1.6267 -1.2566 -0.6382
 8736TIP3   OH247698   4.242   2.363   2.080  0.1656  0.6678 -0.4818
 8736TIP3    H147699   4.281   2.446   2.108 -0.7359  1.8310 -2.4068
 8736TIP3    H247700   4.295   2.337   2.004  0.1571 -0.3056 -0.1662
 8737TIP3   OH247701   1.326   3.386   5.483 -0.1202 -0.3553 -0.2862
 8737TIP3    H147702   1.305   3.363   5.574  1.8791 -1.8845 -0.1443
 8737TIP3    H247703   1.326   3.482   5.482 -1.5603 -0.3058  0.9574
 8738TIP3   OH247704   5.236   1.289  13.800 -0.8653  0.3639  0.1870
 8738TIP3    H147705   5.274   1.376  13.811  0.0351 -0.2552  2.3182
 8738TIP3    H247706   5.258   1.265  13.710  1.5818  1.1104  0.5129
 8739TIP3   OH247707   5.761   5.781   2.431  0.9410  0.2413  0.0297
 8739TIP3    H147708   5.782   5.745   2.517  0.6623  0.5739  0.2413
 8739TIP3    H247709   5.708   5.858   2.450  1.5553  0.7857 -0.4155
 8740TIP3   OH247710   5.766   5.705   5.271  0.1134 -0.7300  0.0775
 8740TIP3    H147711   5.725   5.788   5.295  1.8535  0.3348 -0.4724
 8740TIP3    H247712   5.849   5.705   5.318  0.2882 -2.0221 -0.1961
 8741TIP3   OH247713   5.393   5.968   2.676 -0.3293  0.0442  0.3421
 8741TIP3    H147714   5.365   5.878   2.693 -1.2105 -0.0725 -1.4875
 8741TIP3    H247715   5.314   6.012   2.644  0.6498  0.7669 -1.1889
 8742TIP3   OH247716   3.254   3.731   5.612  0.1514 -0.0114 -0.9286
 8742TIP3    H147717   3.160   3.730   5.593  0.0758 -1.1619 -0.5785
 8742TIP3    H247718   3.294   3.685   5.539  0.4321  0.4031 -1.0342
 8743TIP3   OH247719   5.722   6.541   1.073  0.1514  0.3930  0.2870
 8743TIP3    H147720   5.813   6.514   1.083  0.5663  1.8991  0.8498
 8743TIP3    H247721   5.676   6.462   1.046  1.9827  0.0626 -2.1675
 8744TIP3   OH247722   4.734   5.288  12.702  0.3190  0.0989 -0.6589
 8744TIP3    H147723   4.669   5.332  12.648 -0.3191  2.8765  2.0798
 8744TIP3    H247724   4.801   5.355  12.718  0.9134 -0.8631  1.2109
 8745TIP3   OH247725   5.499   1.395  16.273  0.3274 -0.1157 -0.0246
 8745TIP3    H147726   5.423   1.447  16.247  1.0054  1.6159  1.2137
 8745TIP3    H247727   5.575   1.448  16.247  1.1669 -1.8929 -1.4252
 8746TIP3   OH247728   1.187   6.675   5.410  0.0086  0.3960 -0.1881
 8746TIP3    H147729   1.194   6.761   5.451 -1.4105  0.0240  0.8875
 8746TIP3    H247730   1.184   6.693   5.316  1.9766  1.3395 -0.1186
 8747TIP3   OH247731   2.446   6.283   4.749  0.6230 -0.2151  0.2873
 8747TIP3    H147732   2.368   6.264   4.696  1.9191  1.0214 -2.2890
 8747TIP3    H247733   2.501   6.205   4.739  0.9685  0.1115 -0.4497
 8748TIP3   OH247734   1.394   1.542   5.348 -0.0548  0.3641 -0.0440
 8748TIP3    H147735   1.345   1.608   5.298 -0.4165  0.6598  0.6993
 8748TIP3    H247736   1.412   1.584   5.432 -0.4266 -0.5479  0.4963
 8749TIP3   OH247737   2.053   1.390  14.760 -0.5263 -0.3586 -0.1862
 8749TIP3    H147738   2.069   1.297  14.779  1.2936 -0.3984 -1.5882
 8749TIP3    H247739   2.028   1.391  14.667  0.2744  0.6038 -0.4024
 8750TIP3   OH247740   1.577   4.400  12.223  0.7799  0.4948 -0.3845
 8750TIP3    H147741   1.591   4.453  12.145  1.6031 -1.8392 -1.9636
 8750TIP3    H247742   1.509   4.338  12.198  0.5786  0.1363  0.9880
 8751TIP3   OH247743   4.419   4.871   3.859  0.2234 -0.5737  0.0625
 8751TIP3    H147744   4.491   4.889   3.798  0.0557 -0.7356 -0.1830
 8751TIP3    H247745   4.462   4.839   3.938  0.4066 -0.9044 -0.1692
 8752TIP3   OH247746   4.498   3.860   3.945 -0.2764 -0.3705 -0.4482
 8752TIP3    H147747   4.531   3.946   3.972 -0.2193 -0.8663  1.1930
 8752TIP3    H247748   4.457   3.876   3.860 -0.0456  1.2249 -0.3037
 8753TIP3   OH247749   2.585   6.536   0.136  0.0713  0.4398  0.0741
 8753TIP3    H147750   2.513   6.484   0.098  1.1106 -0.3677 -0.8657
 8753TIP3    H247751   2.593   6.504   0.226 -0.9085  0.7255  0.2742
 8754TIP3   OH247752   5.504   5.058  17.147  0.2451  0.2805  0.4114
 8754TIP3    H147753   5.436   5.029  17.087  0.5261 -1.3720  0.8554
 8754TIP3    H247754   5.464   5.054  17.233 -0.0393  2.2923  0.4308
 8755TIP3   OH247755   5.602   2.550  15.084  0.1607 -0.5174  0.0877
 8755TIP3    H147756   5.618   2.515  15.172  1.9767 -1.9285 -0.7422
 8755TIP3    H247757   5.510   2.577  15.086 -0.2479 -1.8245  1.9892
 8756TIP3   OH247758   3.998   1.515  15.577 -0.7665  0.2385  0.4708
 8756TIP3    H147759   3.932   1.583  15.587 -1.1178  0.3190 -1.8848
 8756TIP3    H247760   3.997   1.494  15.484  1.7225 -0.5975  0.5677
 8757TIP3   OH247761   1.132   0.474  17.052  0.4204 -0.6976  0.0347
 8757TIP3    H147762   1.174   0.394  17.020 -0.6457 -0.4825 -2.0476
 8757TIP3    H247763   1.172   0.544  17.002  1.3994  0.1516  1.9026
 8758TIP3   OH247764   5.590   5.256   3.183  0.0225 -0.0382 -0.4816
 8758TIP3    H147765   5.656   5.283   3.249  0.2612  1.1663 -1.1764
 8758TIP3    H247766   5.519   5.319   3.195 -0.7863 -1.0034 -0.1074
 8759TIP3   OH247767   2.961   5.148   1.848  0.1924 -0.4111  0.0342
 8759TIP3    H147768   3.042   5.198   1.836 -0.3297  1.0157  2.0513
 8759TIP3    H247769   2.891   5.213   1.841 -0.5734 -1.0127  1.5966
 8760TIP3   OH247770   0.497   6.384   3.820  0.1207 -0.3996 -0.1719
 8760TIP3    H147771   0.544   6.331   3.885  0.0102 -0.6667 -0.3105
 8760TIP3    H247772   0.427   6.426   3.870  0.5687  0.0907  0.0599
 8761TIP3   OH247773   0.752   1.631   2.427  0.1397  0.2222 -0.4307
 8761TIP3    H147774   0.680   1.647   2.366 -0.6168 -0.7967  0.1564
 8761TIP3    H247775   0.743   1.698   2.495  0.8095  1.1779 -1.2554
 8762TIP3   OH247776   3.709   0.959  13.785 -0.0285  0.0750  0.4000
 8762TIP3    H147777   3.619   0.960  13.818  0.1207  1.6328  0.8140
 8762TIP3    H247778   3.701   0.941  13.692 -0.8027  0.5364  0.3735
 8763TIP3   OH247779   3.942   5.091   0.800  0.3350  0.5556 -0.2604
 8763TIP3    H147780   3.890   5.120   0.875  0.5444 -1.1890  0.6074
 8763TIP3    H247781   4.008   5.033   0.838  0.5911 -0.1747 -1.7689
 8764TIP3   OH247782   0.892   3.821  10.610  0.4238  0.3690  0.2388
 8764TIP3    H147783   0.831   3.894  10.595 -0.4495 -0.3297  0.2707
 8764TIP3    H247784   0.948   3.850  10.682 -0.4534  0.6940  0.8074
 8765TIP3   OH247785   4.680   5.955   3.026 -0.1628  0.1591  0.0309
 8765TIP3    H147786   4.732   5.874   3.019 -3.2200 -2.1126  1.2722
 8765TIP3    H247787   4.613   5.945   2.958 -0.0517  2.1762 -0.4168
 8766TIP3   OH247788   5.223   6.132  13.539  0.2182  0.0793  0.0435
 8766TIP3    H147789   5.212   6.074  13.464  2.1777  0.1994 -0.3883
 8766TIP3    H247790   5.209   6.220  13.504  3.1562  0.3405 -0.7866
 8767TIP3   OH247791   5.580   5.349  15.913 -0.8430 -0.0865 -0.7008
 8767TIP3    H147792   5.647   5.397  15.962 -1.3623 -0.2480  0.1934
 8767TIP3    H247793   5.593   5.258  15.938 -2.3219  0.0349  0.6639
 8768TIP3   OH247794   0.639   2.539  16.221 -0.4703 -0.5591  0.3511
 8768TIP3    H147795   0.691   2.537  16.301 -1.3960 -3.4674  0.9954
 8768TIP3    H247796   0.703   2.559  16.152  0.7240 -0.0425  1.5502
 8769TIP3   OH247797   6.819   1.790  13.771 -0.3176  0.3951 -0.4091
 8769TIP3    H147798   6.880   1.822  13.705  0.8353 -0.8959 -0.0113
 8769TIP3    H247799   6.843   1.839  13.850 -0.0133  0.1322 -0.3364
 8770TIP3   OH247800   6.044   2.473   1.612  0.9927 -0.0862  0.1326
 8770TIP3    H147801   6.012   2.410   1.547  0.4058  1.2651 -0.9474
 8770TIP3    H247802   6.130   2.499   1.578 -0.4948  2.8301 -1.8698
 8771TIP3   OH247803   1.595   2.775   2.120 -0.4446 -0.1933  0.1894
 8771TIP3    H147804   1.508   2.749   2.150 -1.0352  0.2093 -1.0752
 8771TIP3    H247805   1.614   2.716   2.047 -0.0417  0.2972 -0.1097
 8772TIP3   OH247806   6.515   6.125  11.569  0.3673  0.4802  0.4371
 8772TIP3    H147807   6.552   6.061  11.508 -1.5346 -1.0822  0.8329
 8772TIP3    H247808   6.553   6.100  11.654 -0.4847 -0.2356  0.6150
 8773TIP3   OH247809   6.322   2.078  15.848 -0.2459  0.2117 -0.6044
 8773TIP3    H147810   6.284   2.139  15.785 -0.7565  0.2066 -0.3102
 8773TIP3    H247811   6.272   2.092  15.928  1.1928  1.0868  0.1835
 8774TIP3   OH247812   4.466   5.914   2.852  0.0410 -0.3900  0.7212
 8774TIP3    H147813   4.463   5.888   2.760  0.1124 -0.2398  0.6763
 8774TIP3    H247814   4.374   5.921   2.877 -0.0024 -2.1062  1.1433
 8775TIP3   OH247815   2.095   3.517  14.509 -0.0350 -0.2708 -0.4364
 8775TIP3    H147816   2.005   3.510  14.541 -1.1121  1.4039 -2.8144
 8775TIP3    H247817   2.140   3.569  14.576 -1.0982 -0.2450  0.2842
 8776TIP3   OH247818   6.246   5.883   2.765  0.7084 -0.1626  0.1002
 8776TIP3    H147819   6.303   5.876   2.688  2.0416 -1.3398  1.1494
 8776TIP3    H247820   6.159   5.860   2.733  0.5049  2.7074 -1.7858
 8777TIP3   OH247821   5.144   1.512  12.454 -0.5511 -0.1412  0.2536
 8777TIP3    H147822   5.196   1.440  12.418  1.0040  0.9028  0.3296
 8777TIP3    H247823   5.055   1.495  12.423  0.0145 -1.3997 -0.7691
 8778TIP3   OH247824   2.034   3.171   4.157  0.5330 -0.1665  0.2494
 8778TIP3    H147825   1.999   3.090   4.194 -3.5473  0.8807 -0.7256
 8778TIP3    H247826   2.029   3.235   4.228 -1.0078  0.2906 -0.2197
 8779TIP3   OH247827   5.424   3.009  12.520 -0.1669 -0.0584 -0.2961
 8779TIP3    H147828   5.479   3.087  12.521  0.6410 -0.5898 -1.3118
 8779TIP3    H247829   5.483   2.937  12.545 -0.7593 -0.4369  0.0590
 8780TIP3   OH247830   5.555   5.558   2.136 -0.1681 -0.2035 -0.4600
 8780TIP3    H147831   5.495   5.578   2.207  0.4023 -1.5556  0.4534
 8780TIP3    H247832   5.642   5.576   2.172  0.1000 -0.4311 -0.9773
 8781TIP3   OH247833   0.309   0.356  14.175 -0.1576 -0.0827  0.0178
 8781TIP3    H147834   0.300   0.450  14.192  1.1995 -0.1166  1.1418
 8781TIP3    H247835   0.223   0.320  14.194 -0.0402  0.6046  2.1783
 8782TIP3   OH247836   2.419   5.149   4.191 -0.5996  0.1247 -0.5307
 8782TIP3    H147837   2.444   5.222   4.246 -0.2293 -0.0310 -0.4896
 8782TIP3    H247838   2.344   5.110   4.235  0.8130 -1.1349  0.8848
 8783TIP3   OH247839   3.045   4.310  15.659  0.0725  0.0868  0.2969
 8783TIP3    H147840   3.106   4.258  15.607  0.4333  0.0529  0.7390
 8783TIP3    H247841   2.962   4.304  15.613  0.2290 -0.4807  0.0814
 8784TIP3   OH247842   3.373   0.323  16.917 -0.0723 -0.0090 -0.1087
 8784TIP3    H147843   3.466   0.310  16.933 -0.3155 -1.0168  0.6175
 8784TIP3    H247844   3.335   0.235  16.925 -1.0213  0.3169 -0.8410
 8785TIP3   OH247845   3.619   2.731  13.697 -0.0487  0.0666 -0.6725
 8785TIP3    H147846   3.548   2.687  13.651  0.4434 -0.5825 -0.8225
 8785TIP3    H247847   3.681   2.661  13.719  0.2012  0.5147  0.0954
 8786TIP3   OH247848   3.408   3.268  16.802 -0.4136 -0.0798 -0.3211
 8786TIP3    H147849   3.454   3.197  16.756 -0.4632  0.2715 -0.9210
 8786TIP3    H247850   3.392   3.233  16.890  0.7226 -0.3282 -0.2014
 8787TIP3   OH247851   2.195   4.395   1.096  0.3874 -0.0157  0.6331
 8787TIP3    H147852   2.290   4.393   1.107  0.3643  1.3319  1.2023
 8787TIP3    H247853   2.164   4.320   1.146  1.1260 -0.2994  0.6882
 8788TIP3   OH247854   1.959   1.661   3.670  0.5240 -0.7077  0.4160
 8788TIP3    H147855   1.974   1.728   3.737 -0.1637  0.9363 -0.9869
 8788TIP3    H247856   2.047   1.629   3.648  1.1634  1.4331 -0.4804
 8789TIP3   OH247857   3.577   6.199  14.818 -0.2574 -0.1367  0.0430
 8789TIP3    H147858   3.636   6.139  14.772 -1.1718 -0.0211 -1.3589
 8789TIP3    H247859   3.559   6.268  14.754  0.2836  1.3447  1.4079
 8790TIP3   OH247860   1.236   6.675  12.176 -0.2486 -0.0942 -0.0893
 8790TIP3    H147861   1.325   6.709  12.186 -0.2743 -0.3838  1.2840
 8790TIP3    H247862   1.180   6.753  12.179 -0.1104  0.0022 -0.0370
 8791TIP3   OH247863   2.273   6.682   0.257 -0.0181  0.1922  0.1066
 8791TIP3    H147864   2.335   6.739   0.303 -0.9009  0.4343  1.0494
 8791TIP3    H247865   2.210   6.657   0.325  0.3387 -1.9251 -0.2811
 8792TIP3   OH247866   0.911   2.467  17.151 -0.6903  0.1892  0.2793
 8792TIP3    H147867   0.833   2.515  17.124 -1.3734  0.8657  3.1380
 8792TIP3    H247868   0.975   2.536  17.171  0.6260 -0.3472 -1.7709
 8793TIP3   OH247869   0.005   0.048  16.540  0.1257  0.1471 -0.5175
 8793TIP3    H147870  -0.072   0.099  16.517 -0.2137  0.4246  1.1089
 8793TIP3    H247871  -0.006  -0.035  16.494 -0.6774  0.5261 -1.0235
 8794TIP3   OH247872   0.483   5.023   5.212  0.1476 -0.5762  0.2187
 8794TIP3    H147873   0.451   5.105   5.250  1.7838 -0.8484  2.3973
 8794TIP3    H247874   0.564   5.005   5.259 -0.5160 -3.8413  0.3443
 8795TIP3   OH247875   2.460   5.313   2.513 -0.3136  0.1633  0.2888
 8795TIP3    H147876   2.510   5.311   2.595 -3.1247  0.2216  2.1288
 8795TIP3    H247877   2.408   5.393   2.518 -0.0481  0.5572 -1.9564
 8796TIP3   OH247878   2.287   1.612   3.968 -0.1699  0.3413  0.1251
 8796TIP3    H147879   2.322   1.574   3.887  0.0596 -0.6383  0.6722
 8796TIP3    H247880   2.312   1.704   3.963  0.3809  0.1643 -0.6340
 8797TIP3   OH247881   1.686   4.924  11.847  0.3037  0.0659  0.6025
 8797TIP3    H147882   1.743   5.000  11.843  0.6051 -0.0515  2.0400
 8797TIP3    H247883   1.734   4.855  11.802  0.9002  0.2154  1.0041
 8798TIP3   OH247884   2.850   3.105  14.207 -0.0028 -0.1637  0.0864
 8798TIP3    H147885   2.924   3.152  14.167 -0.6385  1.7514  1.0444
 8798TIP3    H247886   2.817   3.049  14.137  0.7786  0.8526 -1.1457
 8799TIP3   OH247887   5.704   5.681   6.282 -0.6684 -0.4099 -0.7422
 8799TIP3    H147888   5.788   5.717   6.309  0.0038 -0.8492 -2.1516
 8799TIP3    H247889   5.671   5.634   6.358  0.7649 -0.9523 -0.4426
 8800TIP3   OH247890   5.169   1.044   2.849 -0.4575  0.5208 -0.2710
 8800TIP3    H147891   5.257   1.082   2.852  0.7551 -1.9545 -1.4391
 8800TIP3    H247892   5.155   1.012   2.939 -0.1893  0.9975 -0.0548
 8801TIP3   OH247893   5.133   0.336   0.221  0.1766  0.3129 -0.2587
 8801TIP3    H147894   5.078   0.264   0.252  0.1895  0.9703  1.3747
 8801TIP3    H247895   5.209   0.293   0.182 -0.1731 -0.5736  0.0128
 8802TIP3   OH247896   4.658   2.869   3.138  0.2308  0.3088 -0.4495
 8802TIP3    H147897   4.596   2.902   3.073 -0.4512  0.9374  0.4960
 8802TIP3    H247898   4.745   2.888   3.101 -0.1442  0.4241 -1.2819
 8803TIP3   OH247899   3.371   1.822   2.220 -0.0549  0.5324  0.7667
 8803TIP3    H147900   3.337   1.908   2.197  1.3503  0.5544 -1.5083
 8803TIP3    H247901   3.398   1.784   2.137  1.3623 -1.2463  1.9696
 8804TIP3   OH247902   2.822   0.047   4.165 -0.3623  0.3801  0.6245
 8804TIP3    H147903   2.761   0.004   4.225 -0.2070 -0.7446 -0.0131
 8804TIP3    H247904   2.896   0.072   4.220 -0.9385  0.8502  1.2099
 8805TIP3   OH247905   1.822   5.162   0.938 -0.5830 -0.6489  0.1499
 8805TIP3    H147906   1.875   5.237   0.911  0.5421 -1.1703  0.8434
 8805TIP3    H247907   1.737   5.176   0.896  0.2654 -0.0830 -1.4629
 8806TIP3   OH247908   0.776   1.172   0.763 -0.2214  0.1775  0.4109
 8806TIP3    H147909   0.731   1.142   0.842 -0.9743  1.6283  0.5762
 8806TIP3    H247910   0.734   1.126   0.691  0.5391 -1.2380  0.8410
 8807TIP3   OH247911   3.290   4.029  14.774  0.1362  0.7844 -0.1482
 8807TIP3    H147912   3.252   4.005  14.689  1.1668  0.8299 -0.6418
 8807TIP3    H247913   3.282   4.125  14.777 -0.6584  0.7087  0.1815
 8808TIP3   OH247914   6.270   5.411  16.292  0.2404 -0.6062 -0.0180
 8808TIP3    H147915   6.256   5.419  16.386  0.2275 -0.6329 -0.0167
 8808TIP3    H247916   6.362   5.434  16.279 -0.1292  0.9109 -0.1732
 8809TIP3   OH247917   2.603   6.249  11.809 -0.5459  0.0186 -0.4109
 8809TIP3    H147918   2.531   6.284  11.756  0.4841  2.3798 -0.3348
 8809TIP3    H247919   2.564   6.234  11.895 -0.8170  2.0379 -0.1330
 8810TIP3   OH247920   6.017   4.225  17.052  0.6663 -0.3770  0.1704
 8810TIP3    H147921   6.088   4.231  17.115 -0.0009 -0.0561  0.9163
 8810TIP3    H247922   6.060   4.210  16.968  2.0050  4.3421 -0.2549
 8811TIP3   OH247923   1.691   5.279  16.775  0.1935  0.3945  0.2688
 8811TIP3    H147924   1.776   5.276  16.819  0.9694  0.6130 -1.1459
 8811TIP3    H247925   1.669   5.372  16.773  0.3976  0.4361 -0.2136
 8812TIP3   OH247926   4.549   2.331  14.179 -0.8232  0.3209  0.7542
 8812TIP3    H147927   4.572   2.238  14.181 -1.5012  0.1277  0.0148
 8812TIP3    H247928   4.469   2.337  14.231  0.1999  0.8020  2.3377
 8813TIP3   OH247929   5.701   1.368  12.906 -0.1432 -0.4160  0.3006
 8813TIP3    H147930   5.682   1.331  12.993 -1.2824 -0.1882  0.1691
 8813TIP3    H247931   5.782   1.325  12.879 -1.1163 -2.4634  0.3862
 8814TIP3   OH247932   2.788   5.334   2.987  0.2462 -0.1027  0.0708
 8814TIP3    H147933   2.718   5.393   2.956 -0.1379 -0.6703 -0.1602
 8814TIP3    H247934   2.866   5.365   2.943 -0.3705 -1.1789 -1.9111
 8815TIP3   OH247935   2.992   6.271  14.727 -0.0023  0.5669 -0.1046
 8815TIP3    H147936   2.928   6.218  14.678 -0.3513  1.3800 -0.5504
 8815TIP3    H247937   2.940   6.319  14.790  0.2667  0.6784  0.0328
 8816TIP3   OH247938   0.905   1.090   0.464  0.4137  0.2520  0.1314
 8816TIP3    H147939   0.903   1.179   0.499  1.6389  0.6491 -0.7060
 8816TIP3    H247940   0.968   1.095   0.392 -0.7624 -0.8984 -1.0317
 8817TIP3   OH247941   6.413   0.200  12.140  0.0759  0.0597 -0.0699
 8817TIP3    H147942   6.415   0.134  12.209 -0.1406  0.6324  0.4899
 8817TIP3    H247943   6.503   0.234  12.137 -0.6014  2.3255  2.1985
 8818TIP3   OH247944   5.152   3.695  12.954  0.3854 -0.0178  0.0068
 8818TIP3    H147945   5.115   3.610  12.932 -0.4044  0.4673 -0.6120
 8818TIP3    H247946   5.100   3.725  13.029 -1.0516  0.9914 -1.3209
 8819TIP3   OH247947   6.320   6.221   5.985 -0.1729 -0.5357 -0.4201
 8819TIP3    H147948   6.265   6.277   5.931  2.2298  0.6841 -1.7947
 8819TIP3    H247949   6.356   6.280   6.052 -0.2395 -1.2132  0.2328
 8820TIP3   OH247950   2.899   5.886   0.051 -0.2789  0.3986 -0.6850
 8820TIP3    H147951   2.889   5.965  -0.003 -0.2681  0.2501 -0.9045
 8820TIP3    H247952   2.833   5.896   0.119  0.2096  0.9554 -0.2780
 8821TIP3   OH247953   4.257   0.243  12.598 -0.1784  0.2654  0.5873
 8821TIP3    H147954   4.267   0.157  12.638  1.0290  1.3991  2.9251
 8821TIP3    H247955   4.188   0.286  12.648  1.0806  1.5873  1.2642
 8822TIP3   OH247956   1.747   5.688   1.845  0.9641 -0.2132 -0.0193
 8822TIP3    H147957   1.717   5.597   1.836  1.6463 -0.5046  0.5835
 8822TIP3    H247958   1.786   5.691   1.932  3.4811 -0.0741 -1.0876
 8823TIP3   OH247959   4.528   5.672   3.324  0.5193 -0.2936  0.1542
 8823TIP3    H147960   4.491   5.606   3.383 -0.0302 -0.6384 -0.5664
 8823TIP3    H247961   4.458   5.736   3.314 -0.2807 -1.3981 -1.9247
 8824TIP3   OH247962   4.121   2.496   5.329 -0.3467  0.3391 -0.5678
 8824TIP3    H147963   4.213   2.500   5.304 -0.0012 -1.2975  0.3056
 8824TIP3    H247964   4.117   2.428   5.396 -2.2233  0.2678 -0.6932
 8825TIP3   OH247965   3.422   1.399   2.574 -0.5576  0.1203  0.0180
 8825TIP3    H147966   3.494   1.461   2.562 -0.4798 -0.0689 -0.5309
 8825TIP3    H247967   3.400   1.406   2.666  1.3802 -1.1397  0.6554
 8826TIP3   OH247968   0.306   3.939   0.053  0.0198 -0.1514 -0.0169
 8826TIP3    H147969   0.324   4.031   0.039 -1.8175  0.6159  2.0740
 8826TIP3    H247970   0.392   3.897   0.052  0.9726  1.7037 -0.1898
 8827TIP3   OH247971   3.088   5.719   3.650 -0.4004 -0.2720 -0.1629
 8827TIP3    H147972   3.031   5.734   3.726  1.6881  0.6524  1.3154
 8827TIP3    H247973   3.077   5.797   3.596 -2.0464 -1.0198 -0.9852
 8828TIP3   OH247974   3.762   4.885   4.207 -0.5399  0.5267  0.6601
 8828TIP3    H147975   3.748   4.795   4.238  0.8182  0.4722  1.1916
 8828TIP3    H247976   3.728   4.940   4.277  1.0893  0.4007  1.6004
 8829TIP3   OH247977   6.188   5.826   1.787 -0.0337 -0.2530  0.2075
 8829TIP3    H147978   6.112   5.880   1.806 -0.6599 -1.1914  0.4462
 8829TIP3    H247979   6.169   5.787   1.702 -0.3746 -1.4078  0.7923
 8830TIP3   OH247980   5.369   4.364   6.738  0.2706  0.2853 -0.0107
 8830TIP3    H147981   5.395   4.360   6.829 -0.3543 -0.7471  0.1416
 8830TIP3    H247982   5.394   4.279   6.702 -1.9455 -0.3934 -0.0856
 8831TIP3   OH247983   3.543   2.813  11.079  0.4667  0.6077  0.4006
 8831TIP3    H147984   3.464   2.793  11.130 -0.2839  0.5500 -0.7522
 8831TIP3    H247985   3.510   2.833  10.992  1.8329 -0.7314 -0.4475
 8832TIP3   OH247986   2.884   4.180  11.068 -0.1890  0.7048 -0.2197
 8832TIP3    H147987   2.903   4.200  11.160 -0.9620  0.8169 -0.0849
 8832TIP3    H247988   2.854   4.089  11.069 -0.9426  0.9541 -0.2641
 8833TIP3   OH247989   5.578   5.185   5.358  0.2119  0.6041 -0.0438
 8833TIP3    H147990   5.554   5.254   5.420  1.2621  0.6656  0.3206
 8833TIP3    H247991   5.494   5.150   5.327 -0.3870 -0.3051  2.3792
 8834TIP3   OH247992   6.241   4.335   0.782 -0.6478  0.1085  0.0499
 8834TIP3    H147993   6.333   4.314   0.764 -0.7722 -0.5855  0.2193
 8834TIP3    H247994   6.236   4.430   0.768 -0.2507 -0.0649 -1.4464
 8835TIP3   OH247995   6.391   1.509  15.618  0.4652  0.0108 -0.1404
 8835TIP3    H147996   6.303   1.539  15.593  0.5858  0.4795 -0.0072
 8835TIP3    H247997   6.392   1.511  15.713  0.5759 -0.1240 -0.1378
 8836TIP3   OH247998   5.753   4.539  12.636  0.1371 -0.2620 -0.4722
 8836TIP3    H147999   5.752   4.446  12.616 -0.5638 -0.2417 -0.5675
 8836TIP3    H248000   5.679   4.552  12.695  0.7342  0.0957  0.2133
 8837TIP3   OH248001   5.054   3.078  13.126  0.0909  0.1178  0.0175
 8837TIP3    H148002   5.089   3.133  13.056 -1.1125 -0.5194 -1.1397
 8837TIP3    H248003   5.116   3.088  13.198  0.1959  2.5405 -0.3220
 8838TIP3   OH248004   1.553   4.392  16.094 -0.1732 -0.2381 -0.2794
 8838TIP3    H148005   1.541   4.300  16.072 -1.6657  0.0457 -0.7498
 8838TIP3    H248006   1.543   4.396  16.189 -1.0034 -0.4451 -0.3535
 8839TIP3   OH248007   3.711   1.308   1.037  0.1453 -0.2508  0.2094
 8839TIP3    H148008   3.735   1.283   0.948  0.0403  1.9852 -0.5021
 8839TIP3    H248009   3.794   1.328   1.079  0.0460  0.9590 -0.1424
 8840TIP3   OH248010   6.538   0.212  14.017 -0.6871 -0.1346  0.0927
 8840TIP3    H148011   6.490   0.281  13.973 -0.7798  0.1676  0.6649
 8840TIP3    H248012   6.497   0.205  14.103  0.1153 -0.0551  0.4887
 8841TIP3   OH248013   1.403   0.393   0.349 -0.0798  0.6008  0.0708
 8841TIP3    H148014   1.310   0.411   0.360 -0.3540 -0.3133 -0.6105
 8841TIP3    H248015   1.421   0.320   0.408  0.8176  2.3589  2.1256
 8842TIP3   OH248016   2.581   6.691  16.146 -0.1897  0.0158  0.4569
 8842TIP3    H148017   2.491   6.658  16.143 -0.0395 -0.4837  1.1307
 8842TIP3    H248018   2.618   6.668  16.061 -0.4269 -0.5893  0.5108
 8843TIP3   OH248019   4.807   4.779   0.648  0.2106 -0.3702 -0.0252
 8843TIP3    H148020   4.725   4.821   0.623  1.2403  1.3112 -0.7591
 8843TIP3    H248021   4.802   4.691   0.611 -0.5105  0.3178 -1.6568
 8844TIP3   OH248022   5.664   2.845  10.933 -0.3348  0.1947  0.2185
 8844TIP3    H148023   5.573   2.842  10.963  0.2784  2.5815  2.6673
 8844TIP3    H248024   5.662   2.905  10.858 -0.8719 -0.4432 -0.2940
 8845TIP3   OH248025   2.685   4.457  13.993  0.2553  0.5428  0.5894
 8845TIP3    H148026   2.754   4.413  13.942 -1.0394  0.8155 -1.5403
 8845TIP3    H248027   2.699   4.550  13.977 -1.1694  0.5640 -0.7297
 8846TIP3   OH248028   5.900   2.395  14.468  0.1890  1.1361  0.3090
 8846TIP3    H148029   5.930   2.399  14.559 -0.1938  0.6301  0.4602
 8846TIP3    H248030   5.980   2.383  14.417  0.1732 -2.6494  0.8775
 8847TIP3   OH248031   1.335   3.068  13.230 -0.2903 -0.0940  0.3388
 8847TIP3    H148032   1.321   2.974  13.226 -0.0611 -0.2451  2.0166
 8847TIP3    H248033   1.430   3.078  13.235  0.0538  0.5212 -3.9264
 8848TIP3   OH248034   2.536   6.127   0.368 -0.0113 -0.1727  0.0918
 8848TIP3    H148035   2.522   6.219   0.393 -0.8696 -0.0094 -0.9328
 8848TIP3    H248036   2.554   6.131   0.274  0.2489 -1.0376  0.0992
 8849TIP3   OH248037   3.446   6.111  12.264  0.1382  0.5774 -0.0813
 8849TIP3    H148038   3.461   6.051  12.190  0.4121  0.0290  0.4117
 8849TIP3    H248039   3.352   6.128  12.263 -0.2883 -1.4033  0.9281
 8850TIP3   OH248040   2.000   1.534   5.708  0.2429  0.2025  0.1207
 8850TIP3    H148041   2.022   1.480   5.784  0.2044  0.2022  0.1317
 8850TIP3    H248042   2.020   1.623   5.734 -0.3784  0.2759  0.3585
 8851TIP3   OH248043   3.936   0.789   0.574  0.4144 -0.2111 -0.0153
 8851TIP3    H148044   3.861   0.827   0.528 -0.2473 -1.4899 -0.0178
 8851TIP3    H248045   3.963   0.858   0.636  1.6576  1.7752 -2.5621
 8852TIP3   OH248046   5.236   1.205  11.132  0.3673  0.5660 -0.3231
 8852TIP3    H148047   5.203   1.229  11.219 -1.8214  2.0996 -1.4959
 8852TIP3    H248048   5.287   1.281  11.104  2.7672 -0.6777  0.2966
 8853TIP3   OH248049   0.387   0.623  12.308 -0.4686 -0.5017  0.0085
 8853TIP3    H148050   0.337   0.564  12.365 -1.8565 -0.6706 -1.3204
 8853TIP3    H248051   0.381   0.583  12.221 -0.3676  0.9463 -0.6903
 8854TIP3   OH248052   6.114   1.586   2.515  0.0998 -0.3397  0.4780
 8854TIP3    H148053   6.113   1.575   2.610  2.0252 -0.4565  0.5230
 8854TIP3    H248054   6.025   1.611   2.493 -0.5283 -0.8735  2.2431
 8855TIP3   OH248055   0.774   2.978  13.091  0.0011 -0.2111 -0.2579
 8855TIP3    H148056   0.841   3.040  13.062  0.3608 -0.6740 -0.4298
 8855TIP3    H248057   0.700   3.033  13.116  0.4949  0.3213  0.0731
 8856TIP3   OH248058   2.654   3.552   1.444 -0.0812  0.6915 -0.3927
 8856TIP3    H148059   2.657   3.480   1.382  0.4057 -0.1339  0.5685
 8856TIP3    H248060   2.619   3.514   1.524 -1.6158  1.9575 -0.4159
 8857TIP3   OH248061   2.149   3.454   5.654  0.6043  0.1069 -0.0942
 8857TIP3    H148062   2.091   3.503   5.596  2.2288  2.3440  0.0255
 8857TIP3    H248063   2.175   3.377   5.602 -1.9251 -0.6835 -0.3383
 8858TIP3   OH248064   0.072   5.527   0.997  0.2745 -0.6468  0.0979
 8858TIP3    H148065   0.030   5.553   0.915 -1.7303 -0.4671  1.1217
 8858TIP3    H248066   0.125   5.602   1.023 -0.3916 -0.0613 -0.2133
 8859TIP3   OH248067   0.528   5.237   4.424  0.0985  0.1359 -0.5836
 8859TIP3    H148068   0.552   5.268   4.511 -0.3522  1.2275 -0.8351
 8859TIP3    H248069   0.435   5.213   4.432  0.0499  0.2603 -0.7633
 8860TIP3   OH248070   5.037   5.821   3.606 -0.7237 -0.3346  0.0201
 8860TIP3    H148071   5.064   5.753   3.544 -0.6777  1.8488 -2.5068
 8860TIP3    H248072   5.114   5.877   3.616 -0.7580 -0.5538  2.0693
 8861TIP3   OH248073   0.132   3.396  12.133  0.2800  0.0870  0.6856
 8861TIP3    H148074   0.189   3.469  12.155  1.0741  0.0600 -1.1313
 8861TIP3    H248075   0.122   3.400  12.038  0.0318 -1.9106  0.5676
 8862TIP3   OH248076   5.088   3.905  17.196  0.0851  0.4938 -0.2337
 8862TIP3    H148077   5.133   3.871  17.273  1.7391  1.3966 -0.7462
 8862TIP3    H248078   5.072   3.997  17.217 -0.8269  0.3899 -0.4021
 8863TIP3   OH248079   5.479   0.059   4.951 -0.4550 -0.4566  0.5719
 8863TIP3    H148080   5.438  -0.023   4.979  0.8088 -0.5909  2.2195
 8863TIP3    H248081   5.547   0.032   4.890  0.6626 -0.7972  1.9114
 8864TIP3   OH248082   3.558   1.061   0.240  0.2979 -0.8448  0.7633
 8864TIP3    H148083   3.578   1.002   0.167  0.0848 -1.0765  0.8937
 8864TIP3    H248084   3.479   1.025   0.280  0.6244 -0.9369  1.3445
 8865TIP3   OH248085   6.367   1.248  14.497  0.1173  0.6302 -0.1573
 8865TIP3    H148086   6.333   1.173  14.545 -2.2343  1.6883 -0.0531
 8865TIP3    H248087   6.359   1.322  14.557 -0.4046  1.4965 -1.2575
 8866TIP3   OH248088   4.737   0.285   0.696  0.0189  0.1063 -0.4829
 8866TIP3    H148089   4.771   0.289   0.607 -1.0348 -3.2731 -1.2066
 8866TIP3    H248090   4.662   0.226   0.690 -1.0875  1.0331  2.4070
 8867TIP3   OH248091   0.167   0.677   2.230  0.2272  0.5422 -0.6412
 8867TIP3    H148092   0.145   0.585   2.245  0.7801  0.5273  0.1095
 8867TIP3    H248093   0.082   0.722   2.234 -0.0669  0.0620 -1.1515
 8868TIP3   OH248094   1.580   5.469   2.983 -0.0587 -0.2290  0.0439
 8868TIP3    H148095   1.674   5.459   2.998  0.1868  0.1497 -1.0686
 8868TIP3    H248096   1.573   5.483   2.888 -1.1260  0.8738  0.2598
 8869TIP3   OH248097   5.963   3.833  13.406  0.6337  0.1374  0.0999
 8869TIP3    H148098   5.873   3.856  13.384  0.9737  1.8788  0.3895
 8869TIP3    H248099   5.959   3.742  13.434 -0.7607 -0.3045 -1.4616
 8870TIP3   OH248100   4.585   0.500  10.162  0.4282  0.1572  0.0268
 8870TIP3    H148101   4.489   0.501  10.167  0.3697 -0.6023 -0.8085
 8870TIP3    H248102   4.613   0.511  10.253 -0.4615 -0.3596  0.3834
 8871TIP3   OH248103   0.000   6.813  15.377  0.1287  0.2104  0.5040
 8871TIP3    H148104  -0.055   6.748  15.333  0.0867  0.6562 -0.1025
 8871TIP3    H248105  -0.048   6.834  15.457 -1.1779  1.4541 -0.5654
 8872TIP3   OH248106   2.149   0.362  16.442  0.1233 -0.3627 -0.9873
 8872TIP3    H148107   2.230   0.414  16.446 -0.1997  0.0960 -0.2540
 8872TIP3    H248108   2.079   0.427  16.441 -0.2712 -0.7797 -0.5835
 8873TIP3   OH248109   5.042   0.526  16.867  0.7182 -0.2992 -0.1925
 8873TIP3    H148110   5.111   0.590  16.887  0.8465 -0.4953 -0.0158
 8873TIP3    H248111   4.976   0.577  16.820  0.4384  0.1522  0.6722
 8874TIP3   OH248112   3.823   6.041  13.748 -0.1069  0.2199 -0.4016
 8874TIP3    H148113   3.824   5.969  13.812 -1.7170 -0.9852 -1.6631
 8874TIP3    H248114   3.837   6.119  13.801 -1.6019 -0.7131  1.5068
 8875TIP3   OH248115   4.543   6.477  17.220  0.4502  0.3006  0.1989
 8875TIP3    H148116   4.529   6.382  17.223  0.8025  0.0840 -2.4488
 8875TIP3    H248117   4.616   6.492  17.280  0.8688 -1.2402  0.1405
 8876TIP3   OH248118   1.855   0.401   0.387  0.1520 -0.0885  0.7155
 8876TIP3    H148119   1.803   0.320   0.386  1.2797 -0.8351  0.8339
 8876TIP3    H248120   1.862   0.426   0.295  1.4128 -1.2147  0.4793
 8877TIP3   OH248121   0.387   6.234   1.679 -0.5561  0.5752 -0.4910
 8877TIP3    H148122   0.339   6.155   1.703 -0.5230  0.6417 -0.2052
 8877TIP3    H248123   0.478   6.205   1.668 -0.4505  0.6588  0.0967
 8878TIP3   OH248124   4.021   5.886   3.127 -0.1014 -0.0889 -0.1835
 8878TIP3    H148125   3.935   5.926   3.122 -0.8430 -1.7464 -2.5632
 8878TIP3    H248126   4.008   5.807   3.179  0.8796  1.4231  2.5868
 8879TIP3   OH248127   0.343   6.361  11.049 -0.5433  0.4077  0.5530
 8879TIP3    H148128   0.336   6.419  10.972 -2.2181  0.4985  0.7344
 8879TIP3    H248129   0.312   6.276  11.017  1.1510 -0.2229  0.5008
 8880TIP3   OH248130   0.979   1.646   5.399 -0.7250  0.1473 -0.9537
 8880TIP3    H148131   0.894   1.611   5.427 -0.4736 -0.6857 -1.1921
 8880TIP3    H248132   0.959   1.734   5.368 -1.7651 -0.5394 -2.3612
 8881TIP3   OH248133   0.729   2.517   5.141 -0.0138  0.0266 -0.1607
 8881TIP3    H148134   0.694   2.556   5.222  1.3010 -1.8072  1.3761
 8881TIP3    H248135   0.809   2.473   5.168  1.7135  1.2107 -2.9315
 8882TIP3   OH248136   0.343   4.543  12.081 -0.3465 -0.5919  0.1317
 8882TIP3    H148137   0.255   4.580  12.086 -0.2160 -0.3155  0.3898
 8882TIP3    H248138   0.369   4.555  11.989 -0.4637 -0.4022  0.1221
 8883TIP3   OH248139   4.540   5.714  12.748  0.1015 -0.0350 -0.1160
 8883TIP3    H148140   4.612   5.763  12.709 -0.4075  1.6644  0.9859
 8883TIP3    H248141   4.560   5.712  12.842 -1.1201  0.1915  0.1666
 8884TIP3   OH248142   0.194   6.301   0.863  0.3640  0.8239 -0.3981
 8884TIP3    H148143   0.156   6.381   0.898  0.6005 -0.1835  2.3970
 8884TIP3    H248144   0.286   6.304   0.891  0.8762  0.4645 -1.9591
 8885TIP3   OH248145   4.129   5.308   0.747  0.4944  0.0443  0.2463
 8885TIP3    H148146   4.062   5.240   0.749 -0.3718  0.8588 -0.0812
 8885TIP3    H248147   4.209   5.262   0.721  0.0777 -0.9480  0.6532
 8886TIP3   OH248148   5.175   5.352  15.537 -0.6726  0.0658  0.4910
 8886TIP3    H148149   5.240   5.305  15.589 -0.4062 -0.0331  0.0726
 8886TIP3    H248150   5.102   5.291  15.530 -0.9011  0.2524  1.1312
 8887TIP3   OH248151   2.555   1.126   5.249  0.0903 -0.1329  0.4765
 8887TIP3    H148152   2.473   1.171   5.269  0.1109 -0.5289  1.5696
 8887TIP3    H248153   2.590   1.103   5.335  0.0201 -2.3233 -0.0251
 8888TIP3   OH248154   5.472   1.651  16.936 -0.2042  0.4692  0.4410
 8888TIP3    H148155   5.455   1.703  17.014 -2.1957 -0.1163  0.4425
 8888TIP3    H248156   5.453   1.561  16.962 -2.5119  0.4296 -1.0771
 8889TIP3   OH248157   6.570   2.651  14.047 -0.1039 -0.0557  0.6002
 8889TIP3    H148158   6.476   2.645  14.068 -0.5637  1.7550 -0.7290
 8889TIP3    H248159   6.588   2.745  14.044  1.0476 -0.2746 -1.9826
 8890TIP3   OH248160   1.879   2.285   2.189 -0.4728  0.3074  0.1635
 8890TIP3    H148161   1.911   2.374   2.179 -0.8292  0.2929 -1.3131
 8890TIP3    H248162   1.786   2.289   2.166 -0.4988 -0.4371  0.0982
 8891TIP3   OH248163   6.754   6.099  12.619  0.4469 -0.2526  0.2872
 8891TIP3    H148164   6.811   6.027  12.649 -0.1342  0.6448  4.0561
 8891TIP3    H248165   6.666   6.060  12.619  0.4652 -0.3129 -0.6769
 8892TIP3   OH248166   1.801   6.795   2.481  0.8994  0.0705 -0.1844
 8892TIP3    H148167   1.771   6.844   2.557  0.0484 -0.5920 -0.0813
 8892TIP3    H248168   1.886   6.834   2.459  0.6096  1.0456  0.3744
 8893TIP3   OH248169   0.683   2.194   1.380 -0.2679  0.3994  0.0499
 8893TIP3    H148170   0.650   2.112   1.343 -0.3476 -0.4498  1.8742
 8893TIP3    H248171   0.773   2.175   1.406 -0.4875  0.6802  1.0617
 8894TIP3   OH248172   3.058   4.923  11.975 -0.1977  0.0503  0.1917
 8894TIP3    H148173   3.021   5.011  11.963  0.9250  0.4235 -0.6316
 8894TIP3    H248174   3.044   4.880  11.891 -0.0079 -0.2851  0.3328
 8895TIP3   OH248175   0.089   6.273   4.254 -0.2380 -0.4659 -0.1987
 8895TIP3    H148176   0.059   6.364   4.251 -0.9851 -0.7267 -2.0274
 8895TIP3    H248177   0.027   6.228   4.311 -1.1137 -0.2299 -0.9423
 8896TIP3   OH248178   0.142   3.941   5.119  0.3983 -0.0741 -0.2483
 8896TIP3    H148179   0.083   3.885   5.169  0.4523 -1.1473 -1.3475
 8896TIP3    H248180   0.206   3.971   5.184 -1.2996  1.1237  0.9628
 8897TIP3   OH248181   3.494   5.945  15.372 -0.2998  0.0873 -0.0493
 8897TIP3    H148182   3.525   6.027  15.334  0.2379 -0.4927 -0.8846
 8897TIP3    H248183   3.408   5.966  15.407  0.2444  1.2594  0.6473
 8898TIP3   OH248184   4.783   2.193  10.332 -0.4546 -0.7812 -1.1177
 8898TIP3    H148185   4.793   2.101  10.358 -0.2808 -0.8952 -1.5801
 8898TIP3    H248186   4.727   2.231  10.400  2.6368 -0.2095  1.3516
 8899TIP3   OH248187   2.981   2.919   5.694  0.6535  0.2437 -0.1234
 8899TIP3    H148188   2.946   2.852   5.635  0.3422  0.2374  0.0636
 8899TIP3    H248189   3.050   2.962   5.643 -0.2445  0.8739 -0.8494
 8900TIP3   OH248190   3.190   2.108  13.591 -0.2114  0.1646  0.3942
 8900TIP3    H148191   3.286   2.110  13.597 -0.0097 -0.2319 -1.8589
 8900TIP3    H248192   3.167   2.016  13.606 -0.2846  0.3013  1.1734
 8901TIP3   OH248193   4.002   2.772  16.113  0.4752 -0.3722 -0.1457
 8901TIP3    H148194   4.077   2.831  16.111 -1.1648  1.8352 -0.3355
 8901TIP3    H248195   3.971   2.770  16.022  0.3542 -1.3380 -0.0923
 8902TIP3   OH248196   3.464   5.858   3.655  0.0361  0.0221 -0.4649
 8902TIP3    H148197   3.442   5.862   3.561 -0.6574 -0.9601 -0.3712
 8902TIP3    H248198   3.508   5.774   3.665 -2.1023 -1.0829  0.4742
 8903TIP3   OH248199   1.135   1.803   1.310  0.0562  0.4009 -0.2411
 8903TIP3    H148200   1.045   1.772   1.298  0.4194 -1.2783  1.0651
 8903TIP3    H248201   1.147   1.867   1.240 -2.6749  1.8861  0.5050
 8904TIP3   OH248202   2.000   5.013  10.851 -0.0676 -0.1822  0.3171
 8904TIP3    H148203   1.950   5.094  10.854  0.4855  0.1308  2.0628
 8904TIP3    H248204   1.977   4.974  10.767 -0.0305  1.9710 -0.7769
 8905TIP3   OH248205   0.830   2.932   4.863  0.1192 -0.4269  0.1601
 8905TIP3    H148206   0.917   2.917   4.898  1.4164  0.7912 -2.2661
 8905TIP3    H248207   0.778   2.859   4.896  2.1078 -1.3382  1.4714
 8906TIP3   OH248208   1.960   4.429  13.462 -0.4801 -0.3166  0.3316
 8906TIP3    H148209   1.890   4.364  13.455  0.3718 -1.0851 -2.2586
 8906TIP3    H248210   1.980   4.452  13.371  1.3011  1.3348  1.0749
 8907TIP3   OH248211   3.397   1.868   4.265  0.1312  0.2617 -0.2045
 8907TIP3    H148212   3.470   1.920   4.232 -0.8898  1.7159 -0.2440
 8907TIP3    H248213   3.421   1.848   4.355  0.8168  0.2604 -0.3806
 8908TIP3   OH248214   5.215   3.792  11.321 -0.0227 -0.0018 -0.0089
 8908TIP3    H148215   5.156   3.734  11.369 -2.0723  1.3027 -0.8463
 8908TIP3    H248216   5.205   3.767  11.230 -0.1296  0.9619 -0.2698
 8909TIP3   OH248217   3.944   0.936   2.734  0.0568 -0.3257  0.0992
 8909TIP3    H148218   3.878   0.872   2.761  0.1309  0.2927  1.9562
 8909TIP3    H248219   4.008   0.886   2.684 -0.7031 -1.3665  0.1342
 8910TIP3   OH248220   6.580   0.923   3.893 -0.1272 -0.3440  0.2573
 8910TIP3    H148221   6.539   0.841   3.918 -0.7683 -0.2791 -0.5348
 8910TIP3    H248222   6.671   0.899   3.872 -0.3951 -0.9133 -0.2804
 8911TIP3   OH248223   5.810   1.789   3.742  0.0545  0.1834 -0.2456
 8911TIP3    H148224   5.852   1.786   3.828  1.0142 -4.0257 -0.6130
 8911TIP3    H248225   5.880   1.817   3.683  0.7971 -1.3521 -0.1478
 8912TIP3   OH248226   6.701   2.036   6.016 -0.4464  0.0429  0.6512
 8912TIP3    H148227   6.606   2.046   6.016 -0.3497  1.2748  1.3972
 8912TIP3    H248228   6.725   2.033   5.923 -1.1118  0.9911  0.4337
 8913TIP3   OH248229   6.536   4.588   2.663  0.3789  0.1804  0.4293
 8913TIP3    H148230   6.482   4.524   2.710  0.6076 -0.3760 -0.0592
 8913TIP3    H248231   6.624   4.552   2.666  0.0734 -0.9818 -2.2989
 8914TIP3   OH248232   3.463   1.496  15.763 -0.0135 -0.1763 -0.3835
 8914TIP3    H148233   3.456   1.412  15.718 -0.4547 -0.1710 -0.3321
 8914TIP3    H248234   3.374   1.514  15.794 -0.1464  0.8133 -1.2930
 8915TIP3   OH248235   0.980   0.539   4.304 -0.5342 -0.5627  0.2643
 8915TIP3    H148236   0.964   0.472   4.369  0.0874 -0.0203  0.9890
 8915TIP3    H248237   1.069   0.523   4.273 -0.3791 -0.0823  0.4421
 8916TIP3   OH248238   1.921   1.619   4.679  0.0219 -0.0327 -0.3191
 8916TIP3    H148239   1.952   1.530   4.663 -0.0801 -0.3675  1.2229
 8916TIP3    H248240   1.826   1.613   4.673 -0.0113 -0.1391  0.2358
 8917TIP3   OH248241   4.370   3.166  11.853  0.5748  0.4722  0.3373
 8917TIP3    H148242   4.289   3.156  11.802 -0.1303  1.4949  1.2118
 8917TIP3    H248243   4.440   3.146  11.790 -0.3189  0.4858 -0.6961
 8918TIP3   OH248244   6.452   4.156  14.813 -0.0198  0.1740  0.1985
 8918TIP3    H148245   6.372   4.165  14.865  0.2494  1.0179  0.4776
 8918TIP3    H248246   6.460   4.062  14.797 -0.2899 -0.0673  1.4031
 8919TIP3   OH248247   6.686   0.500  11.893  0.4455 -0.1527 -0.4607
 8919TIP3    H148248   6.597   0.533  11.881  0.2881 -0.7732 -1.0796
 8919TIP3    H248249   6.734   0.574  11.929 -0.5527 -0.1230  0.8981
 8920TIP3   OH248250   1.438   2.317   4.851 -0.0244 -0.1777 -0.3109
 8920TIP3    H148251   1.403   2.387   4.796 -1.7611 -1.2952 -0.7125
 8920TIP3    H248252   1.384   2.318   4.929 -0.5085 -1.4376 -0.5946
 8921TIP3   OH248253   4.835   4.185   1.684 -0.2357  0.0887  0.8403
 8921TIP3    H148254   4.749   4.223   1.702 -0.0883  0.5775  0.5596
 8921TIP3    H248255   4.823   4.091   1.692 -1.1703  0.0470 -0.6476
 8922TIP3   OH248256   2.319   2.548  15.636 -0.1260 -0.5199 -0.0956
 8922TIP3    H148257   2.410   2.540  15.605 -0.4974 -0.7426 -1.1479
 8922TIP3    H248258   2.281   2.616  15.580 -1.4974 -2.5686 -1.8057
 8923TIP3   OH248259   3.031   6.770  11.948 -0.0823 -0.0101  0.3863
 8923TIP3    H148260   2.987   6.747  11.866  1.2176 -0.5544 -0.1811
 8923TIP3    H248261   3.113   6.721  11.946 -0.4154 -0.7975  2.4512
 8924TIP3   OH248262   4.870   3.891   0.442 -0.8129 -0.2552 -0.1690
 8924TIP3    H148263   4.821   3.972   0.453 -0.1822  0.0087  0.7316
 8924TIP3    H248264   4.935   3.911   0.375  0.0732  0.3368  0.8418
 8925TIP3   OH248265   2.867   6.541   3.977  0.0336 -0.1543  0.9126
 8925TIP3    H148266   2.892   6.534   3.885 -1.6640 -0.8336  0.4570
 8925TIP3    H248267   2.927   6.605   4.014  0.9808 -0.1449 -0.5800
 8926TIP3   OH248268   6.102   3.705  12.695  0.2203 -0.4446  0.6762
 8926TIP3    H148269   6.059   3.621  12.677 -1.3039  0.3342  0.5137
 8926TIP3    H248270   6.030   3.768  12.701  1.4136  1.1371 -0.7315
 8927TIP3   OH248271   4.527   0.733  12.969  0.0055 -0.5916 -0.0037
 8927TIP3    H148272   4.593   0.713  12.903  0.1481  1.9764 -0.7421
 8927TIP3    H248273   4.483   0.812  12.937  0.3880  1.0685  3.1171
 8928TIP3   OH248274   6.659   4.556  11.793 -0.0292  0.9316  0.3928
 8928TIP3    H148275   6.714   4.536  11.869 -0.9119  0.2895  0.8884
 8928TIP3    H248276   6.662   4.477  11.739  0.9602  1.5485 -0.4979
 8929TIP3   OH248277   2.314   1.139   1.285  0.0041 -0.1231  0.0330
 8929TIP3    H148278   2.258   1.214   1.266 -0.1171  0.0194  0.9035
 8929TIP3    H248279   2.296   1.118   1.377 -0.4325 -1.6212 -0.3619
 8930TIP3   OH248280   1.779   1.313   6.322  0.5094 -0.2979 -0.5966
 8930TIP3    H148281   1.872   1.335   6.329  0.6098 -0.4993 -1.2714
 8930TIP3    H248282   1.735   1.386   6.365  0.9993 -0.4915  0.2703
 8931TIP3   OH248283   2.604   2.476  17.154 -0.5553  0.1770 -0.0207
 8931TIP3    H148284   2.658   2.529  17.214  3.3252 -2.9687 -0.3475
 8931TIP3    H248285   2.582   2.398  17.205 -3.2343  0.4456 -0.6206
 8932TIP3   OH248286   6.652   2.052  10.927 -0.4114  0.1416  0.1773
 8932TIP3    H148287   6.597   2.127  10.904  0.7698  0.7665 -0.6858
 8932TIP3    H248288   6.728   2.090  10.970 -0.1587 -0.6345  0.4320
 8933TIP3   OH248289   2.238   4.163  15.043  0.6505  0.0093 -0.4421
 8933TIP3    H148290   2.180   4.164  15.119 -0.3494 -0.9555 -1.1510
 8933TIP3    H248291   2.322   4.195  15.075  0.3145 -0.6225  1.1093
 8934TIP3   OH248292   0.733   6.516   4.546  0.0435 -0.1845  0.2365
 8934TIP3    H148293   0.655   6.477   4.505 -0.7731  0.3062  1.2647
 8934TIP3    H248294   0.723   6.610   4.532  1.6728 -0.2402 -1.6564
 8935TIP3   OH248295   5.333   6.768   1.915 -0.4774  0.3567 -0.0683
 8935TIP3    H148296   5.360   6.760   1.823  0.2207  0.8894  0.0784
 8935TIP3    H248297   5.392   6.834   1.951 -0.6082  0.0020  0.8205
 8936TIP3   OH248298   1.642   5.258   3.593 -0.3363  0.1229 -0.7613
 8936TIP3    H148299   1.734   5.241   3.610 -0.7527 -0.7730  0.8555
 8936TIP3    H248300   1.641   5.329   3.529  1.4583  0.2657 -0.6604
 8937TIP3   OH248301   3.096   2.219   2.602 -0.4722 -0.2056 -0.6461
 8937TIP3    H148302   3.065   2.183   2.685 -0.3607  1.0266 -0.0378
 8937TIP3    H248303   3.036   2.292   2.584 -1.5711 -1.5102 -2.5690
 8938TIP3   OH248304   3.685   4.960   4.468 -0.4641  0.5694  0.3287
 8938TIP3    H148305   3.673   5.017   4.544  0.8518  2.4028 -0.7543
 8938TIP3    H248306   3.751   4.896   4.497 -2.0571 -0.6040  1.5981
 8939TIP3   OH248307   5.683   4.983  12.919 -0.1148 -0.4246 -0.2150
 8939TIP3    H148308   5.642   5.060  12.879  1.2558  0.2633 -0.3561
 8939TIP3    H248309   5.697   4.923  12.845 -1.8089 -1.1380 -0.0002
 8940TIP3   OH248310   2.203   2.206  14.504  0.1006 -0.4959  0.5388
 8940TIP3    H148311   2.260   2.261  14.450 -0.9214 -0.1796 -0.2517
 8940TIP3    H248312   2.262   2.164  14.566  0.8515  2.2346  1.8524
 8941TIP3   OH248313   5.891   0.322   3.227  0.2289 -0.2103  0.0034
 8941TIP3    H148314   5.908   0.416   3.231 -0.8141 -0.0157  0.0933
 8941TIP3    H248315   5.972   0.285   3.192  0.0014  0.9242 -1.8472
 8942TIP3   OH248316   5.969   2.676  13.889  0.6666 -0.1933  0.0086
 8942TIP3    H148317   5.982   2.706  13.979 -0.5943  0.8501 -0.1264
 8942TIP3    H248318   5.948   2.583  13.898  0.6666 -0.1292  0.7747
 8943TIP3   OH248319   3.014   2.309  13.584  0.5613  0.6072  0.3722
 8943TIP3    H148320   3.040   2.335  13.673  0.6196  0.0036  0.5388
 8943TIP3    H248321   3.053   2.222  13.573 -1.3296 -0.3131  0.5991
 8944TIP3   OH248322   2.892   0.413  10.484  0.2938 -0.2065 -0.1638
 8944TIP3    H148323   2.983   0.443  10.475 -0.1793  1.9358  1.4408
 8944TIP3    H248324   2.894   0.353  10.558  0.6600 -1.6153 -1.2677
 8945TIP3   OH248325   5.846   3.485   3.385 -0.0960 -0.0200 -0.1954
 8945TIP3    H148326   5.782   3.420   3.415 -1.0379  1.2345  0.5965
 8945TIP3    H248327   5.805   3.525   3.308 -1.1941  2.0899  1.3905
 8946TIP3   OH248328   6.364   0.899  16.109 -0.4358 -0.3291 -0.5347
 8946TIP3    H148329   6.381   0.820  16.057  0.1494 -0.7071  0.2055
 8946TIP3    H248330   6.371   0.971  16.046  1.6220 -0.6657 -0.7732
 8947TIP3   OH248331   4.255   1.231  13.617 -0.2514  0.0552 -0.2846
 8947TIP3    H148332   4.248   1.299  13.550 -3.5941 -1.0823 -1.2989
 8947TIP3    H248333   4.222   1.272  13.697  0.7761  0.5126 -0.0853
 8948TIP3   OH248334   3.882   0.054  17.016  0.1498  0.2293  0.3879
 8948TIP3    H148335   3.957  -0.004  17.006  0.8733  1.3334 -1.0543
 8948TIP3    H248336   3.813   0.014  16.962  0.1012 -0.1177  0.7005
 8949TIP3   OH248337   2.127   6.646  15.220  0.3421  0.1096  0.6413
 8949TIP3    H148338   2.191   6.628  15.289  0.8752  0.6441  0.2864
 8949TIP3    H248339   2.175   6.693  15.153 -0.5936  1.2720  0.7378
 8950TIP3   OH248340   1.883   3.636  17.233  0.5910  0.1985 -0.3643
 8950TIP3    H148341   1.899   3.610  17.324 -1.7392  0.6918  0.2430
 8950TIP3    H248342   1.900   3.731  17.233 -0.7251  0.4514 -0.0757
 8951TIP3   OH248343   2.667   3.921   2.768 -0.1010  0.4198 -0.2638
 8951TIP3    H148344   2.578   3.931   2.802 -0.9148 -0.8000 -1.9041
 8951TIP3    H248345   2.700   3.842   2.812  1.1926  2.2224  2.2567
 8952TIP3   OH248346   1.623   6.127   0.301  0.1115  0.3135  0.1085
 8952TIP3    H148347   1.530   6.105   0.304  0.5783 -1.7624  1.5993
 8952TIP3    H248348   1.631   6.204   0.356 -0.8374  1.0880 -0.7948
 8953TIP3   OH248349   6.523   1.559  13.099 -0.1932  0.2996 -0.4142
 8953TIP3    H148350   6.528   1.617  13.175 -1.0677 -0.4758  0.2636
 8953TIP3    H248351   6.447   1.590  13.050  0.7142  1.1744 -1.3312
 8954TIP3   OH248352   1.194   6.255   1.163  0.0471 -0.0735 -0.0502
 8954TIP3    H148353   1.119   6.225   1.214  0.8718  0.4676  1.5498
 8954TIP3    H248354   1.177   6.348   1.150 -0.4359 -0.3198 -1.3063
 8955TIP3   OH248355   2.486   3.123  17.200  0.1711  0.0241 -0.1990
 8955TIP3    H148356   2.503   3.075  17.281 -2.1145 -0.4294  0.0538
 8955TIP3    H248357   2.517   3.063  17.131  2.7717  0.6910  0.2604
 8956TIP3   OH248358   4.213   4.125  15.419 -0.5950 -0.3427  0.1623
 8956TIP3    H148359   4.253   4.203  15.381  0.4214 -0.7622  0.3349
 8956TIP3    H248360   4.119   4.140  15.413 -0.4199  0.4458 -0.7359
 8957TIP3   OH248361   1.855   1.824   0.522  0.9410 -0.0858 -0.7092
 8957TIP3    H148362   1.802   1.841   0.444 -0.7962  0.2450  0.4964
 8957TIP3    H248363   1.874   1.731   0.518 -0.5175 -0.4102 -0.7395
 8958TIP3   OH248364   5.785   1.205   0.012  0.1857  0.4682  0.9168
 8958TIP3    H148365   5.728   1.211  -0.065 -0.2428 -2.2646  0.9331
 8958TIP3    H248366   5.873   1.192  -0.025  0.2135  0.7414  0.8880
 8959TIP3   OH248367   6.473   1.092   1.283 -0.2477 -0.4533  0.2026
 8959TIP3    H148368   6.397   1.066   1.230 -1.2575  0.6795  1.0574
 8959TIP3    H248369   6.437   1.147   1.352  1.0040 -2.0007  2.1966
 8960TIP3   OH248370   0.832   2.660   3.647  0.0166 -0.5119  0.6634
 8960TIP3    H148371   0.856   2.642   3.738  2.2744 -1.0584  0.0284
 8960TIP3    H248372   0.812   2.574   3.610 -1.7296 -0.2030  0.8177
 8961TIP3   OH248373   1.773   2.000   4.970 -0.0710 -0.2117  0.0614
 8961TIP3    H148374   1.804   1.925   5.022 -0.7638 -1.3768 -1.1325
 8961TIP3    H248375   1.813   1.987   4.884 -0.9924  0.2412 -0.4475
 8962TIP3   OH248376   3.948   3.138  10.387 -0.0032  0.2027 -0.2098
 8962TIP3    H148377   3.984   3.141  10.298  1.4013 -0.2556  0.3133
 8962TIP3    H248378   3.922   3.228  10.405 -2.4057 -0.0678 -1.8694
 8963TIP3   OH248379   2.487   3.703  15.136 -0.0339  0.2002 -0.0110
 8963TIP3    H148380   2.491   3.797  15.152  2.4456  0.0671  0.5791
 8963TIP3    H248381   2.409   3.691  15.081  0.2807  2.7370 -1.1596
 8964TIP3   OH248382   5.665   5.962   4.422  0.3854 -0.0794  0.0121
 8964TIP3    H148383   5.676   5.930   4.332  2.3394  0.0940  0.1470
 8964TIP3    H248384   5.663   5.883   4.475 -0.5197 -0.1731 -0.1515
 8965TIP3   OH248385   4.501   5.750   1.842 -0.1318  0.1913  0.0307
 8965TIP3    H148386   4.470   5.692   1.911 -0.8244  0.5498  0.0379
 8965TIP3    H248387   4.471   5.709   1.761 -0.5627  0.4862  0.0322
 8966TIP3   OH248388   3.994   4.245  17.094  0.4032  0.3011 -0.4384
 8966TIP3    H148389   4.003   4.168  17.152  1.1720 -0.5886 -1.6953
 8966TIP3    H248390   3.900   4.251  17.077  0.3090 -0.2272 -0.1443
 8967TIP3   OH248391   5.525   4.593  10.915 -0.0637 -0.5379 -0.2915
 8967TIP3    H148392   5.508   4.502  10.894 -0.9984 -0.5314  0.3987
 8967TIP3    H248393   5.556   4.631  10.833  0.5944 -1.5298 -0.5168
 8968TIP3   OH248394   4.991   5.632  15.957 -0.1987 -0.2072 -0.2386
 8968TIP3    H148395   4.940   5.552  15.945 -0.1393 -0.3439  0.3560
 8968TIP3    H248396   4.991   5.674  15.872 -1.1853 -0.2767 -0.2810
 8969TIP3   OH248397   5.571   4.811   3.865 -0.8624 -0.2295  0.1197
 8969TIP3    H148398   5.483   4.837   3.893 -0.4091  1.7290 -0.1189
 8969TIP3    H248399   5.593   4.872   3.794  0.5727 -0.8749 -0.0344
 8970TIP3   OH248400   6.198   3.400  13.674 -0.3823 -0.1054  0.6122
 8970TIP3    H148401   6.215   3.494  13.686  0.4628  0.3008 -2.7749
 8970TIP3    H248402   6.131   3.397  13.606 -0.3479 -1.9736  0.6268
 8971TIP3   OH248403   6.525   3.577   3.863  0.1824  0.4149  0.4442
 8971TIP3    H148404   6.538   3.485   3.884  0.9716  0.6215  0.9179
 8971TIP3    H248405   6.485   3.614   3.942 -0.3023  0.4494  0.1885
 8972TIP3   OH248406   0.676   3.223  12.103  0.3782 -0.1346  0.1007
 8972TIP3    H148407   0.667   3.318  12.106  2.7032  0.1791 -0.9305
 8972TIP3    H248408   0.768   3.207  12.125  0.6427 -1.9618 -2.0051
 8973TIP3   OH248409   3.481   5.593  13.583 -0.1588 -0.4024 -0.3789
 8973TIP3    H148410   3.425   5.621  13.655  0.3821  0.5675 -0.3245
 8973TIP3    H248411   3.458   5.652  13.511  0.8893  0.1073 -0.3077
 8974TIP3   OH248412   4.793   6.485   5.090  0.1136  0.3359  0.0948
 8974TIP3    H148413   4.726   6.544   5.124 -0.5376 -0.1669 -0.2660
 8974TIP3    H248414   4.847   6.464   5.166  0.0466  0.9917  0.3294
 8975TIP3   OH248415   4.902   0.201  13.635 -0.1927  0.2173 -0.1608
 8975TIP3    H148416   4.860   0.252  13.704 -0.5023  0.9018 -0.8465
 8975TIP3    H248417   4.984   0.171  13.675 -0.4073  0.5211  0.5336
 8976TIP3   OH248418   1.614   5.800  11.537  0.4037 -0.0110 -0.3364
 8976TIP3    H148419   1.701   5.762  11.542 -0.1041 -1.4779 -1.6942
 8976TIP3    H248420   1.622   5.872  11.474  0.9675  1.0247  0.8636
 8977TIP3   OH248421   3.694   1.906   4.295 -0.3718 -0.9009  0.3208
 8977TIP3    H148422   3.688   1.829   4.351  1.2825 -1.2594  0.0482
 8977TIP3    H248423   3.781   1.900   4.254  1.3437  2.8210  2.8606
 8978TIP3   OH248424   2.776   1.201  12.061  0.1391  0.3972  0.2352
 8978TIP3    H148425   2.841   1.156  12.115 -1.3025 -1.6457  0.3560
 8978TIP3    H248426   2.772   1.150  11.980 -0.1459  1.4806 -0.4627
 8979TIP3   OH248427   0.203   1.659   3.162 -0.8917  0.2839  0.2841
 8979TIP3    H148428   0.237   1.608   3.089 -1.3661 -0.7881  0.7868
 8979TIP3    H248429   0.281   1.697   3.203 -0.2856 -1.7400  1.1368
 8980TIP3   OH248430   6.217   6.186   1.796 -0.2682  0.2005 -0.5572
 8980TIP3    H148431   6.232   6.145   1.881 -0.5171  1.5929  0.1784
 8980TIP3    H248432   6.146   6.248   1.811  0.6506  1.5109 -1.4322
 8981TIP3   OH248433   0.222   2.146  10.935 -0.4497  0.1003 -0.1278
 8981TIP3    H148434   0.241   2.095  10.856 -1.3513  1.9880 -1.6644
 8981TIP3    H248435   0.279   2.223  10.928 -2.4016  1.5906 -0.3546
 8982TIP3   OH248436   3.172   0.596   3.337  0.1980  0.3830 -0.4705
 8982TIP3    H148437   3.167   0.651   3.415 -0.7883  0.3782 -0.5114
 8982TIP3    H248438   3.233   0.641   3.279  2.6780 -0.6979  1.1329
 8983TIP3   OH248439   1.859   5.072   2.873  0.2467 -0.2359  0.0896
 8983TIP3    H148440   1.804   5.053   2.949  1.1570 -1.9559  0.3587
 8983TIP3    H248441   1.834   5.007   2.808 -1.4194  1.9716 -1.6584
 8984TIP3   OH248442   2.739   4.074   2.358  0.7729  0.1985  0.6721
 8984TIP3    H148443   2.723   4.120   2.276 -0.9427 -0.0576  0.8188
 8984TIP3    H248444   2.834   4.071   2.366  0.9721  2.3561 -0.1047
 8985TIP3   OH248445   6.566   3.853  16.483 -0.2082 -0.5537 -0.0292
 8985TIP3    H148446   6.497   3.802  16.440 -0.8457 -0.7625  1.2194
 8985TIP3    H248447   6.578   3.811  16.567  1.9887 -0.9668 -0.5044
 8986TIP3   OH248448   3.174   4.218   4.008 -0.1679 -0.4314 -0.3049
 8986TIP3    H148449   3.092   4.170   4.019  0.2612 -0.7250  2.2190
 8986TIP3    H248450   3.155   4.306   4.041  0.4524 -0.4453  0.1159
 8987TIP3   OH248451   1.530   1.420   3.019  0.2120  0.0483  0.1134
 8987TIP3    H148452   1.438   1.436   3.040  0.0532 -1.4224  0.6303
 8987TIP3    H248453   1.528   1.362   2.943  0.7583  1.3827 -0.9703
 8988TIP3   OH248454   3.073   2.026  14.250 -0.6794  0.6149  1.2846
 8988TIP3    H148455   3.112   1.954  14.300 -1.4438  0.2929  1.4183
 8988TIP3    H248456   3.070   1.993  14.160  0.0597  0.9359  1.1322
 8989TIP3   OH248457   4.478   5.984  14.227  0.7878  0.0354  0.2183
 8989TIP3    H148458   4.461   5.911  14.168  1.1649  0.8997 -1.0245
 8989TIP3    H248459   4.395   6.032  14.230  1.2168  0.9215 -1.0121
 8990TIP3   OH248460   1.570   0.149   5.574 -0.1107 -0.0898 -0.3562
 8990TIP3    H148461   1.538   0.237   5.597  0.5822 -0.1549  0.9595
 8990TIP3    H248462   1.651   0.165   5.526 -0.5523  0.0106 -1.0715
 8991TIP3   OH248463   5.364   5.210   5.151  0.6150  0.0427  0.1772
 8991TIP3    H148464   5.383   5.150   5.079 -0.7545 -0.3823  0.1439
 8991TIP3    H248465   5.336   5.153   5.223  1.4937  0.4980  0.9037
 8992TIP3   OH248466   5.846   4.454  13.599 -0.0854 -0.3461  0.8864
 8992TIP3    H148467   5.849   4.394  13.523 -2.9983 -0.5360  0.8278
 8992TIP3    H248468   5.838   4.541  13.560 -0.3342 -0.3261  0.9862
 8993TIP3   OH248469   0.524   1.860   2.327 -0.5606  0.1114 -0.0887
 8993TIP3    H148470   0.580   1.937   2.321  0.2192 -0.5385 -1.6543
 8993TIP3    H248471   0.461   1.882   2.396  1.9417  0.6475  2.2287
 8994TIP3   OH248472   4.907   2.322  14.216  0.1381 -0.3015 -0.0746
 8994TIP3    H148473   4.896   2.264  14.141  2.1006 -0.2031 -0.4911
 8994TIP3    H248474   4.950   2.400  14.181  2.0992 -0.6962  1.2533
 8995TIP3   OH248475   5.366   4.688  14.377  1.0800  0.4418  0.0650
 8995TIP3    H148476   5.294   4.626  14.377  0.3569  1.2619  0.5057
 8995TIP3    H248477   5.445   4.634  14.381  0.4482 -0.4432  1.2119
 8996TIP3   OH248478   4.027   6.228  11.571 -0.0702 -0.4924 -0.4209
 8996TIP3    H148479   4.017   6.154  11.631  0.4038  1.1765  1.8769
 8996TIP3    H248480   3.938   6.252  11.547 -0.6026  0.9520  2.5356
 8997TIP3   OH248481   3.507   3.887  16.294 -0.2817 -0.1448 -0.2457
 8997TIP3    H148482   3.417   3.856  16.307  0.1338 -0.9768  0.7176
 8997TIP3    H248483   3.539   3.904  16.383  0.2833  0.8368 -0.6260
 8998TIP3   OH248484   3.787   2.342   4.220 -0.1490 -0.1156  0.2529
 8998TIP3    H148485   3.761   2.287   4.293  1.9159 -0.1729  1.0237
 8998TIP3    H248486   3.775   2.287   4.143  0.2765 -1.0560  0.8426
 8999TIP3   OH248487   3.374   5.284   4.791 -0.1034 -0.3791  0.3553
 8999TIP3    H148488   3.282   5.292   4.767 -0.0259  0.8225  0.3601
 8999TIP3    H248489   3.410   5.372   4.776  0.8278 -0.5962  1.1972
 9000TIP3   OH248490   1.603   2.929   1.312 -0.4034  0.3429 -0.0185
 9000TIP3    H148491   1.602   2.953   1.220 -1.8425  2.0536  0.3626
 9000TIP3    H248492   1.596   3.013   1.358 -1.5630 -0.5715  1.5752
 9001TIP3   OH248493   4.738   5.287  10.498  0.1418 -0.3259 -0.5553
 9001TIP3    H148494   4.680   5.276  10.423 -1.2907  2.8398 -0.0996
 9001TIP3    H248495   4.722   5.211  10.553 -0.5263 -1.5297 -2.3430
 9002TIP3   OH248496   3.782   3.549   2.536 -0.2513 -0.2528  0.0543
 9002TIP3    H148497   3.790   3.566   2.442 -0.1812 -0.5163  0.0127
 9002TIP3    H248498   3.857   3.493   2.557 -0.3626 -0.3363  0.2345
 9003TIP3   OH248499   3.852   3.523  15.051 -0.1185  0.1019 -0.1465
 9003TIP3    H148500   3.836   3.617  15.051 -1.5350 -0.0342  2.7207
 9003TIP3    H248501   3.935   3.512  15.004  0.6147  2.8549  0.3514
 9004TIP3   OH248502   5.064   4.308   1.231 -0.3352  0.3006 -0.0873
 9004TIP3    H148503   4.976   4.321   1.197 -0.5392  0.1477  0.3833
 9004TIP3    H248504   5.057   4.233   1.290  0.8980 -2.4299 -3.1194
 9005TIP3   OH248505   4.558   2.002  16.936 -0.2040  0.0586 -0.2270
 9005TIP3    H148506   4.596   1.971  16.854  0.5969  2.1081 -0.7020
 9005TIP3    H248507   4.633   2.037  16.985 -0.8472 -0.0051  0.8343
 9006TIP3   OH248508   4.228   3.849   2.316 -0.1223 -0.1049 -0.4877
 9006TIP3    H148509   4.216   3.897   2.234  2.4018 -0.3808 -1.1103
 9006TIP3    H248510   4.213   3.757   2.292  0.8882 -0.2169 -0.7570
 9007TIP3   OH248511   5.614   4.740   0.149 -0.4682  0.3433 -0.2472
 9007TIP3    H148512   5.588   4.659   0.192 -2.7687  1.1665  0.0558
 9007TIP3    H248513   5.603   4.722   0.055 -2.4617  0.6965 -0.1295
 9008TIP3   OH248514   4.187   2.471   1.197  0.0849 -0.5048  0.1410
 9008TIP3    H148515   4.275   2.445   1.224 -0.2042 -1.1097  0.5219
 9008TIP3    H248516   4.193   2.485   1.103  0.6591 -0.2450  0.2155
 9009TIP3   OH248517   0.188   3.480  16.137 -0.1755 -0.2099  0.6252
 9009TIP3    H148518   0.192   3.569  16.170 -2.1009 -0.0214  0.4810
 9009TIP3    H248519   0.264   3.472  16.079  0.1206  1.2715  0.7802
 9010TIP3   OH248520   1.338   2.357   2.231 -0.5940  0.2265  0.4587
 9010TIP3    H148521   1.321   2.318   2.316 -0.0441  1.6457  1.2480
 9010TIP3    H248522   1.271   2.424   2.221 -0.3045  0.4559  0.0205
 9011TIP3   OH248523   5.559   6.751   2.728  0.2366 -0.3077  0.5589
 9011TIP3    H148524   5.465   6.738   2.717 -0.0749  1.9977 -0.0630
 9011TIP3    H248525   5.593   6.758   2.639  0.3521  2.3950  0.7283
 9012TIP3   OH248526   1.137   0.890   2.117  0.5193  0.1631 -0.5843
 9012TIP3    H148527   1.116   0.981   2.094  0.7465  0.6495  0.9946
 9012TIP3    H248528   1.232   0.891   2.133  0.4882 -0.3042 -0.3617
 9013TIP3   OH248529   1.613   5.805  16.489 -0.3550  0.8096  0.3086
 9013TIP3    H148530   1.582   5.895  16.491 -1.1475  0.5374  1.4160
 9013TIP3    H248531   1.609   5.776  16.580 -1.1652 -0.6831 -0.1611
 9014TIP3   OH248532   3.614   3.129   2.185  0.0970  0.0382  0.0323
 9014TIP3    H148533   3.647   3.092   2.103  3.6746 -0.0180  1.3384
 9014TIP3    H248534   3.602   3.054   2.242  0.3893  0.2903  0.4313
 9015TIP3   OH248535   2.020   0.778   5.572 -0.4730 -0.7576 -0.0287
 9015TIP3    H148536   1.976   0.770   5.487 -1.3074 -0.7909  0.3994
 9015TIP3    H248537   2.023   0.872   5.589 -1.8749 -0.8191  0.6939
 9016TIP3   OH248538   4.875   1.871   5.566  0.3945 -0.1799  0.4422
 9016TIP3    H148539   4.925   1.808   5.514 -1.6439 -0.4572 -1.3473
 9016TIP3    H248540   4.790   1.875   5.522 -0.5871  1.5048  2.3500
 9017TIP3   OH248541   0.548   3.458  17.073 -0.1010 -0.7907 -0.1584
 9017TIP3    H148542   0.582   3.545  17.095 -0.5364 -1.0780  1.8382
 9017TIP3    H248543   0.598   3.398  17.128 -1.3473 -1.5654  0.1686
 9018TIP3   OH248544   3.947   2.318  12.830  0.3772  0.5468 -0.0276
 9018TIP3    H148545   3.909   2.276  12.753  1.0961  1.0987 -0.7130
 9018TIP3    H248546   3.918   2.409  12.824 -1.8414  0.0539  1.8803
 9019TIP3   OH248547   3.534   5.006   0.947 -0.6058  0.1458 -0.1684
 9019TIP3    H148548   3.564   5.081   0.896  0.1731  0.4094  0.6575
 9019TIP3    H248549   3.521   4.937   0.882 -0.2483  0.6585 -0.7983
 9020TIP3   OH248550   0.638   2.602   5.405  0.0134  0.3079 -0.2748
 9020TIP3    H148551   0.552   2.628   5.440 -0.6508 -2.4697  0.4090
 9020TIP3    H248552   0.675   2.546   5.473  0.9925 -1.0457 -1.8525
 9021TIP3   OH248553   5.973   1.443   0.808  0.0772 -0.1591  0.0434
 9021TIP3    H148554   6.069   1.442   0.810  0.1008  1.2838  0.9683
 9021TIP3    H248555   5.948   1.517   0.863 -1.5529  0.3062 -1.2324
 9022TIP3   OH248556   0.096   0.571   4.120 -0.2313  0.5819 -0.0748
 9022TIP3    H148557   0.029   0.522   4.167  1.3793 -2.6698 -0.9348
 9022TIP3    H248558   0.096   0.534   4.032  1.4350  1.7929 -0.6383
 9023TIP3   OH248559   3.304   5.287   3.840  0.6905 -0.6373  0.1523
 9023TIP3    H148560   3.282   5.356   3.777  0.4858 -0.3200  0.5684
 9023TIP3    H248561   3.289   5.206   3.792  0.3022 -0.3985 -0.1382
 9024TIP3   OH248562   0.520   3.870  10.448  0.1065  0.0908 -0.2449
 9024TIP3    H148563   0.583   3.873  10.521  1.6258  1.1205 -1.5132
 9024TIP3    H248564   0.538   3.787  10.405  1.1425  0.6684 -0.9960
 9025TIP3   OH248565   3.349   1.782  15.799  0.5484  0.1215 -0.2272
 9025TIP3    H148566   3.286   1.712  15.810 -0.1669  0.8134  0.1939
 9025TIP3    H248567   3.322   1.826  15.718  1.1382 -0.2365 -0.6201
 9026TIP3   OH248568   3.955   3.436   3.084  0.2467  0.8864 -0.0917
 9026TIP3    H148569   4.007   3.379   3.141 -0.9599  0.9770  1.1690
 9026TIP3    H248570   3.921   3.378   3.016  0.8575  0.5641 -0.1314
 9027TIP3   OH248571   6.286   0.269  14.158 -0.3919  0.3056 -0.1702
 9027TIP3    H148572   6.211   0.298  14.209 -0.4844 -1.3504  0.6886
 9027TIP3    H248573   6.254   0.196  14.106  0.1859  0.7580 -1.2110
 9028TIP3   OH248574   5.006   5.810  12.665 -0.0341 -0.0890  0.0489
 9028TIP3    H148575   5.090   5.825  12.708 -0.3454  0.9116  0.3453
 9028TIP3    H248576   5.023   5.740  12.603  1.2711  0.7573 -0.6048
 9029TIP3   OH248577   0.332   5.248   5.277 -0.0417 -0.2207 -0.4525
 9029TIP3    H148578   0.264   5.224   5.214  0.5773 -0.7276 -0.9447
 9029TIP3    H248579   0.300   5.215   5.361 -1.4250  1.4861 -0.2524
 9030TIP3   OH248580   3.015   4.640  11.595  0.3491 -0.0021  0.1329
 9030TIP3    H148581   2.992   4.674  11.681  0.5276 -1.4478  0.7728
 9030TIP3    H248582   3.095   4.589  11.610 -0.7454 -1.9897 -0.4716
 9031TIP3   OH248583   3.844   0.170   6.066 -0.0302 -0.3373 -0.0486
 9031TIP3    H148584   3.874   0.083   6.039 -1.2935 -0.5925 -0.7033
 9031TIP3    H248585   3.860   0.173   6.160 -0.0585 -1.3228 -0.0006
 9032TIP3   OH248586   0.447   1.686   3.307  0.2387 -0.3913 -1.0049
 9032TIP3    H148587   0.482   1.621   3.247  1.7555 -0.9358  0.3863
 9032TIP3    H248588   0.506   1.761   3.298 -0.1768 -0.0612 -0.9980
 9033TIP3   OH248589   3.215   5.361  14.315  0.1904  0.1117 -0.1361
 9033TIP3    H148590   3.275   5.370  14.241 -0.8459 -1.6878 -1.2847
 9033TIP3    H248591   3.267   5.386  14.392  2.1091 -0.4409 -1.1875
 9034TIP3   OH248592   3.853   3.329   4.647 -0.0255 -0.2493 -0.2727
 9034TIP3    H148593   3.819   3.416   4.668  0.8409  0.2697 -0.9753
 9034TIP3    H248594   3.925   3.315   4.709  0.2498 -0.1989 -0.5805
 9035TIP3   OH248595   3.040   6.535  12.351 -0.3679 -0.1311  0.7741
 9035TIP3    H148596   3.027   6.467  12.285 -1.4945  2.3551 -1.7882
 9035TIP3    H248597   3.129   6.521  12.384  0.7723 -0.7558 -2.2907
 9036TIP3   OH248598   4.976   5.262   2.251  0.2153 -0.0203  0.0497
 9036TIP3    H148599   4.924   5.187   2.279 -0.8186  0.2203 -1.0974
 9036TIP3    H248600   4.917   5.311   2.194  0.9582  1.5226  0.5539
 9037TIP3   OH248601   0.758   3.747   1.465  0.3229  0.5553 -0.1965
 9037TIP3    H148602   0.770   3.783   1.553  1.6230  1.1075 -0.5800
 9037TIP3    H248603   0.803   3.808   1.407  3.0276 -1.8128 -0.8504
 9038TIP3   OH248604   0.454   2.094  13.128  0.7761 -0.3331 -0.0584
 9038TIP3    H148605   0.542   2.125  13.106  1.9862 -2.4391  1.4189
 9038TIP3    H248606   0.432   2.137  13.210 -0.6040  1.8881 -1.4933
 9039TIP3   OH248607   6.055   0.949  13.321  0.3516 -0.5837 -0.2683
 9039TIP3    H148608   6.051   0.981  13.412 -1.1878 -0.4290 -0.3643
 9039TIP3    H248609   6.102   1.018  13.274  0.0283 -0.0493  0.1793
 9040TIP3   OH248610   3.425   0.849   4.417 -0.0223 -0.0860  0.0777
 9040TIP3    H148611   3.364   0.849   4.343  1.5460  3.3754 -1.4186
 9040TIP3    H248612   3.421   0.939   4.451 -0.9215 -1.5702  4.5827
 9041TIP3   OH248613   0.839   1.756   1.677  0.5109  0.1938  0.0327
 9041TIP3    H148614   0.901   1.801   1.734  1.5259 -0.3135 -0.6517
 9041TIP3    H248615   0.781   1.710   1.737  0.4231  1.1384  0.6983
 9042TIP3   OH248616   5.240   0.070  16.045  0.7366 -0.0239  0.6060
 9042TIP3    H148617   5.215   0.056  16.137 -0.4325  1.6247  0.5832
 9042TIP3    H248618   5.157   0.077  15.999  1.1875  2.6260  0.0142
 9043TIP3   OH248619   6.351   1.379   1.269 -0.0444  0.1915  0.3743
 9043TIP3    H148620   6.367   1.346   1.357 -0.3425 -0.9348  0.0311
 9043TIP3    H248621   6.271   1.333   1.241 -0.8160  1.6626  0.0713
 9044TIP3   OH248622   6.698   2.921  14.727 -0.2505 -0.4659 -0.1785
 9044TIP3    H148623   6.676   2.883  14.812  0.3864 -0.3963  0.0247
 9044TIP3    H248624   6.624   2.898  14.671 -0.9528 -0.0109  0.5412
 9045TIP3   OH248625   1.380   5.021   4.014  0.4991 -0.4062 -0.2768
 9045TIP3    H148626   1.429   5.019   4.096  1.6893  0.2337 -0.9317
 9045TIP3    H248627   1.442   5.058   3.950 -1.2521  1.7482 -0.8667
 9046TIP3   OH248628   3.970   2.677  16.638  0.5638  0.1200  0.1632
 9046TIP3    H148629   4.006   2.589  16.631 -0.6537 -0.3421 -0.7103
 9046TIP3    H248630   3.979   2.714  16.550 -1.5483 -0.2332 -0.2571
 9047TIP3   OH248631   3.457   6.673   0.296 -0.6435 -0.2228 -0.7364
 9047TIP3    H148632   3.448   6.710   0.208  1.4422 -0.0864 -0.9410
 9047TIP3    H248633   3.551   6.666   0.309 -0.9257 -2.3352  0.6157
 9048TIP3   OH248634   3.724   1.569  15.666  0.0322 -0.1348  0.7049
 9048TIP3    H148635   3.630   1.560  15.680  0.3373 -1.5859  2.1116
 9048TIP3    H248636   3.764   1.519  15.738  1.8720 -0.4901 -0.4949
 9049TIP3   OH248637   1.877   1.536   4.965  0.6330 -0.5351 -0.3534
 9049TIP3    H148638   1.923   1.594   4.905 -0.4203 -0.0381 -0.7087
 9049TIP3    H248639   1.839   1.468   4.908  2.0489 -1.7261  0.0801
 9050TIP3   OH248640   1.519   1.437  12.221 -0.0386 -0.2460  0.0164
 9050TIP3    H148641   1.535   1.404  12.132  0.0535  0.1102 -0.0985
 9050TIP3    H248642   1.477   1.522  12.208 -0.0812 -0.2213  0.3158
 9051TIP3   OH248643   1.824   2.322   2.998  0.1018 -0.9759 -0.0474
 9051TIP3    H148644   1.846   2.408   2.961 -1.6994 -0.2615  0.4232
 9051TIP3    H248645   1.880   2.315   3.076 -0.4431  0.2548  0.4885
 9052TIP3   OH248646   1.608   6.786   4.833  0.5499  0.1078  0.0760
 9052TIP3    H148647   1.523   6.761   4.797  0.5175  1.5548 -0.9636
 9052TIP3    H248648   1.671   6.763   4.764  0.6889  1.3235 -0.2277
 9053TIP3   OH248649   2.237   4.802  15.152  0.1357  0.1161 -0.9902
 9053TIP3    H148650   2.225   4.897  15.147  0.3214  0.2389  0.3948
 9053TIP3    H248651   2.157   4.766  15.113  0.2633  0.8218 -1.9457
 9054TIP3   OH248652   5.310   5.940  15.519 -0.4453  0.1956 -0.0508
 9054TIP3    H148653   5.348   5.964  15.434  1.7553 -0.8400  0.5488
 9054TIP3    H248654   5.376   5.967  15.583 -0.9002 -1.2884  1.1113
 9055TIP3   OH248655   2.980   3.626  16.491 -0.2823 -0.3977  0.7057
 9055TIP3    H148656   2.987   3.665  16.404  0.1672 -2.0386 -0.0229
 9055TIP3    H248657   2.987   3.700  16.551  4.9213  0.3869 -0.4361
 9056TIP3   OH248658   0.336   4.663   5.008  0.2079 -0.0453 -0.3741
 9056TIP3    H148659   0.417   4.677   4.960  0.6969  0.3009  0.5370
 9056TIP3    H248660   0.272   4.718   4.962  0.9750  1.3342  0.1698
 9057TIP3   OH248661   0.248   2.174   0.505  0.5322 -0.0602  0.3596
 9057TIP3    H148662   0.194   2.253   0.515  1.4256  0.5489  0.5147
 9057TIP3    H248663   0.204   2.123   0.437 -0.3543  0.3144  0.6413
 9058TIP3   OH248664   2.657   6.008  12.562 -0.0285  0.4230 -0.2227
 9058TIP3    H148665   2.716   6.039  12.631  0.4906 -3.6350  1.3999
 9058TIP3    H248666   2.576   5.986  12.608  0.1650 -1.9038 -0.8810
 9059TIP3   OH248667   5.614   5.020  11.318  0.3766 -0.2953 -0.2226
 9059TIP3    H148668   5.653   5.034  11.404  2.2507  0.6841 -1.1707
 9059TIP3    H248669   5.541   5.082  11.314 -0.7221 -1.4274  1.1986
 9060TIP3   OH248670   5.341   0.989   1.901  0.0996  0.7958  0.0981
 9060TIP3    H148671   5.285   0.955   1.971  0.3470 -0.8044 -0.4362
 9060TIP3    H248672   5.429   0.957   1.923  0.0517 -0.3993 -1.3212
 9061TIP3   OH248673   6.436   4.156   1.913  0.5188 -0.1440  0.5724
 9061TIP3    H148674   6.407   4.119   1.830  0.2649 -0.6127  0.8654
 9061TIP3    H248675   6.395   4.243   1.917 -0.0135 -0.3904  0.5115
 9062TIP3   OH248676   3.727   0.323   1.222  0.0162 -0.2265 -0.2897
 9062TIP3    H148677   3.807   0.361   1.184  0.4335  0.1903  0.9592
 9062TIP3    H248678   3.756   0.243   1.264 -0.2928 -0.2533 -0.1282
 9063TIP3   OH248679   5.318   4.660  13.294  0.4992  0.2253 -0.0271
 9063TIP3    H148680   5.271   4.637  13.215 -1.3173 -0.3021  1.1407
 9063TIP3    H248681   5.392   4.598  13.297  0.2361 -0.1505 -0.9800
 9064TIP3   OH248682   0.795   0.598   2.783 -0.0969  0.8405 -0.3859
 9064TIP3    H148683   0.796   0.506   2.759 -1.8380  1.2366 -2.2309
 9064TIP3    H248684   0.727   0.605   2.850 -0.0144  0.8018 -0.2976
 9065TIP3   OH248685   3.287   1.455  15.328 -0.1143 -0.1949 -0.2349
 9065TIP3    H148686   3.199   1.427  15.352  0.0461 -0.5490 -0.0456
 9065TIP3    H248687   3.293   1.545  15.359 -0.2026 -0.3723  0.3157
 9066TIP3   OH248688   6.043   6.464  13.242 -0.2296  0.1487  0.2476
 9066TIP3    H148689   5.978   6.458  13.312 -0.9613 -1.1249 -0.5138
 9066TIP3    H248690   6.041   6.378  13.200  1.2797  0.4015 -0.3961
 9067TIP3   OH248691   2.267   1.569   1.055 -0.3063  0.6513  0.5387
 9067TIP3    H148692   2.258   1.479   1.024  0.6912  0.9606 -0.7447
 9067TIP3    H248693   2.200   1.618   1.007  0.0034  0.8112  0.2669
 9068TIP3   OH248694   1.671   4.181  16.600  0.5861 -0.2948  0.1571
 9068TIP3    H148695   1.703   4.098  16.633  2.8505  0.3490 -0.2636
 9068TIP3    H248696   1.699   4.246  16.664 -0.6367  0.2446  0.1876
 9069TIP3   OH248697   1.763   1.007  15.703 -0.2733  0.0445 -0.5007
 9069TIP3    H148698   1.829   0.969  15.645  1.0079  3.0780 -1.2645
 9069TIP3    H248699   1.807   1.017  15.787  0.2995  1.9049 -0.9617
 9070TIP3   OH248700   3.857   2.363   0.399  0.1955  0.2423  0.8800
 9070TIP3    H148701   3.864   2.268   0.397  0.7730  0.2870 -0.3838
 9070TIP3    H248702   3.865   2.390   0.307 -3.7273  1.2841  0.6808
 9071TIP3   OH248703   4.120   5.243   2.438 -0.5240 -0.1420  0.2753
 9071TIP3    H148704   4.058   5.228   2.510 -1.6920 -2.4426 -1.0680
 9071TIP3    H248705   4.088   5.186   2.368  1.3094  1.0459 -1.6247
 9072TIP3   OH248706   0.857   2.149  13.819  0.1209  0.1858  0.0042
 9072TIP3    H148707   0.812   2.145  13.734 -0.7929 -2.0231  0.5300
 9072TIP3    H248708   0.800   2.205  13.872 -0.9636 -0.8873  0.0311
 9073TIP3   OH248709   0.728   4.088  11.746 -0.2226  0.6388  0.3014
 9073TIP3    H148710   0.651   4.062  11.696  1.3929 -0.2256 -1.9082
 9073TIP3    H248711   0.721   4.040  11.829 -1.7595  0.1676 -0.0783
 9074TIP3   OH248712   1.832   3.596  14.680  0.5579 -0.0647  0.1161
 9074TIP3    H148713   1.913   3.626  14.722  0.1803  0.2409  0.6512
 9074TIP3    H248714   1.808   3.667  14.621  0.8592 -0.3069 -0.3051
 9075TIP3   OH248715   4.855   2.226  11.499  0.2138  0.0728 -0.9292
 9075TIP3    H148716   4.810   2.154  11.542 -1.2698  1.1753 -0.5658
 9075TIP3    H248717   4.788   2.294  11.488  1.4324  1.2043 -1.7246
 9076TIP3   OH248718   1.550   1.210   6.096 -0.2987  0.4859  0.2486
 9076TIP3    H148719   1.613   1.254   6.153  0.0916 -0.6366  0.7075
 9076TIP3    H248720   1.479   1.185   6.155  0.1325 -0.7337  0.2772
 9077TIP3   OH248721   1.157   5.518  13.046 -0.0765 -0.1426  0.0563
 9077TIP3    H148722   1.160   5.577  12.971  1.5703 -1.6174 -1.1002
 9077TIP3    H248723   1.194   5.569  13.118 -2.3998  1.5608  0.1655
 9078TIP3   OH248724   0.026   2.880  12.577 -0.2065 -0.0898 -0.5467
 9078TIP3    H148725  -0.032   2.938  12.627 -0.6260 -1.0005  0.0647
 9078TIP3    H248726   0.114   2.905  12.604 -0.3881  0.2070 -0.2172
 9079TIP3   OH248727   0.975   6.193   1.378  0.2780  0.0156 -0.1010
 9079TIP3    H148728   1.021   6.225   1.456  1.6763 -1.9956 -0.0280
 9079TIP3    H248729   0.919   6.123   1.411  1.4469 -1.3671 -0.9681
 9080TIP3   OH248730   6.444   5.384   2.622 -0.6870 -0.0674  0.0081
 9080TIP3    H148731   6.483   5.418   2.541 -0.0484  0.8634  0.6965
 9080TIP3    H248732   6.379   5.320   2.591  2.4922 -3.0676 -1.1664
 9081TIP3   OH248733   2.614   6.706  15.168  0.4683 -0.3407 -0.4164
 9081TIP3    H148734   2.651   6.620  15.188 -0.3386 -0.3838  1.0854
 9081TIP3    H248735   2.579   6.697  15.080 -0.8459 -2.0306  0.2152
 9082TIP3   OH248736   1.464   3.779   1.395 -0.1755 -0.5411  0.0404
 9082TIP3    H148737   1.371   3.756   1.400 -0.6185  0.7085 -1.5050
 9082TIP3    H248738   1.465   3.875   1.395  1.1310 -0.5334  0.1259
 9083TIP3   OH248739   1.927   3.067  10.664  0.7793  0.1897 -0.6961
 9083TIP3    H148740   1.958   3.090  10.576 -1.6371  0.7998 -1.4488
 9083TIP3    H248741   1.933   3.149  10.713 -0.0387  0.4318 -0.9842
 9084TIP3   OH248742   0.715   4.553   6.131  0.1227 -0.0902  0.6703
 9084TIP3    H148743   0.792   4.497   6.146  0.7963  0.6856  0.2392
 9084TIP3    H248744   0.658   4.536   6.206  0.0264 -1.7899  0.2501
 9085TIP3   OH248745   6.463   1.648   5.059 -0.1283 -0.2922  0.0053
 9085TIP3    H148746   6.476   1.557   5.031 -0.6610  0.0300 -1.3639
 9085TIP3    H248747   6.376   1.648   5.099 -0.9242 -0.0481 -1.6446
 9086TIP3   OH248748   4.099   5.673   2.409  0.0244 -0.1283 -0.2732
 9086TIP3    H148749   4.063   5.678   2.498  0.2602 -1.2832 -0.0932
 9086TIP3    H248750   4.137   5.585   2.404  0.6994  0.2024 -1.2603
 9087TIP3   OH248751   2.650   2.453  11.212  0.0240 -0.2008  0.1304
 9087TIP3    H148752   2.668   2.542  11.241 -0.9325  0.0860 -0.1251
 9087TIP3    H248753   2.555   2.449  11.203  0.0041 -1.3872  0.5857
 9088TIP3   OH248754   4.342   6.708   0.039 -0.7043  0.2232 -0.1095
 9088TIP3    H148755   4.434   6.705   0.063 -0.7602  1.0403  0.2604
 9088TIP3    H248756   4.296   6.673   0.115 -0.6773 -0.5458 -0.4467
 9089TIP3   OH248757   0.426   4.451  11.780 -0.1781  0.5004 -0.3105
 9089TIP3    H148758   0.506   4.504  11.782 -0.5443  1.0408  0.2385
 9089TIP3    H248759   0.453   4.367  11.817  0.0010  0.8875  0.4683
 9090TIP3   OH248760   0.286   3.920  11.750 -0.3135  0.1335  0.3954
 9090TIP3    H148761   0.349   3.965  11.694  1.0930 -0.6646  1.2957
 9090TIP3    H248762   0.247   3.854  11.693  0.6305 -0.2385  0.1687
 9091TIP3   OH248763   1.448   4.513  13.555  0.0475  0.2508 -0.3110
 9091TIP3    H148764   1.506   4.511  13.632  0.7596 -0.4629 -0.8454
 9091TIP3    H248765   1.475   4.437  13.503 -1.8089 -0.4935 -0.2723
 9092TIP3   OH248766   5.525   3.835   1.055 -0.0730  0.0567 -0.2833
 9092TIP3    H148767   5.496   3.772   0.988  2.4412 -0.6556 -0.8033
 9092TIP3    H248768   5.471   3.814   1.131  0.4826 -2.6208 -0.5108
 9093TIP3   OH248769   4.611   3.381  16.620  0.1415 -0.0409  0.0598
 9093TIP3    H148770   4.688   3.326  16.629 -1.2692 -1.9966  1.0128
 9093TIP3    H248771   4.632   3.461  16.669  2.4044  0.5675 -1.7275
 9094TIP3   OH248772   5.798   5.916  14.491  0.3594  0.2417 -0.0832
 9094TIP3    H148773   5.836   5.852  14.551 -0.5149  0.1384  0.3887
 9094TIP3    H248774   5.767   5.864  14.417  0.1671  0.1809  0.0370
 9095TIP3   OH248775   2.532   3.699  16.547  0.4818  0.4090  0.1401
 9095TIP3    H148776   2.443   3.677  16.521  1.2019  0.2341 -2.5733
 9095TIP3    H248777   2.580   3.616  16.542  0.8735  0.5562  1.2314
 9096TIP3   OH248778   4.694   0.081  15.194  0.1295  0.1900  0.8434
 9096TIP3    H148779   4.733   0.115  15.114 -0.5207  0.0069  0.4450
 9096TIP3    H248780   4.699  -0.014  15.184 -1.3451  0.1372  0.3055
 9097TIP3   OH248781   4.089   4.874   4.833 -0.2885  0.2275 -0.6078
 9097TIP3    H148782   4.026   4.928   4.882 -0.0816 -1.9225  2.3344
 9097TIP3    H248783   4.156   4.936   4.805 -1.2316  1.8744  0.5638
 9098TIP3   OH248784   1.693   4.478  14.016 -0.5633 -0.2527  0.0307
 9098TIP3    H148785   1.688   4.550  13.952 -0.0518 -0.3977 -0.1760
 9098TIP3    H248786   1.672   4.519  14.100  1.9580  0.6582  0.2972
 9099TIP3   OH248787   3.488   4.170  15.476  0.2579 -0.8654  0.4867
 9099TIP3    H148788   3.529   4.186  15.391  1.4806 -0.6909  1.0794
 9099TIP3    H248789   3.543   4.104  15.517 -0.1373 -0.7265  1.2642
 9100TIP3   OH248790   2.468   3.451   3.205  0.0101  0.1850 -0.0770
 9100TIP3    H148791   2.529   3.383   3.233 -0.2995  0.0500  0.2612
 9100TIP3    H248792   2.525   3.524   3.179  0.5032 -1.0189 -2.8010
 9101TIP3   OH248793   4.090   3.222  12.594  0.4727  0.6264  1.1736
 9101TIP3    H148794   4.122   3.132  12.594 -0.1046  0.4141  0.5279
 9101TIP3    H248795   4.044   3.231  12.510  0.7779  1.6096  1.1003
 9102TIP3   OH248796   6.573   1.131   0.454  0.4997 -0.5799 -0.1789
 9102TIP3    H148797   6.549   1.113   0.363  1.3184 -0.0118 -0.5183
 9102TIP3    H248798   6.655   1.180   0.448 -0.0200  0.4709  0.8193
 9103TIP3   OH248799   0.900   2.665   4.163 -0.6198  0.1380 -0.0010
 9103TIP3    H148800   0.879   2.573   4.179 -1.0050  0.2358  0.0635
 9103TIP3    H248801   0.970   2.685   4.225  0.0806 -0.3567 -0.6250
 9104TIP3   OH248802   2.093   2.653  14.974 -0.2242  0.5941  0.1938
 9104TIP3    H148803   2.072   2.561  14.959 -1.1248  0.7171  0.6672
 9104TIP3    H248804   2.164   2.651  15.038 -0.2951  0.2379  0.2609
 9105TIP3   OH248805   2.539   2.406  14.682 -0.0305 -0.1762 -0.7325
 9105TIP3    H148806   2.552   2.460  14.760  0.7679 -0.0289 -0.9549
 9105TIP3    H248807   2.485   2.459  14.624  1.8180  0.9663 -1.4922
 9106TIP3   OH248808   0.626   2.908  14.695 -0.2148 -0.5879 -0.1000
 9106TIP3    H148809   0.611   2.961  14.617  0.0248  0.6537  0.6805
 9106TIP3    H248810   0.718   2.924  14.717 -0.3200 -0.8141  0.5224
 9107TIP3   OH248811   4.711   6.127   5.316  0.1522 -0.0414  0.0411
 9107TIP3    H148812   4.623   6.156   5.340  0.9630  2.6659  0.0805
 9107TIP3    H248813   4.746   6.087   5.395 -0.6484 -0.0850  0.3814
 9108TIP3   OH248814   1.564   3.622  12.477  0.6671 -0.3648  0.2574
 9108TIP3    H148815   1.476   3.655  12.458  0.0488 -1.4460  1.0910
 9108TIP3    H248816   1.598   3.681  12.544  0.6616  0.1594 -0.1902
 9109TIP3   OH248817   4.654   6.138   2.757 -0.4877  0.0294  0.0730
 9109TIP3    H148818   4.568   6.157   2.795 -0.4290  0.1650  0.1384
 9109TIP3    H248819   4.647   6.166   2.666 -0.9037 -1.0874 -0.2465
 9110TIP3   OH248820   1.993   6.024  12.610  0.0156 -0.5451  0.1736
 9110TIP3    H148821   1.971   6.021  12.517  0.5924 -0.3934  0.0288
 9110TIP3    H248822   2.007   6.117  12.629 -0.4319 -0.5400  0.4914
 9111TIP3   OH248823   3.789   6.320  15.097  0.3379 -0.2753 -0.0369
 9111TIP3    H148824   3.848   6.330  15.023 -1.6800 -0.0606 -1.7080
 9111TIP3    H248825   3.791   6.406  15.141 -0.0399  0.3075 -1.1237
 9112TIP3   OH248826   6.671   4.414   1.749  0.4209 -0.5451 -0.3734
 9112TIP3    H148827   6.664   4.374   1.836 -2.8855  0.9244  0.1826
 9112TIP3    H248828   6.742   4.478   1.759 -1.1080  0.9749  1.9604
 9113TIP3   OH248829   2.813   0.290   6.089 -0.2719  0.1816 -0.3633
 9113TIP3    H148830   2.834   0.359   6.152 -1.9081  0.0996  0.3009
 9113TIP3    H248831   2.731   0.252   6.120  0.5924 -2.1040 -0.7121
 9114TIP3   OH248832   0.823   5.992  12.287  0.3059  0.1212 -0.2238
 9114TIP3    H148833   0.883   6.055  12.247 -0.3860  0.2932 -1.0231
 9114TIP3    H248834   0.809   5.926  12.219 -0.9004  0.4216 -0.2921
 9115TIP3   OH248835   0.780   6.031  11.609 -0.0779 -0.1680 -0.8519
 9115TIP3    H148836   0.700   5.988  11.640 -1.0434  1.1788 -1.3337
 9115TIP3    H248837   0.850   5.993  11.661 -1.3055  0.1250  1.1418
 9116TIP3   OH248838   4.146   1.771  12.787  0.1364 -0.7954  0.3197
 9116TIP3    H148839   4.161   1.746  12.696 -0.8492 -0.8973  0.1752
 9116TIP3    H248840   4.133   1.866  12.784 -0.1288 -0.8303  0.3155
 9117TIP3   OH248841   3.269   0.113   3.842  0.6700 -0.1500  0.1157
 9117TIP3    H148842   3.281   0.150   3.755  1.0198 -0.2291  0.1311
 9117TIP3    H248843   3.174   0.118   3.857  0.3509 -1.8026 -1.0213
 9118TIP3   OH248844   4.969   5.120   3.601  0.2467 -1.0367  0.2935
 9118TIP3    H148845   4.973   5.210   3.568  0.8540 -1.0623  0.2834
 9118TIP3    H248846   4.997   5.126   3.692  2.4778 -1.4830 -0.2807
 9119TIP3   OH248847   2.831   2.518   2.854  0.5844 -0.0472 -0.1858
 9119TIP3    H148848   2.741   2.517   2.823  0.0819 -0.0298  1.2152
 9119TIP3    H248849   2.874   2.585   2.800 -0.3904  0.3725 -0.4620
 9120TIP3   OH248850   5.693   4.301   3.407 -0.4906  0.4124  0.2567
 9120TIP3    H148851   5.625   4.369   3.411 -0.5545  0.3003  1.2339
 9120TIP3    H248852   5.671   4.241   3.478  0.3633  0.1160  0.2807
 9121TIP3   OH248853   4.596   3.199  13.744 -0.6089  0.5126 -0.9207
 9121TIP3    H148854   4.660   3.188  13.674 -2.1968  1.0087 -2.5231
 9121TIP3    H248855   4.549   3.115  13.747  1.3645 -0.6498  1.6855
 9122TIP3   OH248856   6.675   3.722   2.039  0.1395 -0.0270  0.1676
 9122TIP3    H148857   6.660   3.813   2.015 -0.6043 -0.2246 -0.1274
 9122TIP3    H248858   6.593   3.693   2.078  0.3298 -0.6029  0.1545
 9123TIP3   OH248859   1.823   0.865  11.135 -0.3104 -0.5238  0.0454
 9123TIP3    H148860   1.848   0.773  11.145 -1.4716 -0.8714 -0.0288
 9123TIP3    H248861   1.796   0.872  11.043 -0.8672 -0.2940  0.2190
 9124TIP3   OH248862   4.663   2.376  13.406 -0.4879 -0.8403  0.3883
 9124TIP3    H148863   4.671   2.443  13.338 -2.3308 -1.8147 -0.8861
 9124TIP3    H248864   4.657   2.294  13.358 -0.8258 -1.6642  1.7839
 9125TIP3   OH248865   6.739   2.333   2.167  0.5907 -0.2280 -0.4120
 9125TIP3    H148866   6.726   2.246   2.129 -1.0263 -0.6274  0.9163
 9125TIP3    H248867   6.682   2.390   2.115  0.0612 -0.3618  0.0166
 9126TIP3   OH248868   1.781   3.540  15.969 -0.0159 -0.1883  0.4428
 9126TIP3    H148869   1.823   3.518  15.885 -0.2735  0.0057  0.2604
 9126TIP3    H248870   1.696   3.495  15.966  0.1696 -0.5737  0.8085
 9127TIP3   OH248871   1.901   0.517  11.974 -0.0185  0.5201 -0.8433
 9127TIP3    H148872   1.840   0.550  12.040 -0.6390  0.4938 -1.3962
 9127TIP3    H248873   1.862   0.435  11.944 -0.4887  1.2288 -2.2548
 9128TIP3   OH248874   6.781   4.146  15.828  0.2680  0.1960  0.0646
 9128TIP3    H148875   6.845   4.190  15.884 -0.1729  0.2609  0.5319
 9128TIP3    H248876   6.818   4.150  15.740  1.9131 -1.6456  0.6304
 9129TIP3   OH248877   1.088   2.654  10.977  0.1686 -0.4476  0.8105
 9129TIP3    H148878   1.070   2.716  10.907  0.1296  0.2345  1.4121
 9129TIP3    H248879   1.008   2.602  10.984  0.6053 -1.3250 -0.4425
 9130TIP3   OH248880   5.483   3.070  12.823 -0.5179  0.5093  0.0074
 9130TIP3    H148881   5.458   3.004  12.758  0.6766  0.8823 -0.8623
 9130TIP3    H248882   5.569   3.043  12.853 -1.9964 -1.0303  3.3293
 9131TIP3   OH248883   3.473   1.247   5.357  0.3847 -0.0456 -0.3333
 9131TIP3    H148884   3.450   1.196   5.434 -0.3475  0.8486  0.0565
 9131TIP3    H248885   3.392   1.254   5.307  1.3601 -2.8454 -2.5958
 9132TIP3   OH248886   0.440   2.214  13.440 -0.0499 -0.1373 -0.1615
 9132TIP3    H148887   0.454   2.301  13.478  0.2911 -0.0471 -0.4967
 9132TIP3    H248888   0.365   2.179  13.489  0.2741  0.0462  0.4844
 9133TIP3   OH248889   3.734   6.675   5.430  0.1605  0.4014 -0.6073
 9133TIP3    H148890   3.674   6.640   5.496 -1.4165  0.5629 -1.8946
 9133TIP3    H248891   3.710   6.767   5.421  0.7821  0.5363 -0.9691
 9134TIP3   OH248892   6.761   6.600   5.139 -0.0099  0.2792  0.1519
 9134TIP3    H148893   6.729   6.556   5.060 -1.0488 -0.4035  0.9313
 9134TIP3    H248894   6.712   6.681   5.144 -0.5501 -0.0653  0.5335
 9135TIP3   OH248895   6.336   5.382  14.284 -0.8548  0.1888  0.2373
 9135TIP3    H148896   6.413   5.337  14.319 -1.6184 -0.4124  1.1891
 9135TIP3    H248897   6.330   5.462  14.336 -0.7224  0.3665 -0.0191
 9136TIP3   OH248898   4.368   4.983   2.795 -0.6226 -0.3313 -0.2991
 9136TIP3    H148899   4.419   4.904   2.816 -1.9781 -0.8941  1.0732
 9136TIP3    H248900   4.412   5.020   2.719  0.6065 -1.9051 -0.4154
 9137TIP3   OH248901   3.210   1.700  16.108 -0.0500 -0.0232 -0.1345
 9137TIP3    H148902   3.268   1.762  16.152  0.6344 -0.3223 -0.5862
 9137TIP3    H248903   3.221   1.618  16.157  1.7069 -0.7232 -1.5525
 9138TIP3   OH248904   6.440   0.504   2.032  0.2058  0.3843  0.5862
 9138TIP3    H148905   6.447   0.570   1.963  1.5267  1.6401  1.8462
 9138TIP3    H248906   6.351   0.513   2.065  0.5820  2.1269  1.2489
 9139TIP3   OH248907   2.603   5.478   2.328  0.2568 -0.1968  0.3917
 9139TIP3    H148908   2.553   5.398   2.344 -1.4220  0.8141  0.4401
 9139TIP3    H248909   2.619   5.515   2.415 -0.5144  0.4172  0.2754
 9140TIP3   OH248910   0.777   5.576   0.745 -0.0711 -0.1289  0.6004
 9140TIP3    H148911   0.712   5.645   0.733 -0.6857 -0.8822 -0.5851
 9140TIP3    H248912   0.742   5.521   0.815  0.5250  0.8379  1.7039
 9141TIP3   OH248913   5.978   6.432  14.698 -0.2926 -0.0858  0.4461
 9141TIP3    H148914   5.987   6.502  14.762  0.3417  2.1385 -1.8693
 9141TIP3    H248915   6.035   6.362  14.730  0.3780  1.1313  2.0340
 9142TIP3   OH248916   1.969   1.762  15.958 -0.3976  0.0555  0.0288
 9142TIP3    H148917   1.921   1.682  15.981 -2.9993  1.4105 -0.3242
 9142TIP3    H248918   2.027   1.735  15.888 -0.5868 -1.6999  0.4848
 9143TIP3   OH248919   5.390   3.741  14.932 -0.3611 -0.6447  0.0909
 9143TIP3    H148920   5.325   3.783  14.987 -0.3002 -0.3734 -0.0418
 9143TIP3    H248921   5.464   3.723  14.990 -0.6872 -1.2706  0.3215
 9144TIP3   OH248922   3.945   1.537   2.420 -0.0854 -0.4910  0.0265
 9144TIP3    H148923   3.963   1.630   2.404  0.1257 -0.5524 -0.0873
 9144TIP3    H248924   3.863   1.520   2.373 -0.4475 -0.2142  0.5437
 9145TIP3   OH248925   4.964   1.350  12.315 -0.0036  0.1661  0.1882
 9145TIP3    H148926   5.050   1.322  12.284  0.7845 -0.1585  2.4628
 9145TIP3    H248927   4.905   1.281  12.285  1.1332 -1.4792  1.5317
 9146TIP3   OH248928   6.326   0.416   3.041  0.2498 -0.2945 -0.0693
 9146TIP3    H148929   6.371   0.443   2.962  0.1309 -1.0345 -0.3954
 9146TIP3    H248930   6.384   0.352   3.082 -0.6734 -1.5822 -0.7160
 9147TIP3   OH248931   1.094   4.347   2.139  0.8481 -0.1947 -0.5020
 9147TIP3    H148932   1.120   4.300   2.060 -0.0233 -1.4808 -0.0677
 9147TIP3    H248933   1.036   4.417   2.108  0.6717 -0.5700 -1.0331
 9148TIP3   OH248934   0.104   3.094   5.803  0.1400  0.0133  0.0675
 9148TIP3    H148935   0.042   3.165   5.783 -0.8680 -0.4674  1.3237
 9148TIP3    H248936   0.188   3.139   5.816 -0.2643  0.8673 -0.1806
 9149TIP3   OH248937   3.694   5.057  11.431  0.5967 -0.3157 -0.3264
 9149TIP3    H148938   3.682   4.986  11.494 -0.3576 -0.5256 -0.7363
 9149TIP3    H248939   3.619   5.115  11.445 -0.1854 -0.8926 -1.9490
 9150TIP3   OH248940   3.031   0.795  13.594  0.1824  0.0005  0.0741
 9150TIP3    H148941   2.990   0.854  13.658 -0.8598  0.0313 -0.6079
 9150TIP3    H248942   3.077   0.853  13.534 -1.9645  0.2895 -1.4059
 9151TIP3   OH248943   3.906   2.575   4.309  0.4999 -0.2456 -0.4931
 9151TIP3    H148944   3.944   2.544   4.392 -0.9068 -1.5174 -0.2882
 9151TIP3    H248945   3.848   2.504   4.281 -0.2080  0.8094 -1.8021
 9152TIP3   OH248946   4.281   4.184  14.980  0.2273  0.2782 -0.5080
 9152TIP3    H148947   4.345   4.198  15.050  1.6268  2.4019 -2.1043
 9152TIP3    H248948   4.222   4.259  14.985  0.4437  0.5455 -1.6827
 9153TIP3   OH248949   6.038   6.390   1.872  0.6535  0.5006  0.4608
 9153TIP3    H148950   5.947   6.396   1.901  0.7096  0.6022  0.6180
 9153TIP3    H248951   6.088   6.432   1.941  0.8003  0.6444  0.2678
 9154TIP3   OH248952   2.758   1.331  10.698  0.4505  0.5244  0.2833
 9154TIP3    H148953   2.788   1.307  10.610 -1.6417  1.9182 -0.8957
 9154TIP3    H248954   2.726   1.248  10.735 -1.0992  0.3269 -1.3538
 9155TIP3   OH248955   5.477   6.590  14.005 -0.5336 -0.4882 -0.4031
 9155TIP3    H148956   5.548   6.648  13.977 -0.3230 -1.1919 -1.4228
 9155TIP3    H248957   5.522   6.511  14.036 -0.7673  0.2735  2.0502
 9156TIP3   OH248958   5.291   6.224  14.387 -0.4930 -0.4078  0.6281
 9156TIP3    H148959   5.213   6.179  14.419 -0.5490 -1.3998 -0.8288
 9156TIP3    H248960   5.256   6.300  14.340 -0.7409 -1.7139 -1.4223
 9157TIP3   OH248961   0.350   1.322   3.236  0.6364 -0.3687 -0.4477
 9157TIP3    H148962   0.412   1.258   3.202  1.6987  0.6502 -0.5200
 9157TIP3    H248963   0.326   1.374   3.159  1.1041  0.3657 -0.1127
 9158TIP3   OH248964   1.519   4.770  15.481 -0.2650  0.6851 -0.7075
 9158TIP3    H148965   1.602   4.791  15.523  0.3617  0.0197 -1.5788
 9158TIP3    H248966   1.488   4.854  15.446  1.1165  0.6150 -2.2313
 9159TIP3   OH248967   5.742   0.661   5.291  0.3557 -0.6013  0.0116
 9159TIP3    H148968   5.674   0.686   5.354  0.2440  1.6597 -0.9065
 9159TIP3    H248969   5.809   0.728   5.300  0.6387 -0.5824 -1.7794
 9160TIP3   OH248970   5.114   1.189   2.604  0.4448  0.2884  0.3573
 9160TIP3    H148971   5.038   1.217   2.655  1.0898  2.1579  0.3456
 9160TIP3    H248972   5.174   1.151   2.669  0.9442  1.9720  0.9367
 9161TIP3   OH248973   6.403   3.678   4.671  0.3826  0.2593  0.2063
 9161TIP3    H148974   6.494   3.699   4.650  0.6785 -0.9419  0.2711
 9161TIP3    H248975   6.368   3.640   4.590  0.0975  0.1960  0.3603
 9162TIP3   OH248976   6.499   5.758  16.912 -0.1701  0.1138 -0.4240
 9162TIP3    H148977   6.581   5.709  16.923 -0.0410  0.0994 -1.3387
 9162TIP3    H248978   6.525   5.835  16.862 -0.8171 -0.2166 -1.2862
 9163TIP3   OH248979   4.506   6.533  11.404  0.1578  0.0147  0.5061
 9163TIP3    H148980   4.487   6.598  11.472 -0.4464 -0.4836  0.8221
 9163TIP3    H248981   4.510   6.450  11.451  0.3485 -0.2524  0.0193
 9164TIP3   OH248982   1.031   6.132  11.088 -0.0504 -0.2120 -0.7272
 9164TIP3    H148983   1.088   6.205  11.062  0.7668 -1.2132 -1.8193
 9164TIP3    H248984   0.951   6.145  11.036 -0.9355  1.2451  0.8760
 9165TIP3   OH248985   5.076   6.237   4.047  0.0164  0.6682 -0.0468
 9165TIP3    H148986   5.026   6.275   4.120 -0.0656 -1.4244  1.0714
 9165TIP3    H248987   5.156   6.204   4.088  0.4172  0.3324 -1.0824
 9166TIP3   OH248988   6.747   0.219  11.844 -0.0585 -0.0879 -1.2051
 9166TIP3    H148989   6.705   0.302  11.865  0.8123  0.1032 -0.1102
 9166TIP3    H248990   6.809   0.205  11.915  0.2850 -1.3534 -1.7220
 9167TIP3   OH248991   5.340   3.322  15.262 -0.0238 -0.1889  0.3134
 9167TIP3    H148992   5.360   3.319  15.168 -1.3141 -2.6247  0.0290
 9167TIP3    H248993   5.245   3.313  15.267 -0.0405  0.5099  1.8722
 9168TIP3   OH248994   1.921   4.340   1.319 -0.1021 -0.5883  0.2218
 9168TIP3    H148995   1.986   4.410   1.317  1.1333 -1.7147 -0.1888
 9168TIP3    H248996   1.967   4.263   1.286 -1.7124 -1.3774 -0.2663
 9169TIP3   OH248997   6.732   3.976   1.349  0.3085  0.0214  0.1736
 9169TIP3    H148998   6.813   3.926   1.361  1.9585  2.3098 -0.7554
 9169TIP3    H248999   6.751   4.035   1.276 -1.1887  2.6152  1.7270
 9170TIP3   OH249000   0.579   3.966   0.939  0.5266  0.2249 -0.4534
 9170TIP3    H149001   0.618   3.925   1.016 -1.0739 -1.9135 -0.7077
 9170TIP3    H249002   0.575   3.896   0.874 -1.2213  1.0986 -1.3345
 9171TIP3   OH249003   5.327   0.049   5.322  0.5445  0.1409  0.0395
 9171TIP3    H149004   5.239   0.048   5.360  0.4924  0.7810 -0.0535
 9171TIP3    H249005   5.334  -0.034   5.276 -0.4316  0.5399 -0.8742
 9172TIP3   OH249006   2.675   3.031  16.361  0.1114  0.2493 -0.3713
 9172TIP3    H149007   2.690   3.121  16.333  0.6268 -0.1696 -1.4867
 9172TIP3    H249008   2.745   3.013  16.423  0.2526  0.4737 -0.4656
 9173TIP3   OH249009   4.506   6.574  11.851  0.3085  0.1456  0.2320
 9173TIP3    H149010   4.533   6.486  11.826  3.1571  0.5637  1.5087
 9173TIP3    H249011   4.523   6.579  11.945 -1.3490  1.5722  0.5138
 9174TIP3   OH249012   5.510   1.660   1.808  0.2669  0.5589 -0.3867
 9174TIP3    H149013   5.571   1.732   1.826 -0.4133  0.9871  0.3293
 9174TIP3    H249014   5.445   1.667   1.879  1.3154 -2.0619  0.9431
 9175TIP3   OH249015   4.681   5.574  15.804 -0.3492 -0.7794 -0.0199
 9175TIP3    H149016   4.709   5.597  15.716  4.0599  0.7673  1.5451
 9175TIP3    H249017   4.634   5.652  15.835  1.1424  0.0896  0.1177
 9176TIP3   OH249018   3.257   3.787   0.105 -0.0149 -0.5671  0.2885
 9176TIP3    H149019   3.308   3.867   0.119  0.0907 -0.7736  1.1809
 9176TIP3    H249020   3.240   3.754   0.194 -0.4251 -1.3031 -0.0536
 9177TIP3   OH249021   2.749   3.215   5.970  0.0877  0.4793 -0.1138
 9177TIP3    H149022   2.782   3.299   6.002  1.3877  0.2079 -0.6861
 9177TIP3    H249023   2.826   3.160   5.963 -0.5149 -0.2573 -1.2840
 9178TIP3   OH249024   2.141   4.266  14.808 -0.3504  0.0781 -0.1807
 9178TIP3    H149025   2.186   4.229  14.884 -0.4781 -0.1750 -0.2281
 9178TIP3    H249026   2.157   4.360  14.815 -0.2664  0.0456  0.0978
 9179TIP3   OH249027   0.572   0.903  12.741  0.2244  0.2675  0.3776
 9179TIP3    H149028   0.633   0.883  12.670 -1.6202  0.0091 -1.2240
 9179TIP3    H249029   0.523   0.980  12.710  0.2894  0.9854  1.9801
 9180TIP3   OH249030   6.235   5.303   3.463  0.1115 -0.1031 -0.2637
 9180TIP3    H149031   6.203   5.238   3.400 -1.7811  0.0417  0.4849
 9180TIP3    H249032   6.329   5.307   3.447 -0.1361 -0.9024 -2.2950
 9181TIP3   OH249033   5.986   4.014  12.878 -0.0534  0.1290 -0.3837
 9181TIP3    H149034   5.981   4.109  12.867 -0.7933  0.2203  0.6034
 9181TIP3    H249035   6.016   4.002  12.968  0.2431 -0.5816 -0.5687
 9182TIP3   OH249036   2.926   5.680  11.950  0.1461  0.1869 -0.1741
 9182TIP3    H149037   2.939   5.706  11.858 -0.2303  1.4158  0.0951
 9182TIP3    H249038   2.962   5.753  12.000 -2.6037  1.1351  0.6198
 9183TIP3   OH249039   1.884   3.764   1.115  0.1252  0.0543 -0.1124
 9183TIP3    H149040   1.909   3.800   1.030  1.4377  0.7276  0.5391
 9183TIP3    H249041   1.946   3.694   1.131 -0.3783 -0.3492  0.1158
 9184TIP3   OH249042   5.166   2.800   1.158 -0.2386 -0.3527 -0.0746
 9184TIP3    H149043   5.184   2.745   1.234  0.8548  0.1713  0.0766
 9184TIP3    H249044   5.250   2.842   1.139 -0.2383 -1.2255 -2.1961
 9185TIP3   OH249045   3.009   6.741  12.513 -0.0154  0.0740 -0.6209
 9185TIP3    H149046   2.965   6.693  12.584  0.8126  0.2673  0.0384
 9185TIP3    H249047   3.017   6.677  12.442 -0.6087 -0.2040 -0.4466
 9186TIP3   OH249048   4.552   4.044   0.867  0.4412 -0.3530 -0.0691
 9186TIP3    H149049   4.462   4.042   0.900  0.3969  1.7285  0.0210
 9186TIP3    H249050   4.544   4.036   0.772  0.2208 -0.8758 -0.0089
 9187TIP3   OH249051   6.686   0.024   5.560  0.2841 -0.2729 -0.4161
 9187TIP3    H149052   6.755   0.033   5.494  1.0392 -1.5344  0.1533
 9187TIP3    H249053   6.660  -0.068   5.553  0.6818 -0.5453  1.3020
 9188TIP3   OH249054   1.709   5.179  14.924 -1.2694 -0.0391 -0.4833
 9188TIP3    H149055   1.651   5.227  14.865  0.0041  0.2534 -1.5516
 9188TIP3    H249056   1.796   5.215  14.906 -0.6100 -1.1649  0.3447
 9189TIP3   OH249057   6.009   3.965   2.923  0.8079 -0.2163 -0.2354
 9189TIP3    H149058   6.002   3.982   2.829  1.7285  0.0530 -0.2628
 9189TIP3    H249059   5.969   4.042   2.964  0.7617 -0.1533 -0.3985
 9190TIP3   OH249060   3.449   1.815   6.650  0.3017  0.1339  0.0890
 9190TIP3    H149061   3.498   1.752   6.703 -0.5742 -1.2679 -0.6795
 9190TIP3    H249062   3.461   1.784   6.560 -2.2486 -0.4902 -0.0971
 9191TIP3   OH249063   3.902   0.519   4.413 -0.5082  0.3090  0.0433
 9191TIP3    H149064   3.986   0.537   4.370 -0.9150  0.2509 -0.7921
 9191TIP3    H249065   3.897   0.584   4.483  0.1210  0.4793 -0.0602
 9192TIP3   OH249066   6.365   6.614   6.322 -0.1705  0.3119  0.0571
 9192TIP3    H149067   6.291   6.618   6.384 -1.8938 -0.1467 -1.8575
 9192TIP3    H249068   6.358   6.695   6.272 -0.6430 -0.6250 -1.4600
 9193TIP3   OH249069   5.904   4.985   5.997  0.6882 -0.0049 -0.6891
 9193TIP3    H149070   5.987   4.973   5.951  0.0216  1.8652 -2.5495
 9193TIP3    H249071   5.842   5.008   5.928 -1.1162 -0.1681  0.8052
 9194TIP3   OH249072   0.685   4.188   0.063  0.5098 -0.0328  0.0303
 9194TIP3    H149073   0.651   4.099   0.072 -3.8841  1.1380 -1.9664
 9194TIP3    H249074   0.645   4.237   0.135  0.4820  0.8572 -0.5722
 9195TIP3   OH249075   5.334   4.570   3.541  0.1934 -0.3806 -0.4129
 9195TIP3    H149076   5.343   4.494   3.483 -0.2784  0.1529 -1.2239
 9195TIP3    H249077   5.393   4.553   3.614 -1.0562 -2.2605  0.2358
 9196TIP3   OH249078   3.621   1.825   3.000 -0.1227 -0.5786  0.1839
 9196TIP3    H149079   3.526   1.824   3.011 -0.0534 -0.5746  0.8289
 9196TIP3    H249080   3.655   1.848   3.087  0.5303 -2.3596  0.4607
 9197TIP3   OH249081   3.242   5.603  13.369  0.1822 -0.6124 -0.5570
 9197TIP3    H149082   3.253   5.512  13.398  0.8053 -0.2872  0.2631
 9197TIP3    H249083   3.177   5.640  13.429 -1.8674 -1.1374 -2.3341
 9198TIP3   OH249084   1.972   3.986   3.516 -0.0623  0.3304  0.5702
 9198TIP3    H149085   1.904   3.975   3.583 -2.5389  2.9460 -1.2776
 9198TIP3    H249086   2.020   4.064   3.542  1.5028 -0.7891  1.1915
 9199TIP3   OH249087   2.097   0.300   0.520  0.1931  0.6265  0.5495
 9199TIP3    H149088   2.026   0.345   0.475  1.8363  1.9827 -0.7934
 9199TIP3    H249089   2.131   0.365   0.582  0.2384 -0.0303  1.2273
 9200TIP3   OH249090   0.412   1.330  13.851  0.2231  0.5981  0.0035
 9200TIP3    H149091   0.465   1.385  13.792  0.8819 -1.0009 -0.9639
 9200TIP3    H249092   0.435   1.241  13.827 -1.1692 -0.1249  1.2199
 9201TIP3   OH249093   1.732   1.618   2.982  0.2587  0.2785 -1.1095
 9201TIP3    H149094   1.787   1.555   2.936  2.5328  0.7110  0.8097
 9201TIP3    H249095   1.682   1.565   3.044  0.8512  0.1594 -0.7238
 9202TIP3   OH249096   2.937   5.037  15.824  0.0313  0.3416  0.6130
 9202TIP3    H149097   2.992   5.056  15.748 -0.3175 -0.7257  0.0606
 9202TIP3    H249098   2.873   5.108  15.826  0.1495  0.4685 -0.0027
 9203TIP3   OH249099   5.039   1.097  12.102 -0.6109 -0.0796 -0.1852
 9203TIP3    H149100   5.025   1.004  12.082 -0.1755 -0.3186  0.5783
 9203TIP3    H249101   4.959   1.124  12.147 -0.4326 -0.2733  0.2427
 9204TIP3   OH249102   0.631   6.315  13.021  0.3254 -0.0544 -0.3438
 9204TIP3    H149103   0.616   6.381  12.954 -0.7385 -1.0879 -1.1762
 9204TIP3    H249104   0.550   6.316  13.074 -0.7708 -2.2700 -1.8216
 9205TIP3   OH249105   1.688   0.790  16.203 -0.1850 -0.4508 -0.1081
 9205TIP3    H149106   1.754   0.857  16.185  0.2823 -1.3601 -2.0531
 9205TIP3    H249107   1.633   0.789  16.125 -0.0260 -2.4711 -0.2623
 9206TIP3   OH249108   5.343   2.360  14.955  0.0986 -0.1007  0.4626
 9206TIP3    H149109   5.247   2.351  14.949  0.2544 -0.9876 -2.4356
 9206TIP3    H249110   5.361   2.360  15.049 -2.6800 -0.5081  1.1045
 9207TIP3   OH249111   0.297   4.249  13.297  0.1108 -0.1614  0.4304
 9207TIP3    H149112   0.231   4.296  13.348  1.0784  0.9824  0.6653
 9207TIP3    H249113   0.346   4.317  13.251  1.1278 -0.9735  0.2591
 9208TIP3   OH249114   0.085   1.414   5.847  0.2297  0.2275  0.2688
 9208TIP3    H149115  -0.009   1.401   5.834  0.3778  0.1896 -0.8943
 9208TIP3    H249116   0.125   1.341   5.801  0.8790  1.3263 -0.9708
 9209TIP3   OH249117   3.212   2.091   2.411  0.4022 -0.4119  0.2781
 9209TIP3    H149118   3.173   2.149   2.477 -1.9216 -2.1795  0.5836
 9209TIP3    H249119   3.138   2.062   2.358  1.9112 -0.7983 -1.7396
 9210TIP3   OH249120   1.004   5.113   5.385 -0.2191 -0.0033  0.1485
 9210TIP3    H149121   1.019   5.207   5.384 -0.4229  0.1731  3.0703
 9210TIP3    H249122   1.092   5.075   5.390 -0.1695  0.1414  0.4519
 9211TIP3   OH249123   1.187   5.472   3.120 -0.7294  0.2455  0.4600
 9211TIP3    H149124   1.203   5.449   3.028 -0.9201  1.3789  0.1225
 9211TIP3    H249125   1.272   5.505   3.151 -0.6354 -0.2441  0.7310
 9212TIP3   OH249126   1.360   1.600   3.351  0.2683 -0.0856 -0.8967
 9212TIP3    H149127   1.328   1.545   3.423  2.4248 -0.3563 -0.0618
 9212TIP3    H249128   1.285   1.654   3.327 -0.7344 -0.4748  1.0994
 9213TIP3   OH249129   2.253   3.974  14.551  0.0772 -0.1020  0.2533
 9213TIP3    H149130   2.249   3.879  14.547  0.0767 -0.0938  0.0673
 9213TIP3    H249131   2.253   4.003  14.460  2.0271 -0.0020  0.2362
 9214TIP3   OH249132   3.622   6.598  13.314 -0.5372  0.2461  0.4207
 9214TIP3    H149133   3.666   6.681  13.335 -0.2645 -0.2834  2.1315
 9214TIP3    H249134   3.616   6.552  13.398 -0.8824 -1.3825 -0.4440
 9215TIP3   OH249135   6.131   6.698  12.420 -0.0748 -0.8434  0.6336
 9215TIP3    H149136   6.042   6.734  12.424 -0.4497 -1.6435 -0.3285
 9215TIP3    H249137   6.146   6.680  12.328  1.8220  1.0346  0.5150
 9216TIP3   OH249138   3.728   1.131  11.125  0.2595  0.1153  1.0783
 9216TIP3    H149139   3.737   1.088  11.040  1.2696  0.1855  1.1302
 9216TIP3    H249140   3.648   1.183  11.118  1.0784  1.2815 -0.3805
 9217TIP3   OH249141   3.442   4.047  12.115 -0.4927  0.1521 -0.4947
 9217TIP3    H149142   3.363   4.071  12.066 -0.6438  2.2822  0.7097
 9217TIP3    H249143   3.513   4.057  12.052 -1.0691 -1.0537 -1.3754
 9218TIP3   OH249144   2.353   4.209  12.362 -0.1298  0.1778 -0.1443
 9218TIP3    H149145   2.273   4.159  12.345  1.3208 -1.4173 -2.9962
 9218TIP3    H249146   2.323   4.300  12.369 -2.2438 -0.4123 -0.6976
 9219TIP3   OH249147   3.793   1.532   0.624  0.2490  0.6570 -0.0617
 9219TIP3    H149148   3.830   1.621   0.620 -0.4097  0.9765  0.6343
 9219TIP3    H249149   3.836   1.493   0.700  0.1151  0.5745 -0.0295
 9220TIP3   OH249150   4.240   2.767   0.629  0.4931 -0.3392  0.6033
 9220TIP3    H149151   4.160   2.783   0.579 -0.0486 -1.6810  0.9948
 9220TIP3    H249152   4.306   2.823   0.588 -0.7828  1.3219  0.6996
 9221TIP3   OH249153   1.226   6.789   1.219 -0.4017  0.0015  0.2676
 9221TIP3    H149154   1.256   6.828   1.301  2.2743  1.5058 -1.2923
 9221TIP3    H249155   1.139   6.827   1.206 -0.8152 -0.1361  2.2718
 9222TIP3   OH249156   1.261   0.166  15.128 -0.0745  0.2951  0.0013
 9222TIP3    H149157   1.292   0.178  15.039 -2.4445 -0.6589 -1.0593
 9222TIP3    H249158   1.216   0.248  15.150  0.8201  0.6660  0.4777
 9223TIP3   OH249159   4.974   4.880  15.974  0.0937 -0.1406 -0.1560
 9223TIP3    H149160   4.955   4.790  16.000  1.3463 -0.2704  0.3878
 9223TIP3    H249161   4.905   4.932  16.014 -0.0052 -0.7438  0.4680
 9224TIP3   OH249162   2.227   3.399  12.422  0.1502  0.3000  0.0920
 9224TIP3    H149163   2.131   3.394  12.419 -0.0983  3.0741  0.8465
 9224TIP3    H249164   2.255   3.308  12.433 -2.3527 -0.6409 -0.5599
 9225TIP3   OH249165   2.900   4.776   5.664  0.1359  0.3168 -0.0789
 9225TIP3    H149166   2.851   4.712   5.715  0.0631  1.0791  0.8422
 9225TIP3    H249167   2.992   4.752   5.675  0.3832  2.1693  2.9494
 9226TIP3   OH249168   5.469   6.643   4.482  0.5696 -0.7988  0.0243
 9226TIP3    H149169   5.554   6.619   4.444 -0.3946 -0.8490 -2.2545
 9226TIP3    H249170   5.426   6.559   4.499  0.5582 -0.7733  0.1183
 9227TIP3   OH249171   6.299   1.118   3.094  0.1180  1.4391  0.5336
 9227TIP3    H149172   6.335   1.196   3.135 -1.6676  3.3974 -1.3007
 9227TIP3    H249173   6.207   1.141   3.078 -0.2874 -0.7799 -0.6901
 9228TIP3   OH249174   0.430   1.315   5.889  0.5402  0.2731 -0.5303
 9228TIP3    H149175   0.401   1.404   5.912  0.5319  0.6229 -1.8132
 9228TIP3    H249176   0.348   1.267   5.873  0.3358 -0.8539  2.9147
 9229TIP3   OH249177   1.215   3.047  14.461 -0.9640  0.7837 -0.1324
 9229TIP3    H149178   1.202   3.118  14.399  2.4195  1.9994  0.3173
 9229TIP3    H249179   1.259   3.088  14.536 -0.2087 -1.5273  0.7901
 9230TIP3   OH249180   1.078   5.598   0.332 -0.6259 -0.3738 -0.5348
 9230TIP3    H149181   1.068   5.616   0.426  1.2235 -0.3904 -0.2925
 9230TIP3    H249182   1.039   5.674   0.289 -2.4434 -0.8515  0.1961
 9231TIP3   OH249183   6.169   2.248  16.692 -0.2426 -0.5027 -0.1244
 9231TIP3    H149184   6.089   2.203  16.720 -1.0064  0.4771 -0.6599
 9231TIP3    H249185   6.210   2.278  16.773 -0.0651 -1.5799  0.1927
 9232TIP3   OH249186   6.290   1.825  14.367 -0.4849 -0.1860  0.3507
 9232TIP3    H149187   6.275   1.737  14.400  3.7277 -0.8543  1.0102
 9232TIP3    H249188   6.313   1.813  14.275  1.2594 -0.0070  0.7261
 9233TIP3   OH249189   3.578   1.144  11.543  0.7458  0.3579 -0.2615
 9233TIP3    H149190   3.638   1.072  11.525 -0.3204 -0.7860  0.5967
 9233TIP3    H249191   3.630   1.205  11.596  1.7551  0.4039 -1.2684
 9234TIP3   OH249192   3.578   0.930  16.017  0.1282  0.3074 -0.3473
 9234TIP3    H149193   3.542   0.997  15.958  0.0595  0.2807 -0.3359
 9234TIP3    H249194   3.601   0.857  15.958 -0.3752  0.0954 -0.2910
 9235TIP3   OH249195   6.245   2.893   1.117 -0.3258 -0.3920  0.3322
 9235TIP3    H149196   6.280   2.968   1.069  0.3137 -1.6237 -1.2065
 9235TIP3    H249197   6.259   2.915   1.209  0.4049  1.0902 -0.0996
 9236TIP3   OH249198   3.729   0.677  12.090  0.6788 -0.1686  0.0798
 9236TIP3    H149199   3.785   0.611  12.050 -0.0125 -0.7130 -0.0099
 9236TIP3    H249200   3.694   0.726  12.016  0.8581  0.0268  0.1237
 9237TIP3   OH249201   5.337   6.624  11.792 -0.4661  0.6779  0.6283
 9237TIP3    H149202   5.279   6.693  11.825 -0.6613  2.1729 -2.4727
 9237TIP3    H249203   5.279   6.550  11.777 -1.0785  1.2420  0.1352
 9238TIP3   OH249204   4.216   0.232   0.682  0.1886  0.1495 -0.0387
 9238TIP3    H149205   4.255   0.149   0.657 -3.1067 -1.4877 -0.3237
 9238TIP3    H249206   4.244   0.294   0.614  0.8978 -1.2749 -1.0836
 9239TIP3   OH249207   1.036   4.422  15.053  0.0420 -0.1378 -0.5461
 9239TIP3    H149208   1.094   4.445  14.980  0.9245  0.3122  0.2708
 9239TIP3    H249209   1.096   4.397  15.124 -0.8125 -1.2465 -0.1880
 9240TIP3   OH249210   5.536   5.624  17.038 -0.6377 -0.4948 -0.0787
 9240TIP3    H149211   5.520   5.548  16.982 -1.2740 -1.3432  1.2104
 9240TIP3    H249212   5.558   5.587  17.123 -1.5760  0.7471  0.7448
 9241TIP3   OH249213   5.526   0.745   1.535 -0.5665 -0.4253  0.1384
 9241TIP3    H149214   5.448   0.790   1.569 -1.0659 -0.8083 -0.4884
 9241TIP3    H249215   5.569   0.811   1.480 -2.6378 -1.3623 -2.8561
 9242TIP3   OH249216   1.912   2.352  12.579  0.2549 -0.2387 -0.2665
 9242TIP3    H149217   1.987   2.378  12.526  0.1514 -0.0489 -0.3205
 9242TIP3    H249218   1.848   2.320  12.516  0.0825  0.1090 -0.2677
 9243TIP3   OH249219   4.525   1.927   0.975 -0.4974  0.1807  0.1613
 9243TIP3    H149220   4.620   1.930   0.986 -0.5235 -0.0121  0.4436
 9243TIP3    H249221   4.507   1.839   0.943 -0.3466  0.9588 -2.2495
 9244TIP3   OH249222   0.597   0.963  15.212  0.0129 -0.1982  0.2013
 9244TIP3    H149223   0.560   1.005  15.290  0.1592  0.9674 -0.3371
 9244TIP3    H249224   0.569   1.020  15.140 -0.0512 -1.2159 -0.5876
 9245TIP3   OH249225   2.060   6.335   3.768 -0.2024 -0.2369 -0.1952
 9245TIP3    H149226   1.974   6.340   3.810 -0.3356 -0.2885 -0.4635
 9245TIP3    H249227   2.051   6.265   3.704 -0.6069  1.2032 -1.7637
 9246TIP3   OH249228   5.257   1.100   0.108 -1.0309  0.3880 -0.3640
 9246TIP3    H149229   5.179   1.081   0.056  0.0761 -1.2056 -1.5392
 9246TIP3    H249230   5.241   1.053   0.191 -0.0260 -2.7728 -1.7989
 9247TIP3   OH249231   5.629   3.312   0.685  0.1781 -0.5531  0.3390
 9247TIP3    H149232   5.618   3.270   0.770  0.9820  1.7545  1.6448
 9247TIP3    H249233   5.682   3.389   0.702 -0.2701  0.3961 -2.1414
 9248TIP3   OH249234   0.793   0.477  15.831 -0.0150 -0.1496 -0.8373
 9248TIP3    H149235   0.824   0.549  15.886  0.3641 -1.9540  1.5089
 9248TIP3    H249236   0.839   0.400  15.864 -0.5702 -1.5400 -3.0689
 9249TIP3   OH249237   6.498   6.736   0.363 -0.4030 -0.5106 -0.3689
 9249TIP3    H149238   6.404   6.754   0.353 -0.2693  0.0337 -0.6429
 9249TIP3    H249239   6.519   6.767   0.451 -0.5466 -0.9506 -0.1715
 9250TIP3   OH249240   5.642   4.811   5.269  0.7591  0.0765  0.2153
 9250TIP3    H149241   5.728   4.847   5.247  2.5323 -3.0016  1.4557
 9250TIP3    H249242   5.653   4.716   5.260 -2.7511 -0.4013 -0.2318
 9251TIP3   OH249243   0.156   2.991   4.226 -0.1686 -0.4321  0.4683
 9251TIP3    H149244   0.199   3.044   4.293 -0.9696 -0.7535  1.2558
 9251TIP3    H249245   0.062   2.997   4.246 -0.3797 -0.9897 -0.2795
 9252TIP3   OH249246   0.835   4.484   0.508  0.5622 -0.0236  0.1962
 9252TIP3    H149247   0.766   4.431   0.548 -1.0256  2.4070  0.8267
 9252TIP3    H249248   0.873   4.426   0.441 -1.0617 -1.9325  0.8344
 9253TIP3   OH249249   5.999   2.631  11.575  0.9571 -0.0758 -0.3113
 9253TIP3    H149250   6.006   2.703  11.512 -2.5325 -0.7896 -1.7572
 9253TIP3    H249251   5.965   2.672  11.654  0.8587  0.1654 -0.4771
 9254TIP3   OH249252   5.042   0.524   4.209 -0.3794 -0.2872  0.1027
 9254TIP3    H149253   5.129   0.565   4.208 -1.2463  1.6391 -0.8494
 9254TIP3    H249254   5.043   0.465   4.133  0.5289 -1.3515  0.8986
 9255TIP3   OH249255   2.333   1.210  14.546 -0.2388 -0.8592 -0.1365
 9255TIP3    H149256   2.307   1.140  14.487  0.9001  0.4930 -2.3988
 9255TIP3    H249257   2.429   1.212  14.540  0.0832 -1.6685  3.0568
 9256TIP3   OH249258   4.783   5.571   0.872  0.2153  0.0402  0.4257
 9256TIP3    H149259   4.700   5.603   0.837 -0.4104 -0.3744  1.5032
 9256TIP3    H249260   4.849   5.613   0.816 -0.6598  1.3496  0.3101
 9257TIP3   OH249261   4.725   1.465  11.878  0.0952  0.2438  0.0556
 9257TIP3    H149262   4.777   1.515  11.814  0.1910  0.7739  0.5435
 9257TIP3    H249263   4.768   1.480  11.962 -0.9149  0.7876  0.4910
 9258TIP3   OH249264   1.567   0.969  11.242  0.2270  0.6699  0.1228
 9258TIP3    H149265   1.555   0.958  11.148 -2.9829 -1.8519  0.6560
 9258TIP3    H249266   1.627   0.898  11.267 -2.2783 -1.5244  0.3962
 9259TIP3   OH249267   6.611   6.363  16.756 -0.5843  0.4484 -0.1499
 9259TIP3    H149268   6.625   6.444  16.707 -4.1485  0.3920 -1.6064
 9259TIP3    H249269   6.614   6.294  16.689 -0.5098 -0.2614  0.5735
 9260TIP3   OH249270   5.502   3.331   0.423  0.0083  0.0194 -0.8259
 9260TIP3    H149271   5.559   3.314   0.499 -1.3954 -0.0351  0.2523
 9260TIP3    H249272   5.443   3.256   0.421 -0.1891  0.1922 -1.7923
 9261TIP3   OH249273   5.245   0.501   2.012  0.1268  0.3395  0.5781
 9261TIP3    H149274   5.316   0.556   2.045  0.0011 -0.2132  1.8348
 9261TIP3    H249275   5.227   0.535   1.924  2.5017 -0.0798 -0.1140
 9262TIP3   OH249276   3.142   2.860  14.624 -0.0812  0.0063  0.0063
 9262TIP3    H149277   3.099   2.784  14.662 -2.0144  1.1154  0.1571
 9262TIP3    H249278   3.157   2.836  14.533 -1.1478 -0.4010 -0.0795
 9263TIP3   OH249279   2.478   4.303   6.539 -0.0150  0.0965 -0.3079
 9263TIP3    H149280   2.515   4.261   6.461  0.1996  0.5817 -0.4671
 9263TIP3    H249281   2.453   4.229   6.596  1.2465 -0.2447 -0.1698
 9264TIP3   OH249282   6.137   2.670   5.856 -0.0848 -0.0448 -0.0992
 9264TIP3    H149283   6.059   2.653   5.909  0.4005  1.3482  1.1552
 9264TIP3    H249284   6.196   2.717   5.916  0.7529  1.0272 -1.6996
 9265TIP3   OH249285   0.633   4.598  14.603  0.2637 -0.0992  0.0242
 9265TIP3    H149286   0.702   4.664  14.616  1.1379 -1.2213  1.4995
 9265TIP3    H249287   0.672   4.517  14.635 -0.7988 -1.3479 -1.7023
 9266TIP3   OH249288   5.022   3.456  13.133  0.0857  0.0364 -0.8293
 9266TIP3    H149289   4.994   3.369  13.161  0.7154 -0.7229 -2.4266
 9266TIP3    H249290   4.947   3.513  13.151 -0.4202 -0.8704  0.0078
 9267TIP3   OH249291   6.376   3.717  12.741  0.2365  0.4821  0.2106
 9267TIP3    H149292   6.364   3.755  12.828  1.2177  1.4362 -0.0559
 9267TIP3    H249293   6.289   3.722  12.700 -0.1034  0.5394  0.9225
 9268TIP3   OH249294   6.212   3.588   5.027 -0.3905 -0.4830  0.1222
 9268TIP3    H149295   6.214   3.662   4.966  1.0786 -0.5510  0.0522
 9268TIP3    H249296   6.269   3.523   4.988 -0.6707 -1.1536  0.8091
 9269TIP3   OH249297   0.352   5.417  15.885  0.1767 -0.3704  0.6424
 9269TIP3    H149298   0.292   5.488  15.860  2.8855  2.1073  0.5790
 9269TIP3    H249299   0.375   5.375  15.801 -1.4400 -1.3801  0.6778
 9270TIP3   OH249300   6.421   0.506  16.593  0.1956  0.1548  0.0943
 9270TIP3    H149301   6.475   0.534  16.667  0.4659 -0.9120  0.3184
 9270TIP3    H249302   6.357   0.446  16.632 -1.4720  1.7305 -0.0869
 9271TIP3   OH249303   3.081   4.672   2.723  0.1532 -0.1064 -0.3231
 9271TIP3    H149304   3.107   4.621   2.645 -3.4955  0.0574 -1.8622
 9271TIP3    H249305   3.032   4.609   2.776  1.1241  0.2517  1.0328
 9272TIP3   OH249306   5.062   4.627   1.660 -0.0420 -0.0973  1.2935
 9272TIP3    H149307   5.037   4.608   1.570  1.2423  2.4772  0.2655
 9272TIP3    H249308   5.063   4.542   1.703 -3.1139 -1.1599 -0.4032
 9273TIP3   OH249309   5.698   2.101  15.160 -0.5142  0.1878  0.5256
 9273TIP3    H149310   5.658   2.050  15.230 -0.1351 -0.4512  0.2824
 9273TIP3    H249311   5.696   2.191  15.191  0.4150 -0.1832  1.7288
 9274TIP3   OH249312   2.715   0.941  13.960  0.5654 -0.4220 -0.0684
 9274TIP3    H149313   2.739   1.017  13.907 -1.0120 -2.0443 -3.3960
 9274TIP3    H249314   2.622   0.954  13.979  0.8430 -0.4370  1.4260
 9275TIP3   OH249315   3.711   2.511   1.274  0.2649  0.2629  0.2814
 9275TIP3    H149316   3.715   2.507   1.370 -0.6217 -0.8161  0.2901
 9275TIP3    H249317   3.793   2.552   1.249  1.5657 -1.4976  1.3993
 9276TIP3   OH249318   1.033   0.297   0.572 -0.1742  0.1278 -0.2020
 9276TIP3    H149319   0.938   0.290   0.567 -0.0470 -0.7374 -2.9206
 9276TIP3    H249320   1.055   0.369   0.514  0.8403  0.3212  0.4042
 9277TIP3   OH249321   4.915   2.688   3.084  0.4490 -0.0844  0.6393
 9277TIP3    H149322   4.860   2.628   3.135  0.2762  0.7786  1.4981
 9277TIP3    H249323   5.004   2.671   3.115  0.5267 -0.6310  0.1224
 9278TIP3   OH249324   3.662   3.462  14.827 -0.9817 -0.3681 -0.1951
 9278TIP3    H149325   3.717   3.477  14.903 -1.8022 -0.5170  0.4382
 9278TIP3    H249326   3.723   3.458  14.753 -0.0696 -1.3091  0.5851
 9279TIP3   OH249327   2.128   3.727  13.371  0.4138 -0.1270 -0.5626
 9279TIP3    H149328   2.058   3.662  13.359 -0.8074  1.0049  0.1216
 9279TIP3    H249329   2.082   3.810  13.381  1.8478  0.6148  0.2734
 9280TIP3   OH249330   5.873   1.441  15.227 -0.2287 -0.1499 -0.5015
 9280TIP3    H149331   5.869   1.359  15.277  1.6263  0.0499  0.0474
 9280TIP3    H249332   5.888   1.412  15.137  0.1684 -0.4364 -0.3494
 9281TIP3   OH249333   5.855   4.381   0.945 -0.3000  0.0177 -0.4912
 9281TIP3    H149334   5.771   4.391   0.901  0.0198 -0.6307 -1.2844
 9281TIP3    H249335   5.833   4.343   1.030 -0.8389  0.2531 -0.5205
 9282TIP3   OH249336   3.390   2.515   2.082 -0.0742  0.1486  0.1612
 9282TIP3    H149337   3.427   2.602   2.076 -0.2082  0.3019  1.2518
 9282TIP3    H249338   3.451   2.459   2.034 -0.4194  0.9513 -1.2515
 9283TIP3   OH249339   0.988   3.570  15.992  0.1516  0.0201 -0.4912
 9283TIP3    H149340   1.036   3.578  16.075  2.8128 -0.1531 -1.9025
 9283TIP3    H249341   0.897   3.554  16.018  0.9679 -0.5091  2.3706
 9284TIP3   OH249342   4.805   2.925   5.796 -0.0215 -0.6169  0.3371
 9284TIP3    H149343   4.881   2.900   5.848  0.6266  2.0733  0.8665
 9284TIP3    H249344   4.833   2.915   5.705  0.9000  0.0211  0.5303
 9285TIP3   OH249345   6.661   5.284   2.749  0.0700 -0.4755  0.2960
 9285TIP3    H149346   6.644   5.193   2.725 -1.7302 -0.1249  0.0315
 9285TIP3    H249347   6.578   5.329   2.729  0.9127  1.2097  0.4295
 9286TIP3   OH249348   5.111   0.423  15.584 -0.4905  0.2179  0.5411
 9286TIP3    H149349   5.104   0.507  15.539 -0.2677 -0.1759 -0.2313
 9286TIP3    H249350   5.038   0.371  15.550 -0.1746 -0.1654  0.4467
 9287TIP3   OH249351   2.829   0.479  16.185  0.3010 -0.1152  0.0195
 9287TIP3    H149352   2.842   0.458  16.277  1.2362 -1.7867 -0.4543
 9287TIP3    H249353   2.787   0.402  16.148  1.2423 -0.0574 -1.2286
 9288TIP3   OH249354   4.017   2.411  16.653 -0.3512  0.3538  0.5480
 9288TIP3    H149355   4.043   2.340  16.594 -0.2647  2.2344 -1.8510
 9288TIP3    H249356   3.922   2.416  16.645 -0.1934  1.8425 -1.0787
 9289TIP3   OH249357   5.869   6.633   2.668 -0.6977 -0.4432 -0.0533
 9289TIP3    H149358   5.950   6.682   2.683 -1.3884  0.1412  2.0312
 9289TIP3    H249359   5.831   6.672   2.590  0.4605  0.0157 -0.4119
 9290TIP3   OH249360   5.021   6.819   4.595  0.1629  0.3523  0.1184
 9290TIP3    H149361   5.108   6.820   4.635  0.4768 -2.3998 -0.3067
 9290TIP3    H249362   5.032   6.769   4.514 -1.7249  0.4019 -0.2204
 9291TIP3   OH249363   1.372   4.334   4.477 -0.3948  0.4806  0.3402
 9291TIP3    H149364   1.355   4.397   4.407  1.1925 -0.6545 -1.1331
 9291TIP3    H249365   1.309   4.263   4.462 -0.0176  0.2110 -0.0038
 9292TIP3   OH249366   2.919   1.056  16.595  0.1617  0.2659  0.5520
 9292TIP3    H149367   2.997   1.004  16.577  1.4543  1.0182  3.4932
 9292TIP3    H249368   2.870   1.054  16.513  2.8384 -0.9233 -1.1540
 9293TIP3   OH249369   4.157   4.780   1.878 -0.8458 -0.1418 -0.5051
 9293TIP3    H149370   4.236   4.803   1.928  0.4159 -1.0495 -1.9606
 9293TIP3    H249371   4.121   4.864   1.850  0.6188  0.2834 -1.2592
 9294TIP3   OH249372   0.229   1.687   0.005  0.2710 -0.2574 -0.0900
 9294TIP3    H149373   0.208   1.650   0.090 -1.6315 -0.1912 -0.4939
 9294TIP3    H249374   0.233   1.612  -0.055 -0.4782 -0.1159 -0.3243
 9295TIP3   OH249375   1.461   4.013  11.866  0.1593  0.0011 -0.1187
 9295TIP3    H149376   1.555   4.021  11.849  0.2242  1.0694  0.6612
 9295TIP3    H249377   1.427   4.102  11.855 -0.8148 -0.4219 -0.6666
 9296TIP3   OH249378   3.143   4.735  10.790 -0.1977 -0.7975  0.3882
 9296TIP3    H149379   3.081   4.756  10.860  0.5610 -1.8447  1.4180
 9296TIP3    H249380   3.170   4.820  10.755 -2.1837 -0.3194 -0.0953
 9297TIP3   OH249381   1.138   5.961  12.656  0.5302  0.6364 -0.3143
 9297TIP3    H149382   1.058   5.910  12.663  0.6378 -0.0309 -2.9769
 9297TIP3    H249383   1.108   6.052  12.654  0.1139  0.5800  1.3862
 9298TIP3   OH249384   5.145   0.670   5.745 -0.2947  0.7705 -0.2408
 9298TIP3    H149385   5.198   0.672   5.824 -1.3258  2.0567  0.4419
 9298TIP3    H249386   5.079   0.603   5.761 -0.5508  1.0859  0.0220
 9299TIP3   OH249387   2.130   2.146   1.535  0.4473  0.0026 -0.8861
 9299TIP3    H149388   2.131   2.050   1.529  0.9514 -0.1264  0.7419
 9299TIP3    H249389   2.054   2.165   1.591  0.1967  0.5717 -1.4153
 9300TIP3   OH249390   6.813   4.650  14.323  1.1640  0.4814  0.1252
 9300TIP3    H149391   6.865   4.571  14.307  0.4702  0.4025 -2.3012
 9300TIP3    H249392   6.749   4.624  14.389  0.1916 -1.4389 -1.4578
 9301TIP3   OH249393   3.661   2.884  16.240  0.3061  0.1806  0.0633
 9301TIP3    H149394   3.631   2.848  16.323  0.2129 -1.3316 -0.5955
 9301TIP3    H249395   3.687   2.974  16.261  0.8703 -0.3565  1.8497
 9302TIP3   OH249396   3.932   2.757  14.614 -0.0601  0.0421  0.7175
 9302TIP3    H149397   3.880   2.790  14.541  0.6332 -0.2152  0.1031
 9302TIP3    H249398   3.969   2.835  14.655  2.4383  0.0698 -1.3653
 9303TIP3   OH249399   4.145   3.403  16.094  0.0503 -0.2681 -0.2306
 9303TIP3    H149400   4.098   3.455  16.160 -0.3824 -1.5980  0.5393
 9303TIP3    H249401   4.211   3.355  16.144  2.1854  1.4019 -1.2641
 9304TIP3   OH249402   1.479   1.055   3.529  0.3616 -0.2775  0.7652
 9304TIP3    H149403   1.540   1.114   3.574  1.0510 -0.1550 -0.2879
 9304TIP3    H249404   1.531   0.976   3.512 -0.0048 -0.4729  0.5359
 9305TIP3   OH249405   0.522   5.129  16.345 -0.5917  0.2854  0.1072
 9305TIP3    H149406   0.600   5.123  16.288  0.6636  0.4507  1.7368
 9305TIP3    H249407   0.459   5.069  16.305  0.3670  0.1282 -1.2628
 9306TIP3   OH249408   1.162   6.164   3.070 -0.7801 -0.3654 -0.1627
 9306TIP3    H149409   1.169   6.259   3.057 -1.0978 -0.1597  1.0512
 9306TIP3    H249410   1.238   6.141   3.123  1.0495 -1.3493 -2.9890
 9307TIP3   OH249411   4.581   4.215   2.523 -0.0626 -0.0563 -0.0082
 9307TIP3    H149412   4.675   4.225   2.508 -0.4497  1.2218 -1.8163
 9307TIP3    H249413   4.556   4.293   2.573 -0.0267 -0.9113  1.4253
 9308TIP3   OH249414   0.872   6.712  11.946 -0.0603  0.2815 -0.3011
 9308TIP3    H149415   0.822   6.765  11.884 -1.7536 -0.7405  0.1100
 9308TIP3    H249416   0.898   6.773  12.015 -0.0140  1.0032 -0.9552
 9309TIP3   OH249417   1.050   2.800  10.750  0.2826  0.4290 -0.4225
 9309TIP3    H149418   0.991   2.875  10.742 -0.2635 -0.2286 -4.1824
 9309TIP3    H249419   1.128   2.825  10.701  1.7819 -0.0406  1.6105
 9310TIP3   OH249420   6.177   5.929   6.364 -0.4015  0.2796  0.2484
 9310TIP3    H149421   6.146   6.013   6.397  0.0177  0.8262 -0.6891
 9310TIP3    H249422   6.209   5.882   6.441 -2.9521 -0.0789  1.1862
 9311TIP3   OH249423   5.065   6.473  15.313 -0.5195  0.3756 -0.5738
 9311TIP3    H149424   5.132   6.432  15.258 -1.4374 -1.3145 -0.5135
 9311TIP3    H249425   5.006   6.401  15.336 -0.6216  1.1774  1.9748
 9312TIP3   OH249426   1.803   4.450  16.048 -0.0414  0.4446  0.5635
 9312TIP3    H149427   1.721   4.401  16.053  0.5379 -0.4693  4.3072
 9312TIP3    H249428   1.864   4.390  16.004 -0.8077  0.2126 -0.1941
 9313TIP3   OH249429   1.100   2.487   2.872  0.4434  0.2377  0.0862
 9313TIP3    H149430   1.112   2.549   2.944  1.0353  0.4420 -0.1812
 9313TIP3    H249431   1.107   2.540   2.793 -1.7534  0.2773 -0.1311
 9314TIP3   OH249432   5.650   1.575   2.598 -0.1116  0.1557 -0.2885
 9314TIP3    H149433   5.556   1.558   2.588  0.1131 -2.2767  1.0227
 9314TIP3    H249434   5.670   1.545   2.687  1.8862  0.8355 -0.4609
 9315TIP3   OH249435   1.379   4.556   1.021  0.2312 -0.3039 -0.4082
 9315TIP3    H149436   1.346   4.479   0.974  1.0512 -0.7754 -0.2361
 9315TIP3    H249437   1.367   4.534   1.114 -3.0679  1.3466 -0.2812
 9316TIP3   OH249438   0.377   1.830   2.980  0.2102 -0.8512  0.3046
 9316TIP3    H149439   0.378   1.923   2.957  1.5253 -1.2219 -1.3428
 9316TIP3    H249440   0.297   1.797   2.938  1.1597 -0.9616 -1.5237
 9317TIP3   OH249441   4.435   1.675  13.264  0.2686  0.2139 -0.2007
 9317TIP3    H149442   4.358   1.704  13.214 -0.9089 -2.3880 -0.0753
 9317TIP3    H249443   4.424   1.714  13.350  0.4108  1.8189 -0.8663
 9318TIP3   OH249444   2.570   5.199  12.172 -0.0068 -0.1319  0.0386
 9318TIP3    H149445   2.586   5.105  12.170  0.8292  0.0047 -0.1513
 9318TIP3    H249446   2.492   5.209  12.228 -0.6038 -0.9871 -0.6101
 9319TIP3   OH249447   5.338   2.137  11.843 -0.2909 -0.2728 -0.5758
 9319TIP3    H149448   5.280   2.081  11.894 -1.0841  0.5466 -0.5466
 9319TIP3    H249449   5.327   2.224  11.882  1.7809 -0.2703  0.1309
 9320TIP3   OH249450   2.571   2.014   4.625  0.5449  0.1533  0.1151
 9320TIP3    H149451   2.561   1.919   4.636 -0.7980  0.0925 -1.3604
 9320TIP3    H249452   2.634   2.023   4.553 -0.5873  0.3347 -0.8748
 9321TIP3   OH249453   0.644   5.173   3.061  0.3662  0.2221  0.0335
 9321TIP3    H149454   0.608   5.118   2.991 -0.7215 -0.2352  0.9225
 9321TIP3    H249455   0.675   5.252   3.016  2.0807 -1.1133 -1.2962
 9322TIP3   OH249456   6.370   4.072   5.938  0.2262 -0.0815  0.5608
 9322TIP3    H149457   6.419   4.142   5.981 -0.1190 -0.0300  0.8693
 9322TIP3    H249458   6.319   4.116   5.871  0.6433 -0.1424  0.1967
 9323TIP3   OH249459   0.063   4.382  14.806  0.0116  0.7296  0.1937
 9323TIP3    H149460   0.107   4.308  14.765 -0.3030  0.4778  0.3038
 9323TIP3    H249461   0.105   4.392  14.891  1.2039  1.7489 -0.4800
 9324TIP3   OH249462   3.759   2.073  14.009  0.0309  0.2242  0.3047
 9324TIP3    H149463   3.684   2.132  14.003 -0.5521 -0.5225  0.0517
 9324TIP3    H249464   3.732   2.005  14.071  0.5077 -0.0351  0.2345
 9325TIP3   OH249465   0.537   0.507  15.931 -0.1961 -0.2227 -0.2144
 9325TIP3    H149466   0.628   0.484  15.910 -0.0216 -1.7215  1.8559
 9325TIP3    H249467   0.541   0.602  15.948  0.7865 -0.0977 -1.0244
 9326TIP3   OH249468   5.631   1.947  15.954 -0.2529  0.5470  0.1208
 9326TIP3    H149469   5.666   2.034  15.937  0.5973 -0.2329 -2.6001
 9326TIP3    H249470   5.542   1.963  15.984 -1.6458  2.4464 -4.1513
 9327TIP3   OH249471   4.356   0.895  13.295 -0.0236 -0.4838 -0.2602
 9327TIP3    H149472   4.297   0.937  13.232 -1.7437  0.1140  1.6310
 9327TIP3    H249473   4.395   0.968  13.344  0.9415 -0.9481 -0.3178
 9328TIP3   OH249474   5.486   2.555   6.133  0.4697 -0.2759  0.3046
 9328TIP3    H149475   5.426   2.485   6.160  0.4512 -0.2046  0.4520
 9328TIP3    H249476   5.445   2.635   6.165  0.0150 -0.0972 -0.6884
 9329TIP3   OH249477   6.271   1.117   4.575 -0.6483 -0.1360 -0.2221
 9329TIP3    H149478   6.326   1.039   4.567 -1.0510 -0.3116 -1.4992
 9329TIP3    H249479   6.311   1.181   4.517 -1.8238 -0.3129 -1.2740
 9330TIP3   OH249480   0.880   2.076   0.310 -0.2395 -0.0862 -0.6019
 9330TIP3    H149481   0.919   2.147   0.258 -2.0201  0.6623 -0.9631
 9330TIP3    H249482   0.932   2.076   0.391 -0.2502  1.7361 -0.5356
 9331TIP3   OH249483   4.386   2.811  13.488 -0.5518 -0.1117  0.8112
 9331TIP3    H149484   4.481   2.800  13.482 -0.3276  0.7444  2.2753
 9331TIP3    H249485   4.365   2.875  13.420  0.0054  0.1106  0.8406
 9332TIP3   OH249486   5.490   3.787  11.634 -0.7710 -0.0794  0.0149
 9332TIP3    H149487   5.449   3.709  11.672 -2.9601  1.5357  1.1284
 9332TIP3    H249488   5.582   3.781  11.662 -1.5694 -0.6817  2.7644
 9333TIP3   OH249489   1.930   0.893   5.306 -0.0494  0.1510 -0.2339
 9333TIP3    H149490   1.961   0.978   5.273  0.3170 -0.2385 -0.9237
 9333TIP3    H249491   2.008   0.838   5.307 -0.2047 -0.0564  0.6246
 9334TIP3   OH249492   0.852   1.674  12.124  0.6082 -0.2954 -0.1102
 9334TIP3    H149493   0.928   1.679  12.065  0.4789 -1.3080 -0.3822
 9334TIP3    H249494   0.810   1.759  12.116  1.5420  0.1682 -0.1995
 9335TIP3   OH249495   6.318   5.125   5.277 -0.7021 -0.4939  0.3002
 9335TIP3    H149496   6.358   5.054   5.227  0.4607  0.9560 -0.9796
 9335TIP3    H249497   6.225   5.117   5.259 -0.6890 -2.1114  0.8039
 9336TIP3   OH249498   3.145   3.493   4.228 -0.2194 -0.2077 -0.5766
 9336TIP3    H149499   3.132   3.411   4.275 -1.0045 -0.6747 -1.5580
 9336TIP3    H249500   3.083   3.554   4.268  0.4016 -0.0761  0.1892
 9337TIP3   OH249501   6.404   5.831  12.233 -0.0326 -0.2274 -0.1575
 9337TIP3    H149502   6.353   5.911  12.246  1.1335  0.2832  1.5281
 9337TIP3    H249503   6.338   5.761  12.226 -1.1044  0.8978 -2.3140
 9338TIP3   OH249504   5.195   5.187  14.503 -0.2282  0.3138  0.4588
 9338TIP3    H149505   5.249   5.120  14.460  0.6892 -0.1975  2.3333
 9338TIP3    H249506   5.255   5.261  14.514 -0.6484  0.6843  0.2772
 9339TIP3   OH249507   2.370   6.070   3.699  0.2039 -0.0317 -0.0037
 9339TIP3    H149508   2.337   5.980   3.688  1.4278 -0.4790 -0.1643
 9339TIP3    H249509   2.459   6.068   3.663  0.1941  1.2975 -0.1549
 9340TIP3   OH249510   3.543   4.686   3.920 -0.3185 -0.0262 -0.0592
 9340TIP3    H149511   3.491   4.743   3.863 -1.8718  0.0309  1.3544
 9340TIP3    H249512   3.581   4.745   3.985 -2.1580 -0.5361  1.5804
 9341TIP3   OH249513   4.534   5.290   0.850  0.2283 -0.0749  0.0452
 9341TIP3    H149514   4.609   5.274   0.793 -0.5356  0.1201 -1.0590
 9341TIP3    H249515   4.507   5.203   0.880  0.4428 -0.2118 -0.1623
 9342TIP3   OH249516   0.990   2.582   0.259 -0.4814 -0.1383  0.1715
 9342TIP3    H149517   0.903   2.618   0.242 -0.0578  1.0430  0.3729
 9342TIP3    H249518   1.050   2.651   0.231  0.3652 -0.5586  0.9112
 9343TIP3   OH249519   4.675   2.138   5.481 -0.4149 -0.3409  0.3404
 9343TIP3    H149520   4.669   2.230   5.455 -0.9253 -0.4383  0.0974
 9343TIP3    H249521   4.679   2.140   5.577 -0.2920 -0.0579  0.3283
 9344TIP3   OH249522   6.560   6.162  16.570 -0.5507  0.0344 -0.3270
 9344TIP3    H149523   6.485   6.164  16.511  0.0028  1.2052 -1.0171
 9344TIP3    H249524   6.637   6.161  16.513  0.0088 -2.5500  0.3341
 9345TIP3   OH249525   1.118   6.234   5.476 -0.3669  0.3019 -0.3356
 9345TIP3    H149526   1.159   6.164   5.526 -0.1876 -0.1444 -1.1001
 9345TIP3    H249527   1.122   6.205   5.385 -0.6232  1.1347 -0.6240
 9346TIP3   OH249528   2.751   0.328  14.456  0.3740  0.1968  0.1098
 9346TIP3    H149529   2.806   0.400  14.426  1.7877 -1.3224 -1.1099
 9346TIP3    H249530   2.693   0.311  14.382 -0.3746  0.4433  0.6267
 9347TIP3   OH249531   2.075   5.801   3.803  0.4328 -0.0058  0.8746
 9347TIP3    H149532   2.168   5.781   3.805  0.7501  1.3668  0.8914
 9347TIP3    H249533   2.054   5.811   3.710  0.5641  0.7654  0.9204
 9348TIP3   OH249534   3.529   5.580   1.088  0.3947 -0.0203  0.0414
 9348TIP3    H149535   3.600   5.536   1.136  0.3508  2.2553  2.4400
 9348TIP3    H249536   3.573   5.629   1.019  0.8445 -0.7647 -0.2134
 9349TIP3   OH249537   2.237   3.968   5.801  0.4327  0.1563 -0.5558
 9349TIP3    H149538   2.182   3.998   5.874  0.7021 -1.2985  0.2794
 9349TIP3    H249539   2.322   4.010   5.815  0.5017 -0.1717  0.0096
 9350TIP3   OH249540   0.590   2.980  15.889 -0.2150  0.1940 -0.1845
 9350TIP3    H149541   0.552   2.902  15.846  0.5687 -0.7834  0.8342
 9350TIP3    H249542   0.670   2.997  15.840  0.8322 -1.0982  0.9829
 9351TIP3   OH249543   0.818   0.484  16.978 -0.5538  0.1566 -0.2864
 9351TIP3    H149544   0.732   0.526  16.976 -0.0841  1.1233 -1.0389
 9351TIP3    H249545   0.863   0.517  16.900  0.7413  0.1900  0.4365
 9352TIP3   OH249546   2.028   2.180   4.733  0.1866  0.1873  0.9334
 9352TIP3    H149547   2.034   2.092   4.696 -0.1740  0.4723  0.1549
 9352TIP3    H249548   1.937   2.189   4.760  0.0168  0.5966  0.2613
 9353TIP3   OH249549   0.951   4.177  13.859  0.1556  0.6180  1.2228
 9353TIP3    H149550   0.922   4.212  13.943 -1.4603  1.1471  0.4939
 9353TIP3    H249551   0.931   4.084  13.864  0.5207  0.5576  1.5999
 9354TIP3   OH249552   5.549   1.375  15.820  0.5112  0.4251 -0.3176
 9354TIP3    H149553   5.574   1.341  15.906  0.6448 -0.9435 -0.8568
 9354TIP3    H249554   5.465   1.331  15.801  1.1225 -0.3177 -1.4220
 9355TIP3   OH249555   3.962   1.168  13.804  0.3401 -0.4876  0.1700
 9355TIP3    H149556   3.935   1.153  13.895  2.9557 -3.0086  0.6906
 9355TIP3    H249557   3.943   1.085  13.760  3.1347 -0.9141 -0.3923
 9356TIP3   OH249558   0.965   3.089   2.699  0.2024 -0.7333 -0.0726
 9356TIP3    H149559   0.995   3.105   2.609  0.7443  0.5969  0.3239
 9356TIP3    H249560   1.044   3.064   2.747  0.0862 -0.4989  0.2433
 9357TIP3   OH249561   1.047   2.113  13.586 -0.3862  0.3683  0.5895
 9357TIP3    H149562   0.993   2.036  13.602 -0.1084 -0.0756 -0.5153
 9357TIP3    H249563   1.014   2.179  13.647 -2.3293  0.1880 -0.1879
 9358TIP3   OH249564   4.612   1.150  16.611 -0.3974  0.1670  0.5299
 9358TIP3    H149565   4.650   1.066  16.637  0.3350  1.1301  2.7772
 9358TIP3    H249566   4.577   1.133  16.523  1.4087 -1.9486  0.1005
 9359TIP3   OH249567   4.288   6.604   4.955  0.3126 -0.0152 -0.4780
 9359TIP3    H149568   4.213   6.646   4.913 -0.4807 -1.5731 -0.6785
 9359TIP3    H249569   4.344   6.577   4.883  0.8051  0.6346 -0.3496
 9360TIP3   OH249570   1.425   6.534  12.411 -0.1817 -0.1400  0.3762
 9360TIP3    H149571   1.395   6.449  12.379 -1.8962  0.5935 -0.0447
 9360TIP3    H249572   1.423   6.591  12.334 -2.4979  1.1669  1.3099
 9361TIP3   OH249573   5.064   0.021  14.400  0.5004  0.5810  0.0978
 9361TIP3    H149574   4.982   0.070  14.397 -0.8498 -1.5427  0.6434
 9361TIP3    H249575   5.058  -0.041  14.327  1.9165  0.7769 -0.2267
 9362TIP3   OH249576   4.747   0.054  12.768 -0.5107  0.2146  0.1234
 9362TIP3    H149577   4.800   0.132  12.777  2.5404 -1.5299 -1.1369
 9362TIP3    H249578   4.719   0.054  12.676  2.8497 -1.9500 -1.0585
 9363TIP3   OH249579   0.664   4.680   5.086  0.3179 -0.2445  0.3003
 9363TIP3    H149580   0.687   4.764   5.127  0.4187 -0.4271  0.6252
 9363TIP3    H249581   0.592   4.646   5.141  0.8371 -0.7622  0.6791
 9364TIP3   OH249582   3.304   4.285  11.252 -0.0794  0.2349 -0.8562
 9364TIP3    H149583   3.217   4.315  11.275  0.3258 -0.0175  1.1930
 9364TIP3    H249584   3.296   4.255  11.161 -2.3485 -0.6814 -0.4125
 9365TIP3   OH249585   0.442   2.483   1.186  0.0867 -0.6267 -0.5728
 9365TIP3    H149586   0.515   2.452   1.240 -0.7296  2.5342  2.8296
 9365TIP3    H249587   0.364   2.446   1.228 -0.4534 -1.2375 -2.0683
 9366TIP3   OH249588   6.725   2.349  15.971 -0.1446  0.1084 -0.4345
 9366TIP3    H149589   6.694   2.386  16.054 -1.1388  0.7965 -1.0974
 9366TIP3    H249590   6.749   2.259  15.993  0.5544  0.5671  0.8136
 9367TIP3   OH249591   1.735   2.187  13.109  0.5813  0.0153  0.5357
 9367TIP3    H149592   1.756   2.270  13.066  1.6587 -0.8946 -0.7733
 9367TIP3    H249593   1.723   2.126  13.037 -0.0754 -1.0129  1.4899
 9368TIP3   OH249594   6.227   0.113  12.845 -0.6064  0.1132  0.6432
 9368TIP3    H149595   6.300   0.055  12.822  0.0901  1.5309 -0.9721
 9368TIP3    H249596   6.162   0.098  12.776  0.1041  2.0597 -0.5271
 9369TIP3   OH249597   4.536   0.325  14.263 -0.1242 -0.4395 -0.6335
 9369TIP3    H149598   4.591   0.248  14.250 -0.6893 -0.5452 -2.7517
 9369TIP3    H249599   4.578   0.393  14.211  0.2597  0.6582  1.0685
 9370TIP3   OH249600   1.204   5.731   2.876 -0.0160  0.0789 -0.0351
 9370TIP3    H149601   1.252   5.724   2.794  0.2257 -2.5508  0.2334
 9370TIP3    H249602   1.261   5.783   2.933  0.0681  1.4456 -1.3049
 9371TIP3   OH249603   0.927   3.867  12.927  0.3484 -0.1117 -0.0790
 9371TIP3    H149604   0.966   3.859  13.014 -1.1588 -1.2440  0.5394
 9371TIP3    H249605   0.888   3.781  12.910 -0.0542  0.3274 -1.5442
 9372TIP3   OH249606   3.768   5.841   1.690 -0.7713 -0.0599 -0.8316
 9372TIP3    H149607   3.762   5.819   1.597  0.4827 -1.6101 -0.5922
 9372TIP3    H249608   3.682   5.819   1.725 -0.5178 -1.8157 -1.2015
 9373TIP3   OH249609   4.788   0.147  16.943 -0.0096 -0.2577 -0.3420
 9373TIP3    H149610   4.768   0.054  16.949 -0.0019 -0.2709 -0.5291
 9373TIP3    H249611   4.882   0.151  16.925  0.3425 -0.1793  1.3427
 9374TIP3   OH249612   1.368   0.274  12.734  0.4350  0.2439  0.0961
 9374TIP3    H149613   1.437   0.333  12.705  0.9744 -0.6808 -0.5810
 9374TIP3    H249614   1.404   0.232  12.812 -0.7626  2.2615  1.8446
 9375TIP3   OH249615   3.770   6.276   1.023  0.4238  0.0504  0.0224
 9375TIP3    H149616   3.710   6.334   1.069  1.1739 -0.3534  1.5755
 9375TIP3    H249617   3.857   6.315   1.037  0.9509 -1.4558  1.1903
 9376TIP3   OH249618   5.282   0.773   1.245 -0.3829  0.0381  0.6476
 9376TIP3    H149619   5.340   0.729   1.183 -1.4989  0.0826 -0.4840
 9376TIP3    H249620   5.332   0.847   1.278 -0.4285  1.2859 -1.8423
 9377TIP3   OH249621   4.355   6.633   2.679 -0.1434  0.4030 -0.0221
 9377TIP3    H149622   4.322   6.630   2.769  0.3672  1.7522  0.2287
 9377TIP3    H249623   4.277   6.638   2.624 -0.6024 -2.7597  0.1369
 9378TIP3   OH249624   1.169   5.160  13.199  0.2073  0.0155  0.3767
 9378TIP3    H149625   1.164   5.086  13.260  0.3117  0.2856  0.7154
 9378TIP3    H249626   1.151   5.237  13.253  0.0136  0.2314  0.0071
 9379TIP3   OH249627   3.450   3.688  12.575  0.2937 -0.0990  0.0755
 9379TIP3    H149628   3.496   3.618  12.529 -1.9062 -0.8455 -1.1342
 9379TIP3    H249629   3.465   3.766  12.522 -0.3060 -0.4745 -0.6728
 9380TIP3   OH249630   5.174   2.864  14.228  1.0749  0.4686  0.3175
 9380TIP3    H149631   5.170   2.787  14.284 -1.0672  0.0670 -0.3084
 9380TIP3    H249632   5.238   2.842  14.161  0.0856 -1.0279 -0.1775
 9381TIP3   OH249633   5.698   6.040  12.427  0.2349  0.1122  0.1298
 9381TIP3    H149634   5.677   6.045  12.334  1.0499 -0.1047 -0.0748
 9381TIP3    H249635   5.671   6.125  12.462 -0.3871  0.0708 -0.2342
 9382TIP3   OH249636   1.574   5.357  11.786  0.2597 -0.0113 -0.5090
 9382TIP3    H149637   1.565   5.371  11.880  0.9499  1.0442 -0.5711
 9382TIP3    H249638   1.489   5.323  11.757 -0.4767  1.1212  0.2500
 9383TIP3   OH249639   1.896   0.710  12.691  0.6837 -0.1348 -0.5204
 9383TIP3    H149640   1.836   0.745  12.625  0.2568  0.7722  0.3207
 9383TIP3    H249641   1.978   0.755  12.675 -0.1067  2.0735  1.1378
 9384TIP3   OH249642   0.964   6.039  16.471 -0.2141  0.2538  0.1936
 9384TIP3    H149643   0.980   6.011  16.381  1.3293  1.7228 -0.0283
 9384TIP3    H249644   0.877   6.080  16.468 -1.5894 -2.4211  0.0988
 9385TIP3   OH249645   0.682   6.414  14.611  0.1458  0.5244 -0.2356
 9385TIP3    H149646   0.713   6.492  14.656 -2.0442  1.5183 -0.3538
 9385TIP3    H249647   0.634   6.365  14.678  0.7485 -0.2950 -0.3855
 9386TIP3   OH249648   1.648   6.141  15.207  0.0236  0.5536 -0.1029
 9386TIP3    H149649   1.698   6.064  15.180 -0.7133 -0.3099  0.9276
 9386TIP3    H249650   1.605   6.115  15.288 -1.5261  1.4928 -0.5720
 9387TIP3   OH249651   0.877   2.497   4.736  0.4258  0.1934  0.1123
 9387TIP3    H149652   0.824   2.428   4.696  0.7383  0.2130 -0.3493
 9387TIP3    H249653   0.910   2.548   4.662 -0.2490  1.1835  0.4734
 9388TIP3   OH249654   3.338   6.651  16.216  0.3014 -0.2341  0.1333
 9388TIP3    H149655   3.257   6.617  16.179  0.5152 -0.0148 -0.5558
 9388TIP3    H249656   3.394   6.573  16.226  0.6103 -0.1794 -0.9797
 9389TIP3   OH249657   3.725   5.213  15.089 -0.1621 -0.0444  0.5205
 9389TIP3    H149658   3.699   5.299  15.057 -1.5444 -0.1244  1.3008
 9389TIP3    H249659   3.673   5.151  15.037  0.5191 -0.3818  0.2366
 9390TIP3   OH249660   5.308   3.112   3.730 -0.1052  0.3278 -0.2145
 9390TIP3    H149661   5.257   3.162   3.794 -0.7548 -1.7785  1.0055
 9390TIP3    H249662   5.347   3.179   3.674 -2.8350  2.1442 -0.1810
 9391TIP3   OH249663   1.487   0.597   5.241 -0.3950  0.7683  0.3010
 9391TIP3    H149664   1.480   0.629   5.331 -0.7465  0.9158  0.2216
 9391TIP3    H249665   1.450   0.509   5.243  0.3004  0.4781  0.4580
 9392TIP3   OH249666   5.533   1.959  14.139  0.6957 -0.2291  0.0492
 9392TIP3    H149667   5.536   1.971  14.234 -0.0448  0.1634  0.0304
 9392TIP3    H249668   5.442   1.935  14.121 -0.1981  3.1870 -0.9195
 9393TIP3   OH249669   1.965   1.407  17.092 -0.8616  0.2915 -0.2327
 9393TIP3    H149670   1.882   1.455  17.094 -0.2607  1.4102 -0.8631
 9393TIP3    H249671   1.991   1.401  17.184  0.9256  4.7354 -0.1852
 9394TIP3   OH249672   3.137   2.775   2.597  0.2851  0.3491  0.1567
 9394TIP3    H149673   3.116   2.857   2.552 -0.7830 -0.0311 -0.0721
 9394TIP3    H249674   3.152   2.801   2.688 -0.9506  0.6964  0.2801
 9395TIP3   OH249675   1.925   5.152  11.152  0.5475  0.7282  0.7892
 9395TIP3    H149676   1.882   5.225  11.198 -0.0772  0.7571  0.1706
 9395TIP3    H249677   1.877   5.144  11.070  1.4794  0.4963  0.2561
 9396TIP3   OH249678   1.479   6.120   5.394 -0.3796  0.1431 -0.5654
 9396TIP3    H149679   1.544   6.080   5.337  0.6204  0.5926  0.2256
 9396TIP3    H249680   1.433   6.045   5.434 -0.8097 -0.1712 -1.6081
 9397TIP3   OH249681   0.565   4.083   2.105 -0.0174 -0.1301 -0.5664
 9397TIP3    H149682   0.605   4.169   2.091  3.6825 -1.7241 -0.9831
 9397TIP3    H249683   0.568   4.071   2.200 -1.4626  0.5226 -0.4104
 9398TIP3   OH249684   4.568   5.728  16.041  0.1437  0.0716  0.6159
 9398TIP3    H149685   4.635   5.700  16.104 -0.0836 -0.7603  0.4980
 9398TIP3    H249686   4.501   5.661  16.046 -1.6204  1.8357  2.0820
 9399TIP3   OH249687   5.926   0.445   2.819 -0.6619  0.4384  0.3270
 9399TIP3    H149688   5.986   0.376   2.791 -1.7654 -1.0088  1.3571
 9399TIP3    H249689   5.980   0.523   2.825  1.2613 -0.8933  1.6661
 9400TIP3   OH249690   0.130   5.013   5.229 -0.4432  0.5891  0.1750
 9400TIP3    H149691   0.138   5.017   5.325  0.2674  0.5647  0.1216
 9400TIP3    H249692   0.170   4.930   5.205  0.3726  1.0939 -0.2410
 9401TIP3   OH249693   4.252   1.670  14.413 -1.1945  0.1557  0.8223
 9401TIP3    H149694   4.210   1.625  14.338 -0.1971 -0.3121  0.5242
 9401TIP3    H249695   4.283   1.753  14.377  3.1240 -1.7812 -0.5520
 9402TIP3   OH249696   2.576   5.932   0.575 -0.2562 -0.2062 -0.1398
 9402TIP3    H149697   2.525   5.980   0.641  2.7682  1.5317  1.1568
 9402TIP3    H249698   2.570   5.986   0.496 -0.4253 -0.0114  0.0031
 9403TIP3   OH249699   4.540   2.592   4.918  0.0537 -0.3316  1.0436
 9403TIP3    H149700   4.502   2.677   4.895 -3.4976 -1.5541  1.7097
 9403TIP3    H249701   4.601   2.611   4.989 -0.9704  1.6154  1.4561
 9404TIP3   OH249702   3.623   0.713  15.807  0.6058 -0.3720 -0.6433
 9404TIP3    H149703   3.571   0.726  15.727 -0.8786 -1.8804  0.0120
 9404TIP3    H249704   3.701   0.666  15.778  1.1540  0.9920 -1.4882
 9405TIP3   OH249705   0.857   1.677  12.561 -0.7296  0.5163  0.2089
 9405TIP3    H149706   0.935   1.661  12.614 -0.6000  1.0563  0.1916
 9405TIP3    H249707   0.876   1.760  12.516 -0.8560  0.0864 -0.6491
 9406TIP3   OH249708   0.736   3.187  13.888 -0.2918 -0.5852  0.4109
 9406TIP3    H149709   0.683   3.210  13.965  0.9114 -2.3123  1.8556
 9406TIP3    H249710   0.806   3.252  13.887 -2.4254  1.9144 -1.7017
 9407TIP3   OH249711   4.161   2.498   2.643  0.3714 -0.0185  0.0303
 9407TIP3    H149712   4.095   2.487   2.575  0.0334  2.1873 -0.0795
 9407TIP3    H249713   4.229   2.552   2.602  0.9910 -0.1051  0.9123
 9408TIP3   OH249714   2.063   0.238  13.554 -0.3816 -0.0330 -0.0971
 9408TIP3    H149715   2.079   0.225  13.461  0.3430  0.3941 -0.0487
 9408TIP3    H249716   2.148   0.266  13.588 -0.5165 -0.6530  0.7796
 9409TIP3   OH249717   3.181   5.075  14.980  0.2834 -0.0652 -0.1204
 9409TIP3    H149718   3.136   4.995  15.008 -1.1147  1.0129  0.8033
 9409TIP3    H249719   3.114   5.143  14.982  1.0362  0.8500 -2.4871
 9410TIP3   OH249720   5.048   4.697  11.131  0.5508 -0.1644  0.2070
 9410TIP3    H149721   5.004   4.756  11.070  1.2106  0.0883 -0.0241
 9410TIP3    H249722   5.117   4.750  11.171  1.4945 -0.9101 -0.3968
 9411TIP3   OH249723   1.398   5.049  15.859 -0.2110  0.4961  0.4110
 9411TIP3    H149724   1.452   5.051  15.779  0.8300  0.0152  1.0829
 9411TIP3    H249725   1.430   5.122  15.911 -0.9107  0.8259  0.3867
 9412TIP3   OH249726   6.643   1.221  13.862  0.1496 -0.5203 -0.1507
 9412TIP3    H149727   6.682   1.270  13.790  1.8132  0.2997  1.2429
 9412TIP3    H249728   6.710   1.159  13.889  0.3948  0.5425  1.9535
 9413TIP3   OH249729   1.886   5.310  12.406 -0.6283 -0.5020 -0.6286
 9413TIP3    H149730   1.967   5.315  12.355 -0.4906 -2.1967 -0.6391
 9413TIP3    H249731   1.859   5.219  12.398  0.5617 -1.5138  4.1417
 9414TIP3   OH249732   2.450   1.988  14.349  0.2200  0.1262 -0.4332
 9414TIP3    H149733   2.389   2.061  14.351  0.2890  0.1693  0.9688
 9414TIP3    H249734   2.531   2.024  14.313 -0.1769  0.3758 -1.0892
 9415TIP3   OH249735   5.583   3.753  17.243  0.2691  0.0091 -0.2714
 9415TIP3    H149736   5.620   3.842  17.238 -0.7828  0.4637 -0.3742
 9415TIP3    H249737   5.562   3.741  17.335  1.0290 -0.4089 -0.1452
 9416TIP3   OH249738   0.390   2.565  13.826  0.3293 -0.6321 -0.4307
 9416TIP3    H149739   0.315   2.517  13.861  0.4297 -0.3460  0.1993
 9416TIP3    H249740   0.399   2.641  13.884  1.3581 -0.8766 -0.2334
 9417TIP3   OH249741   5.669   1.472   1.926 -0.0993  0.2628 -0.6635
 9417TIP3    H149742   5.756   1.473   1.887  0.4779  1.5921  0.5840
 9417TIP3    H249743   5.614   1.521   1.864 -0.2982 -1.6374 -2.0752
 9418TIP3   OH249744   1.742   3.988   4.584  0.4837 -0.4990  0.1887
 9418TIP3    H149745   1.696   4.058   4.538  0.4083 -1.0750 -0.6289
 9418TIP3    H249746   1.815   4.032   4.629  0.8740  0.0074 -0.9075
 9419TIP3   OH249747   1.907   2.565   2.851 -1.0022 -0.1285  0.3550
 9419TIP3    H149748   1.868   2.592   2.768 -1.6974 -0.6424  0.5078
 9419TIP3    H249749   1.962   2.640   2.877 -1.8674  0.6091  0.1262
 9420TIP3   OH249750   5.168   1.278  11.391  0.2099  0.7143 -0.5600
 9420TIP3    H149751   5.177   1.333  11.469  1.2754  0.5287 -0.5280
 9420TIP3    H249752   5.080   1.243  11.396  0.7891 -0.6085  1.4553
 9421TIP3   OH249753   2.999   3.924  12.934  0.5704  0.3237 -0.1841
 9421TIP3    H149754   2.935   3.991  12.958  0.6363  0.3762 -0.1518
 9421TIP3    H249755   2.958   3.876  12.862  0.7976  0.8400 -0.6715
 9422TIP3   OH249756   6.759   6.004   0.258  0.1133  0.6421  0.2083
 9422TIP3    H149757   6.748   6.093   0.224  0.6626  0.6480  0.0361
 9422TIP3    H249758   6.836   5.970   0.212  0.6437  0.5151  1.1701
 9423TIP3   OH249759   2.043   2.036   4.392  0.5847  0.0328 -0.5101
 9423TIP3    H149760   2.089   1.976   4.335  1.8604 -0.6038  1.1100
 9423TIP3    H249761   2.096   2.039   4.472  0.4223  3.0739 -0.4003
 9424TIP3   OH249762   2.485   0.684   4.066  0.1723 -0.8372 -0.0728
 9424TIP3    H149763   2.517   0.726   3.986  2.1415 -0.1740  1.0032
 9424TIP3    H249764   2.432   0.752   4.109 -1.8144 -1.5403 -1.2584
 9425TIP3   OH249765   3.642   2.617  11.909 -0.2320 -0.0069 -0.0597
 9425TIP3    H149766   3.590   2.686  11.869 -0.4963 -1.5245 -2.5008
 9425TIP3    H249767   3.579   2.552  11.938 -0.0008  0.7679  2.4361
 9426TIP3   OH249768   4.240   0.462  11.636 -0.3611  0.1456  0.0347
 9426TIP3    H149769   4.235   0.469  11.540  0.1478  1.2400  0.0679
 9426TIP3    H249770   4.242   0.553  11.666  0.3697 -0.1817  1.0243
 9427TIP3   OH249771   3.627   2.994  16.710 -0.2630  0.0099 -0.2234
 9427TIP3    H149772   3.722   3.004  16.701 -0.1218 -0.5099  0.6105
 9427TIP3    H249773   3.615   2.955  16.796 -1.1347 -1.6364 -1.0538
 9428TIP3   OH249774   4.117   0.090   4.541  0.2472 -0.0474  0.7677
 9428TIP3    H149775   4.038   0.040   4.562  0.1367  0.3630  1.3558
 9428TIP3    H249776   4.090   0.181   4.551  0.2604  0.1646 -0.9493
 9429TIP3   OH249777   2.249   4.664  11.798  0.0391 -0.4370 -0.0690
 9429TIP3    H149778   2.326   4.636  11.748  1.1369 -0.6703  1.6503
 9429TIP3    H249779   2.224   4.747  11.759  1.4052 -0.1737 -0.4497
 9430TIP3   OH249780   0.234   2.754   3.141  0.4806  0.1170 -0.1917
 9430TIP3    H149781   0.264   2.664   3.154  0.0688  0.0198  0.1064
 9430TIP3    H249782   0.179   2.751   3.062 -0.0980 -0.0307  0.2129
 9431TIP3   OH249783   6.011   4.345  15.013 -0.0062 -0.3782 -0.2556
 9431TIP3    H149784   5.949   4.417  15.000  0.1793 -0.3808 -1.2058
 9431TIP3    H249785   5.988   4.309  15.099 -0.2316  0.6842  0.1489
 9432TIP3   OH249786   1.297   1.523  13.749  0.2890  0.0446 -0.5177
 9432TIP3    H149787   1.392   1.524  13.758  0.1666 -0.2758  1.2413
 9432TIP3    H249788   1.277   1.437  13.713  0.5007 -1.3249  2.3674
 9433TIP3   OH249789   4.287   5.436   2.572 -0.0425  0.4161  0.2695
 9433TIP3    H149790   4.232   5.370   2.531 -2.0509  1.7736  0.6304
 9433TIP3    H249791   4.355   5.454   2.507  0.1657 -1.4673 -0.0991
 9434TIP3   OH249792   1.945   4.820  13.572  0.0223 -0.1807 -0.2032
 9434TIP3    H149793   2.027   4.782  13.542  0.1130 -2.2424  2.3054
 9434TIP3    H249794   1.970   4.878  13.644 -0.5853  0.7166 -0.6912
 9435TIP3   OH249795   5.976   3.443  13.079 -0.5727 -0.2909  0.1978
 9435TIP3    H149796   6.013   3.420  12.994 -0.8460 -0.4870  0.1333
 9435TIP3    H249797   5.983   3.363  13.131 -1.3320 -0.4657  0.0381
 9436TIP3   OH249798   6.436   0.542   4.798 -0.0564 -0.6026  0.0510
 9436TIP3    H149799   6.362   0.483   4.787 -0.5784  0.0953 -0.2854
 9436TIP3    H249800   6.499   0.493   4.850  0.0854 -1.9354 -1.3111
 9437TIP3   OH249801   6.693   1.065  17.212  0.1566 -0.4652 -0.5849
 9437TIP3    H149802   6.743   1.145  17.230 -0.8290  0.3080 -1.1744
 9437TIP3    H249803   6.619   1.095  17.158 -1.9488 -1.2502  1.7121
 9438TIP3   OH249804   5.353   5.676  14.391  0.3710  0.9306 -0.1966
 9438TIP3    H149805   5.333   5.769  14.377 -2.8793  0.7535  2.0383
 9438TIP3    H249806   5.361   5.640  14.303 -2.4580  2.6618 -1.3274
 9439TIP3   OH249807   5.300   1.727   0.313 -0.2240  0.6364  0.5141
 9439TIP3    H149808   5.296   1.821   0.295  0.1761  0.6508  0.4972
 9439TIP3    H249809   5.377   1.697   0.264 -0.9354  0.1155 -0.3289
 9440TIP3   OH249810   4.181   2.009  15.397  0.0764  0.2284 -0.0447
 9440TIP3    H149811   4.239   2.072  15.355 -0.5701  0.8868  0.0251
 9440TIP3    H249812   4.098   2.017  15.350  0.0461 -0.7411 -0.1789
 9441TIP3   OH249813   4.469   3.608   2.361 -0.3614  0.4043 -0.3446
 9441TIP3    H149814   4.454   3.569   2.275  0.0179 -0.6762  0.0563
 9441TIP3    H249815   4.487   3.700   2.343 -3.1120  0.8952 -1.2067
 9442TIP3   OH249816   5.069   5.217   5.298 -0.4907  0.7461  0.3282
 9442TIP3    H149817   4.977   5.232   5.319 -1.0106 -1.4814 -0.0788
 9442TIP3    H249818   5.111   5.302   5.310 -2.4434  1.6303  1.2989
 9443TIP3   OH249819   1.902   4.896   4.549  0.5431  0.2413 -0.2887
 9443TIP3    H149820   1.843   4.912   4.476 -1.6860  0.6803  1.4983
 9443TIP3    H249821   1.889   4.804   4.571  0.3128  0.4082  0.2850
 9444TIP3   OH249822   0.022   5.984  14.511 -0.1437  0.2413  0.1100
 9444TIP3    H149823   0.005   6.054  14.574  0.1910 -0.0758  0.5554
 9444TIP3    H249824  -0.017   6.016  14.429 -1.1210  0.3815  0.6190
 9445TIP3   OH249825   5.635   1.752  12.088 -0.0381  0.4963  0.3935
 9445TIP3    H149826   5.698   1.805  12.137 -0.9653  1.6100  0.4096
 9445TIP3    H249827   5.603   1.810  12.019  0.1300 -0.5745 -0.6297
 9446TIP3   OH249828   1.285   3.239  13.592 -0.1567  0.2017  0.1062
 9446TIP3    H149829   1.235   3.237  13.511  0.7542  0.1845 -0.4679
 9446TIP3    H249830   1.377   3.239  13.564  0.1704  0.3544  1.1281
 9447TIP3   OH249831   1.537   5.995  13.528  0.6916 -0.0689  0.6694
 9447TIP3    H149832   1.593   5.920  13.548 -1.0767 -1.6961 -0.1775
 9447TIP3    H249833   1.525   6.039  13.613  0.7169 -1.4935  1.4393
 9448TIP3   OH249834   4.514   4.806  15.527  0.2324  0.2945  0.3788
 9448TIP3    H149835   4.580   4.827  15.461 -1.6822  0.0360 -1.7157
 9448TIP3    H249836   4.435   4.849  15.497 -1.0988 -1.0898  1.7104
 9449TIP3   OH249837   2.671   1.418   5.554 -0.1536  0.1377  0.0742
 9449TIP3    H149838   2.580   1.400   5.577 -0.4552  0.0738 -1.1081
 9449TIP3    H249839   2.685   1.509   5.578 -1.2505  0.8635 -1.8075
 9450TIP3   OH249840   2.855   2.867  15.294 -0.0504  0.6254 -0.0863
 9450TIP3    H149841   2.912   2.944  15.302  0.2103  0.6097 -1.5245
 9450TIP3    H249842   2.909   2.803  15.248  0.3871 -1.1406  2.6634
 9451TIP3   OH249843   5.878   4.797  13.935  0.1457 -0.0873  0.3560
 9451TIP3    H149844   5.849   4.815  14.024 -1.3838  0.0497 -0.1313
 9451TIP3    H249845   5.970   4.771  13.944  0.4422  1.2995  1.8049
 9452TIP3   OH249846   2.934   6.682   1.295  0.2644  0.0281 -0.5467
 9452TIP3    H149847   3.022   6.643   1.301  0.5630  0.6195 -1.0223
 9452TIP3    H249848   2.946   6.773   1.323 -0.6903 -0.5226  1.9184
 9453TIP3   OH249849   5.196   1.965  16.674 -0.4052 -0.2142  0.2385
 9453TIP3    H149850   5.161   1.981  16.586 -0.0246 -0.6917 -0.0015
 9453TIP3    H249851   5.135   1.903  16.713  1.5129 -3.1955 -1.1318
 9454TIP3   OH249852   3.183   0.437  13.652  0.5250 -0.0197 -0.0511
 9454TIP3    H149853   3.210   0.464  13.740  0.3752 -0.8130  0.2444
 9454TIP3    H249854   3.259   0.391  13.617  0.0939 -0.9485  0.2113
 9455TIP3   OH249855   5.206   0.650  13.244 -0.2931 -0.3656  0.4920
 9455TIP3    H149856   5.281   0.589  13.244  1.8876  2.0921 -1.4638
 9455TIP3    H249857   5.239   0.728  13.288 -1.3878  1.0962 -1.1584
 9456TIP3   OH249858   4.607   6.782   1.224 -0.4535  0.2533 -0.0290
 9456TIP3    H149859   4.623   6.863   1.175  0.1402  1.8644  2.6108
 9456TIP3    H249860   4.520   6.795   1.264 -0.9383 -1.0269 -0.6071
 9457TIP3   OH249861   2.036   3.505   4.008  0.1116  0.0194 -0.0373
 9457TIP3    H149862   1.987   3.478   3.930 -0.0648  0.0086  0.0744
 9457TIP3    H249863   1.981   3.475   4.081  0.5003 -0.3871  0.0935
 9458TIP3   OH249864   2.720   6.450  15.133  0.1693 -0.6871  0.0491
 9458TIP3    H149865   2.750   6.359  15.144  0.8672 -0.1431  4.3395
 9458TIP3    H249866   2.795   6.503  15.159 -0.8930  1.0797 -0.3459
 9459TIP3   OH249867   5.552   5.878   6.164 -0.9658  0.0313 -0.1722
 9459TIP3    H149868   5.561   5.878   6.068  0.1046  0.4009 -0.0842
 9459TIP3    H249869   5.617   5.813   6.193  1.3673  2.4799  0.4851
 9460TIP3   OH249870   3.085   0.362  16.556 -0.0836  0.0952 -0.2799
 9460TIP3    H149871   3.070   0.434  16.617 -0.9987  0.5648 -1.0386
 9460TIP3    H249872   3.163   0.388  16.507 -0.8055  0.9168 -1.0254
 9461TIP3   OH249873   2.098   2.574  11.329 -0.3962 -0.2757 -0.1628
 9461TIP3    H149874   2.065   2.541  11.245  0.3286  1.9600 -1.4220
 9461TIP3    H249875   2.020   2.596  11.379 -0.8407 -0.2703 -0.8479
 9462TIP3   OH249876   0.442   1.044  15.439  0.8684 -0.2538  0.0389
 9462TIP3    H149877   0.515   1.038  15.500  2.3220  2.3731 -1.2633
 9462TIP3    H249878   0.381   1.106  15.480 -0.5423 -2.1429  0.9439
 9463TIP3   OH249879   6.755   3.690  14.808  0.0532 -0.2490 -0.7373
 9463TIP3    H149880   6.824   3.639  14.849 -0.5374 -0.1253  0.4501
 9463TIP3    H249881   6.676   3.637  14.821 -0.4811  0.7281  0.0807
 9464TIP3   OH249882   6.264   5.350  13.138 -0.4911 -0.2170  0.1090
 9464TIP3    H149883   6.285   5.328  13.228 -1.3042  1.8262  0.8615
 9464TIP3    H249884   6.256   5.446  13.138 -2.0257 -0.2775 -1.7885
 9465TIP3   OH249885   3.248   2.669   3.621  0.0485  0.3731 -0.1640
 9465TIP3    H149886   3.193   2.714   3.684 -0.8028  0.2017 -0.7630
 9465TIP3    H249887   3.299   2.606   3.672 -0.4741  0.3857  0.3709
 9466TIP3   OH249888   3.408   3.485  12.106 -0.0846  0.3459 -0.0725
 9466TIP3    H149889   3.363   3.540  12.170  0.4937  1.0222 -0.2420
 9466TIP3    H249890   3.355   3.405  12.103 -1.5076  1.2635 -0.5324
 9467TIP3   OH249891   6.544   2.869   0.279 -0.4258  0.8910 -0.0845
 9467TIP3    H149892   6.519   2.779   0.261 -0.5765  0.6157  1.4219
 9467TIP3    H249893   6.482   2.922   0.229 -1.1834  0.1743  0.0941
 9468TIP3   OH249894   4.210   1.833  13.243 -0.3303 -1.3146 -0.2880
 9468TIP3    H149895   4.251   1.890  13.177  2.0606 -0.7374  1.5276
 9468TIP3    H249896   4.134   1.882  13.273  0.0755 -0.3451 -0.7719
 9469TIP3   OH249897   1.232   0.524  15.534  0.1260 -0.0128 -0.0817
 9469TIP3    H149898   1.259   0.453  15.475 -0.3093  0.0032 -0.3065
 9469TIP3    H249899   1.192   0.478  15.609 -0.6442  0.0068 -0.4754
 9470TIP3   OH249900   3.349   6.509   2.002  0.0062 -0.2901  0.2100
 9470TIP3    H149901   3.380   6.576   1.941  0.5870  0.5517  1.3832
 9470TIP3    H249902   3.362   6.426   1.957 -0.9628  0.3872 -1.3807
 9471TIP3   OH249903   2.217   1.932   0.360  0.1813 -0.2094 -0.1640
 9471TIP3    H149904   2.133   1.975   0.370 -1.2163 -2.2455 -2.1032
 9471TIP3    H249905   2.200   1.841   0.386  1.7953 -0.6462 -0.5328
 9472TIP3   OH249906   5.945   3.533  16.246  0.1217  0.1880 -0.4924
 9472TIP3    H149907   5.913   3.521  16.156 -0.2872 -2.0864 -0.1101
 9472TIP3    H249908   5.883   3.482  16.299  1.4875 -0.1414  0.8373
 9473TIP3   OH249909   2.275   3.428  14.849  0.1759 -0.2581  0.3492
 9473TIP3    H149910   2.344   3.487  14.817 -0.0529 -0.1873 -0.0243
 9473TIP3    H249911   2.302   3.405  14.938  1.4091 -1.3166 -0.2572
 9474TIP3   OH249912   1.126   6.255   6.466 -0.0958  0.2481 -0.3483
 9474TIP3    H149913   1.147   6.314   6.394 -1.0288  0.4226 -0.4983
 9474TIP3    H249914   1.146   6.305   6.545  1.4330 -0.1372 -0.4720
 9475TIP3   OH249915   6.374   5.971  11.959 -0.2344  0.0348 -0.1728
 9475TIP3    H149916   6.387   5.927  12.042 -0.6713 -0.7856 -0.5266
 9475TIP3    H249917   6.351   6.061  11.982  0.7619  0.1072  0.5561
 9476TIP3   OH249918   0.061   0.629   1.360  0.3722 -0.0814  0.1960
 9476TIP3    H149919  -0.011   0.578   1.324  0.7581 -0.2494 -0.3368
 9476TIP3    H249920   0.126   0.633   1.290  0.5059  0.8232  0.3562
 9477TIP3   OH249921   4.850   4.171   2.592 -0.7534 -0.5945 -0.0882
 9477TIP3    H149922   4.939   4.183   2.626 -1.5402 -2.2754  2.8712
 9477TIP3    H249923   4.794   4.180   2.669 -2.8681 -2.9130 -1.2405
 9478TIP3   OH249924   5.783   6.106   5.766  0.3734  0.6514 -0.0595
 9478TIP3    H149925   5.741   6.121   5.851  0.9838  2.4305 -0.0355
 9478TIP3    H249926   5.876   6.093   5.787  0.3825  0.1591 -0.3853
 9479TIP3   OH249927   4.291   1.131  11.377 -0.0446  0.1805 -0.8101
 9479TIP3    H149928   4.217   1.119  11.318 -1.0207  2.0550 -0.0734
 9479TIP3    H249929   4.250   1.143  11.463  1.1527  0.5729 -0.2838
 9480TIP3   OH249930   2.072   5.234   3.217 -0.4610  0.3244  0.1221
 9480TIP3    H149931   2.080   5.224   3.122 -2.8897 -0.9121 -0.0510
 9480TIP3    H249932   1.981   5.262   3.230 -0.4830 -0.4875  2.0951
 9481TIP3   OH249933   3.278   5.486  15.295  0.7629 -0.3540  0.1927
 9481TIP3    H149934   3.259   5.418  15.230 -1.5378 -0.2627  0.6680
 9481TIP3    H249935   3.373   5.485  15.304  1.0506 -1.2503 -2.2060
 9482TIP3   OH249936   3.682   0.167  14.614 -0.4295  0.0733 -0.2058
 9482TIP3    H149937   3.598   0.141  14.577 -0.7484  1.9200 -0.8546
 9482TIP3    H249938   3.747   0.116  14.565 -1.0657 -0.0881 -0.8836
 9483TIP3   OH249939   3.571   3.049   3.022 -0.0044 -0.6585  0.2572
 9483TIP3    H149940   3.629   2.994   3.076 -0.9145  0.0648  2.0851
 9483TIP3    H249941   3.602   3.138   3.038  0.0862 -0.4653 -0.9435
 9484TIP3   OH249942   4.529   5.146  17.256  0.5221 -0.0243  0.0600
 9484TIP3    H149943   4.610   5.133  17.306  0.5984  0.4778  0.0722
 9484TIP3    H249944   4.507   5.238  17.270 -1.1605 -0.6223  1.7242
 9485TIP3   OH249945   1.980   0.026  15.853 -0.0579 -0.0039  0.0327
 9485TIP3    H149946   2.058  -0.030  15.847  0.4153  0.5342  0.8409
 9485TIP3    H249947   1.930  -0.011  15.926 -0.5206 -0.2884 -0.4213
 9486TIP3   OH249948   2.421   3.541   5.680 -0.6687  0.4078 -0.1130
 9486TIP3    H149949   2.328   3.523   5.665 -0.7078 -0.1936  0.7744
 9486TIP3    H249950   2.450   3.469   5.736  0.6687 -0.1529 -1.4593
 9487TIP3   OH249951   4.015   4.569  13.762  0.4789  0.0311 -0.1367
 9487TIP3    H149952   4.042   4.478  13.744  0.9085  0.0931  0.1725
 9487TIP3    H249953   3.921   4.569  13.747  0.4021 -0.5767  0.2666
 9488TIP3   OH249954   4.826   3.182   4.310 -0.1604  0.4143  0.5944
 9488TIP3    H149955   4.732   3.202   4.316 -0.6777 -1.8085  0.8364
 9488TIP3    H249956   4.843   3.126   4.386  0.5406 -1.9918 -1.2106
 9489TIP3   OH249957   5.886   3.374   3.094  0.1782  0.8556 -0.8100
 9489TIP3    H149958   5.798   3.383   3.058 -0.8053 -0.2481  1.1678
 9489TIP3    H249959   5.891   3.283   3.125  1.2072  1.4766  1.0578
 9490TIP3   OH249960   0.976   6.702  13.341  0.0045 -0.4757 -0.3237
 9490TIP3    H149961   1.021   6.706  13.257 -1.4113 -0.9699 -1.1504
 9490TIP3    H249962   0.987   6.612  13.370  0.0168 -0.4503 -0.2500
 9491TIP3   OH249963   5.644   1.952   3.894  0.3272 -0.0660  0.0431
 9491TIP3    H149964   5.720   1.907   3.855  0.3927  0.6951 -0.7335
 9491TIP3    H249965   5.665   2.045   3.887  0.2695  0.1068  1.7952
 9492TIP3   OH249966   2.285   0.213  14.169  0.0747 -0.0755 -0.2312
 9492TIP3    H149967   2.318   0.273  14.236 -3.0918  0.3111  1.1393
 9492TIP3    H249968   2.312   0.127  14.199  0.7673  0.2928  0.2290
 9493TIP3   OH249969   1.829   3.334  16.824 -0.2089  0.1058  0.4458
 9493TIP3    H149970   1.843   3.428  16.810  1.3631 -0.4066 -1.9044
 9493TIP3    H249971   1.734   3.324  16.825 -0.4506  1.8754  2.2834
 9494TIP3   OH249972   4.043   3.534   2.723  0.2675 -0.2761  0.0400
 9494TIP3    H149973   4.108   3.567   2.661 -0.9352 -0.4286 -1.3640
 9494TIP3    H249974   4.014   3.612   2.771 -0.0569  0.1492 -0.8307
 9495TIP3   OH249975   6.072   1.821  16.522 -0.1725  0.0396  0.4438
 9495TIP3    H149976   6.006   1.828  16.591 -0.1740  0.6489  0.3897
 9495TIP3    H249977   6.127   1.898  16.534  0.9157 -0.7817  0.8732
 9496TIP3   OH249978   5.771   5.528   5.984 -0.4292 -0.0356  0.0226
 9496TIP3    H149979   5.726   5.525   6.069 -2.0036 -0.2143 -0.7859
 9496TIP3    H249980   5.832   5.601   5.992  0.6321 -1.0542  1.8598
 9497TIP3   OH249981   4.769   4.102  13.755 -0.1142 -0.3505 -0.5156
 9497TIP3    H149982   4.831   4.031  13.739 -0.2791 -0.7643  0.6194
 9497TIP3    H249983   4.820   4.182  13.739  0.6013 -0.6890  0.0140
 9498TIP3   OH249984   3.072   3.996   1.784 -0.4179  0.6005 -0.2659
 9498TIP3    H149985   3.036   4.007   1.872 -1.3237 -1.8347 -0.2433
 9498TIP3    H249986   3.166   3.981   1.797 -0.5308  0.3639  0.3044
 9499TIP3   OH249987   1.339   4.653   2.025  0.4438 -0.1875  0.3132
 9499TIP3    H149988   1.434   4.663   2.030  0.3611  2.0893 -1.3259
 9499TIP3    H249989   1.323   4.618   1.937 -0.2516 -0.6472  0.6078
 9500TIP3   OH249990   3.024   0.266   3.294  0.3758 -0.3142 -0.4624
 9500TIP3    H149991   2.994   0.176   3.308 -0.3048 -0.3512 -1.9383
 9500TIP3    H249992   2.985   0.316   3.366  3.0402 -1.5859  2.0669
 9501TIP3   OH249993   4.126   4.299  13.757 -0.0183 -0.6981 -0.1439
 9501TIP3    H149994   4.123   4.219  13.704  0.6612 -1.2774  0.6510
 9501TIP3    H249995   4.131   4.267  13.847 -0.6687  0.2582  0.2405
 9502TIP3   OH249996   5.490   5.712   3.141  0.3629 -0.2656  0.4623
 9502TIP3    H149997   5.446   5.751   3.218 -0.5924 -0.5913  0.0922
 9502TIP3    H249998   5.509   5.787   3.085 -2.5242 -0.3250 -0.7912
 9503TIP3   OH249999   0.351   1.657   4.363  0.0421  0.2558  0.2202
 9503TIP3    H150000   0.296   1.641   4.439  0.3208  0.4386  0.4591
 9503TIP3    H250001   0.312   1.734   4.320 -0.7117 -0.4374 -0.3849
 9504TIP3   OH250002   0.035   4.297  15.464 -0.5272  0.1817 -0.9167
 9504TIP3    H150003   0.060   4.376  15.513 -2.5489  0.1826  0.1855
 9504TIP3    H250004  -0.006   4.331  15.384 -2.8488  0.3646  0.2732
 9505TIP3   OH250005   2.401   3.123   1.370 -0.2603  0.1625  0.2831
 9505TIP3    H150006   2.436   3.040   1.338  0.1790  0.2682  0.4734
 9505TIP3    H250007   2.434   3.189   1.308 -0.0044  0.2778  0.5347
 9506TIP3   OH250008   4.935   3.930  16.520  0.0951  0.1346 -0.2088
 9506TIP3    H150009   5.022   3.931  16.481  0.1469  2.6624 -0.1983
 9506TIP3    H250010   4.876   3.950  16.447 -0.6407 -2.4238 -0.4049
 9507TIP3   OH250011   3.908   6.408  15.763 -0.0276 -0.0080  1.1737
 9507TIP3    H150012   3.943   6.453  15.840  2.0367  0.2658  0.1511
 9507TIP3    H250013   3.887   6.478  15.702 -1.1338 -0.2506  1.2642
 9508TIP3   OH250014   5.705   5.262   3.780  0.9177 -0.6774  0.2217
 9508TIP3    H150015   5.742   5.279   3.867  0.6888 -1.5954  0.5059
 9508TIP3    H250016   5.695   5.349   3.742 -1.7016  0.0666  2.2379
 9509TIP3   OH250017   1.587   3.442  16.674 -0.5428 -0.2713 -0.0450
 9509TIP3    H150018   1.492   3.432  16.685 -0.7710  0.6890 -0.9184
 9509TIP3    H250019   1.610   3.518  16.728 -0.2919 -0.4456  0.0922
 9510TIP3   OH250020   4.304   0.540  16.998 -0.3255 -0.4726 -0.6278
 9510TIP3    H150021   4.272   0.627  17.020 -0.5454 -1.0466  1.5985
 9510TIP3    H250022   4.238   0.481  17.035 -0.1223 -1.5970 -1.9944
 9511TIP3   OH250023   3.433   2.774  15.895 -0.3584  0.9986 -0.3683
 9511TIP3    H150024   3.411   2.681  15.885 -0.9594  1.1073 -0.1356
 9511TIP3    H250025   3.524   2.775  15.923 -0.5846  0.4427  0.4144
 9512TIP3   OH250026   2.743   2.981   0.026  0.0580  0.0603  0.3380
 9512TIP3    H150027   2.679   2.912   0.009 -0.2791  0.5006 -0.2175
 9512TIP3    H250028   2.792   2.989  -0.056  1.5843 -1.0271  1.0966
 9513TIP3   OH250029   1.869   2.182  17.091 -0.2871  0.3135  0.3129
 9513TIP3    H150030   1.826   2.194  17.006 -0.7386 -3.8570 -0.2706
 9513TIP3    H250031   1.962   2.195  17.073 -0.5774  1.8963 -0.1864
 9514TIP3   OH250032   1.604   6.169  11.588 -0.0903  0.0366 -0.0469
 9514TIP3    H150033   1.654   6.181  11.507  0.2875  1.2255  0.3375
 9514TIP3    H250034   1.527   6.119  11.562 -0.3467  1.0334 -1.2964
 9515TIP3   OH250035   4.295   1.177  13.152  0.0786  0.8320 -0.5880
 9515TIP3    H150036   4.226   1.220  13.100 -0.7621  1.3407  0.8935
 9515TIP3    H250037   4.341   1.249  13.195  0.1769  0.3745  0.0890
 9516TIP3   OH250038   2.781   2.018   1.241 -0.2620  0.6183  0.0985
 9516TIP3    H150039   2.794   1.970   1.159  1.6312 -0.0284  0.7133
 9516TIP3    H250040   2.692   2.051   1.236 -0.6007 -0.4381 -1.6841
 9517TIP3   OH250041   1.076   1.058  14.568  0.3319  0.4169  0.0623
 9517TIP3    H150042   1.165   1.023  14.575 -0.1984 -1.0693 -0.3542
 9517TIP3    H250043   1.042   1.056  14.657  0.0302 -0.9180 -0.0701
 9518TIP3   OH250044   5.044   0.735  12.606  0.1589  0.0129  0.1009
 9518TIP3    H150045   5.114   0.693  12.655  0.8228  1.5588  0.5426
 9518TIP3    H250046   4.983   0.664  12.586  1.0246 -1.0705  1.1442
 9519TIP3   OH250047   0.562   1.591  15.367 -0.8091  0.6252  0.4774
 9519TIP3    H150048   0.611   1.539  15.303 -0.6218  1.7433 -0.3237
 9519TIP3    H250049   0.600   1.566  15.451  1.8195  2.0618 -0.1467
 9520TIP3   OH250050   4.618   1.430  12.779  0.6107  0.3513 -0.3008
 9520TIP3    H150051   4.678   1.375  12.830  1.4812 -0.5804 -2.2115
 9520TIP3    H250052   4.632   1.519  12.813  1.5429 -0.1455  0.6865
 9521TIP3   OH250053   6.240   6.724  15.582 -0.1219  0.2227  0.8161
 9521TIP3    H150054   6.283   6.641  15.562 -2.8226 -1.3802  1.2311
 9521TIP3    H250055   6.226   6.766  15.497 -0.8755 -0.9032  0.3693
 9522TIP3   OH250056   4.285   5.448   1.822  0.1928 -0.3812 -0.4630
 9522TIP3    H150057   4.348   5.377   1.810  0.9206  0.5138 -2.3186
 9522TIP3    H250058   4.219   5.433   1.754  0.2081  0.5398 -0.6947
 9523TIP3   OH250059   6.628   0.811   2.397  0.3947  0.2390  0.3554
 9523TIP3    H150060   6.660   0.778   2.314  2.6870  0.1456  1.2104
 9523TIP3    H250061   6.646   0.905   2.394  1.5060  0.0687  1.1434
 9524TIP3   OH250062   2.445   5.382   3.808  0.0013  0.0896  0.3096
 9524TIP3    H150063   2.524   5.329   3.801  0.7674  1.3509 -1.2192
 9524TIP3    H250064   2.473   5.462   3.853 -0.2296  0.7870 -0.7352
 9525TIP3   OH250065   2.220   0.564   4.351  0.5266  0.1612  0.2288
 9525TIP3    H150066   2.141   0.532   4.306 -0.2866  0.8410  1.1223
 9525TIP3    H250067   2.228   0.655   4.322  2.3319 -0.5092 -1.6275
 9526TIP3   OH250068   2.922   5.599  11.528  0.3910 -0.0409 -0.2510
 9526TIP3    H150069   2.834   5.635  11.524  0.6228  0.4115 -2.0876
 9526TIP3    H250070   2.976   5.671  11.561  0.1693 -0.1549  0.3753
 9527TIP3   OH250071   4.679   0.523   4.466  0.3449 -0.0074  0.4913
 9527TIP3    H150072   4.759   0.569   4.491  1.7186 -2.8670  1.8145
 9527TIP3    H250073   4.610   0.566   4.516  0.6592  3.4519 -1.7406
 9528TIP3   OH250074   3.896   1.066  15.928  0.2672 -0.0649  0.2263
 9528TIP3    H150075   3.943   0.993  15.887  0.3254 -0.6325  1.2804
 9528TIP3    H250076   3.864   1.118  15.854  0.9362 -0.6995 -0.5300
 9529TIP3   OH250077   6.016   4.646   4.049  0.3275 -0.1044  0.3715
 9529TIP3    H150078   6.003   4.552   4.056  0.3151 -0.1287  0.0245
 9529TIP3    H250079   5.929   4.681   4.031  0.7995 -0.3813 -3.1834
 9530TIP3   OH250080   5.514   3.957  16.444  0.1528 -0.1211 -0.0910
 9530TIP3    H150081   5.511   3.866  16.475 -1.0251  0.0160  0.2385
 9530TIP3    H250082   5.462   4.006  16.508 -0.5659  0.5248 -1.1284
 9531TIP3   OH250083   2.581   3.072  14.336  0.2524 -0.1269 -0.2431
 9531TIP3    H150084   2.633   3.091  14.258 -0.0028  0.0336 -0.3722
 9531TIP3    H250085   2.623   2.994  14.374  0.9955  0.3774  0.0141
 9532TIP3   OH250086   0.315   6.018  16.653  0.1670  0.2879 -0.0813
 9532TIP3    H150087   0.370   5.963  16.598  0.4431 -0.4012  0.8588
 9532TIP3    H250088   0.346   6.107  16.638  0.5927  0.0532 -0.6175
 9533TIP3   OH250089   2.681   0.611  15.918 -0.2729  0.0246  0.1388
 9533TIP3    H150090   2.591   0.582  15.902 -0.1109 -0.5950  0.3176
 9533TIP3    H250091   2.674   0.668  15.995 -0.4197 -0.5853  0.5853
 9534TIP3   OH250092   3.580   5.946   2.384 -0.0277  0.0607 -0.6180
 9534TIP3    H150093   3.509   5.957   2.448  0.3793  0.0092 -0.1575
 9534TIP3    H250094   3.563   5.860   2.345 -0.0110 -0.1126 -0.2498
 9535TIP3   OH250095   4.508   5.395   3.445  0.4008 -0.1216  0.0192
 9535TIP3    H150096   4.481   5.378   3.355 -0.7803 -1.2464  0.5563
 9535TIP3    H250097   4.590   5.347   3.455  0.4853 -0.0726 -0.4140
 9536TIP3   OH250098   6.305   0.388   4.452  0.2919  0.5662  0.0191
 9536TIP3    H150099   6.280   0.300   4.424  2.3008 -0.2800  0.7246
 9536TIP3    H250100   6.221   0.433   4.467 -0.8016 -1.6209  0.8693
 9537TIP3   OH250101   3.718   2.413  16.678  0.3544  0.0912 -0.1906
 9537TIP3    H150102   3.728   2.490  16.734  1.8382 -0.1406 -0.1108
 9537TIP3    H250103   3.708   2.340  16.739  0.0520  0.0677 -0.2623
 9538TIP3   OH250104   5.556   2.544  12.264  0.2302 -0.1497 -0.2456
 9538TIP3    H150105   5.594   2.466  12.224 -0.3912  0.3085 -1.7858
 9538TIP3    H250106   5.624   2.611  12.256 -0.3714  0.3126 -1.8214
 9539TIP3   OH250107   0.220   5.861  12.910  0.4640  0.2729  0.1643
 9539TIP3    H150108   0.186   5.777  12.876  1.7018  0.4341 -1.6166
 9539TIP3    H250109   0.218   5.919  12.834  0.8041  1.4975  1.0766
 9540TIP3   OH250110   2.241   0.483   1.568  0.3652  0.3019 -0.4054
 9540TIP3    H150111   2.246   0.420   1.496 -0.1150 -1.6320  1.1562
 9540TIP3    H250112   2.330   0.485   1.604  0.5469  1.0828 -0.8690
 9541TIP3   OH250113   6.317   1.393  11.853  0.4752  0.7568 -0.1539
 9541TIP3    H150114   6.281   1.312  11.890 -1.7848  1.4375 -0.7256
 9541TIP3    H250115   6.287   1.462  11.912  0.2778  1.4289 -1.0195
 9542TIP3   OH250116   5.214   6.083  13.022  0.9911 -0.3480 -0.3303
 9542TIP3    H150117   5.250   6.109  12.937  0.2722  1.6622 -0.0878
 9542TIP3    H250118   5.258   6.140  13.085  1.2732 -1.5820  0.6301
 9543TIP3   OH250119   1.193   5.781   2.139  0.0230  0.2475 -0.1434
 9543TIP3    H150120   1.281   5.807   2.111 -0.0321 -0.3359 -0.9200
 9543TIP3    H250121   1.183   5.692   2.106 -0.2787 -0.2808  1.3055
 9544TIP3   OH250122   3.267   5.361   1.363  0.5238  0.3041  0.5530
 9544TIP3    H150123   3.333   5.363   1.294  0.8199  1.1520  0.8530
 9544TIP3    H250124   3.262   5.268   1.389  0.5842  0.0188 -0.4207
 9545TIP3   OH250125   1.580   5.411  14.095 -0.3235 -0.0725 -0.2011
 9545TIP3    H150126   1.567   5.339  14.033 -0.4660  0.8024 -1.2242
 9545TIP3    H250127   1.674   5.412  14.111 -0.2607 -0.2115 -0.5384
 9546TIP3   OH250128   6.406   6.684   3.198  0.6614  0.8315 -0.0318
 9546TIP3    H150129   6.362   6.675   3.114  0.4129 -0.6856  0.2283
 9546TIP3    H250130   6.369   6.764   3.236  2.2700  2.7154 -2.1866
 9547TIP3   OH250131   5.037   6.697  14.174 -0.5401 -0.1233  0.6455
 9547TIP3    H150132   4.944   6.710  14.160 -0.3713 -0.0101 -0.3989
 9547TIP3    H250133   5.076   6.697  14.087  0.7069  1.8015  1.1243
 9548TIP3   OH250134   5.606   3.906   5.678  0.6015  0.3223  0.3714
 9548TIP3    H150135   5.605   3.983   5.734 -1.2173 -0.3005  1.2533
 9548TIP3    H250136   5.535   3.920   5.616  2.6798  1.0838 -2.0191
 9549TIP3   OH250137   4.934   3.341  14.152  0.0131 -0.7675  0.3737
 9549TIP3    H150138   4.899   3.253  14.139  0.2983 -1.0015  1.1310
 9549TIP3    H250139   5.018   3.327  14.194 -0.8273 -0.0879  2.4146
 9550TIP3   OH250140   6.544   4.707  11.564  0.1350 -0.3536 -0.1153
 9550TIP3    H150141   6.597   4.783  11.539 -1.1756  0.2935 -1.0291
 9550TIP3    H250142   6.590   4.670  11.639  1.2477  0.8672 -0.1574
 9551TIP3   OH250143   5.839   6.576   5.427  0.3399  0.5333  0.0628
 9551TIP3    H150144   5.877   6.632   5.359  1.1414  0.9884  0.8727
 9551TIP3    H250145   5.834   6.631   5.504 -0.2255 -0.0897  0.4855
 9552TIP3   OH250146   2.052   5.780  14.412  0.1934  0.1570 -0.1734
 9552TIP3    H150147   2.017   5.811  14.329  0.4869  0.2104 -0.2795
 9552TIP3    H250148   2.056   5.859  14.467  0.4799  0.2225 -0.2816
 9553TIP3   OH250149   3.020   6.250   4.423  0.4508 -1.1214  0.2037
 9553TIP3    H150150   3.108   6.288   4.414  0.0821  0.0957  1.3903
 9553TIP3    H250151   2.965   6.303   4.366 -0.5064  1.8669  3.5169
 9554TIP3   OH250152   1.191   2.597   6.546  0.3466  0.0325 -0.1419
 9554TIP3    H150153   1.246   2.562   6.616 -0.1956 -0.6635 -0.0560
 9554TIP3    H250154   1.225   2.556   6.466 -1.0276 -1.6691  0.0871
 9555TIP3   OH250155   2.525   3.097  16.899  0.0037  0.3477 -0.0045
 9555TIP3    H150156   2.531   3.091  16.804 -4.4366  0.5088 -0.4784
 9555TIP3    H250157   2.458   3.163  16.915  1.8049  1.6099  3.3825
 9556TIP3   OH250158   3.946   0.690  12.688  1.0897 -0.1020  0.0399
 9556TIP3    H150159   3.981   0.610  12.725  0.5625 -0.7869 -0.8869
 9556TIP3    H250160   3.961   0.757  12.755  3.1327 -0.5803  0.1268
 9557TIP3   OH250161   0.231   4.093   6.684  0.2560  0.2196 -0.1570
 9557TIP3    H150162   0.148   4.138   6.665  0.4846  1.0223  0.6655
 9557TIP3    H250163   0.220   4.006   6.647  0.2101  1.2443 -2.8101
 9558TIP3   OH250164   2.983   6.403   3.303  0.1127 -0.1946  0.1772
 9558TIP3    H150165   3.058   6.462   3.310 -0.7442  1.2094 -1.6641
 9558TIP3    H250166   3.021   6.320   3.275  0.9810  0.6329 -1.2179
 9559TIP3   OH250167   1.533   1.730   1.982 -0.7185  0.0410  0.2360
 9559TIP3    H150168   1.476   1.802   2.010  0.0213  0.6649  0.1605
 9559TIP3    H250169   1.481   1.683   1.917 -0.4671  1.7391 -1.2790
 9560TIP3   OH250170   4.514   5.948   3.244 -0.1282 -0.4185  0.2104
 9560TIP3    H150171   4.548   5.932   3.156 -1.4848  0.8585 -0.5921
 9560TIP3    H250172   4.592   5.951   3.299  0.8971  0.3876 -1.2044
 9561TIP3   OH250173   0.975   5.622  16.235 -0.3103  0.5442  0.3252
 9561TIP3    H150174   1.032   5.619  16.312 -0.8260 -0.6556  0.6898
 9561TIP3    H250175   0.999   5.544  16.185  0.2431  1.4893 -0.9128
 9562TIP3   OH250176   2.791   2.264  11.341  0.0214  0.4547 -0.0765
 9562TIP3    H150177   2.816   2.278  11.432 -1.2412  1.8968  0.0805
 9562TIP3    H250178   2.750   2.346  11.314 -3.1613 -1.1761 -0.7339
 9563TIP3   OH250179   4.463   4.406  11.407  0.1302  0.3820  0.7372
 9563TIP3    H150180   4.553   4.430  11.428  0.1396  0.2698  0.8259
 9563TIP3    H250181   4.411   4.483  11.431  0.0880  0.0933  1.5850
 9564TIP3   OH250182   0.741   5.083   6.499  0.6367 -0.2811  0.8438
 9564TIP3    H150183   0.707   5.006   6.545  0.5173 -0.8055 -0.0966
 9564TIP3    H250184   0.834   5.064   6.487  0.8067  0.1474  1.4268
 9565TIP3   OH250185   4.053   5.971  12.395 -0.0312  0.1254  0.1007
 9565TIP3    H150186   4.033   5.952  12.487  2.3862 -1.8241  0.3172
 9565TIP3    H250187   3.968   5.986  12.355 -1.1968  0.5677  2.5495
 9566TIP3   OH250188   0.026   1.389  13.152 -0.5125 -0.5106  0.3566
 9566TIP3    H150189   0.030   1.476  13.111  0.0914  0.6291  2.6487
 9566TIP3    H250190  -0.067   1.366  13.151 -0.4883 -0.7668 -1.9581
 9567TIP3   OH250191   4.163   3.486   2.298 -0.7982  0.2956  0.1659
 9567TIP3    H150192   4.194   3.534   2.375  1.1326  0.7061 -0.8025
 9567TIP3    H250193   4.100   3.423   2.333 -0.4133  0.8536  1.9933
 9568TIP3   OH250194   4.991   0.296  16.270 -0.0632 -0.5283 -0.5806
 9568TIP3    H150195   4.971   0.386  16.244  0.8704  0.0513  0.6288
 9568TIP3    H250196   4.922   0.244  16.229 -2.1322  1.0109  0.7619
 9569TIP3   OH250197   5.465   1.240  11.738  0.2369 -0.2851 -0.4184
 9569TIP3    H150198   5.379   1.203  11.760  0.7130 -0.8462  0.5272
 9569TIP3    H250199   5.517   1.166  11.709  0.3879  0.0690 -1.0673
 9570TIP3   OH250200   5.364   6.084  12.788  0.2553  0.5600  1.1014
 9570TIP3    H150201   5.433   6.060  12.850  1.7202 -0.8060 -0.8951
 9570TIP3    H250202   5.322   6.000  12.766 -1.5253  1.2666  1.6446
 9571TIP3   OH250203   1.369   6.047   6.485  0.0526  0.2444 -0.2474
 9571TIP3    H150204   1.350   5.977   6.422  0.3486 -0.2337  0.1889
 9571TIP3    H250205   1.295   6.107   6.476  0.3913  0.4984 -1.4873
 9572TIP3   OH250206   2.897   2.081   5.732 -0.2935 -0.2457 -0.0113
 9572TIP3    H150207   2.805   2.067   5.756 -0.6491 -1.1594 -1.7504
 9572TIP3    H250208   2.930   2.140   5.799 -2.8598  2.3368 -0.7964
 9573TIP3   OH250209   6.566   0.106  11.672  0.0436  0.1651  0.5925
 9573TIP3    H150210   6.489   0.162  11.659  1.3138  1.6764 -0.8654
 9573TIP3    H250211   6.624   0.158  11.727  1.7334  0.9026 -1.7184
 9574TIP3   OH250212   4.563   1.414   5.595 -0.8188 -0.6722  0.6498
 9574TIP3    H150213   4.471   1.435   5.579 -0.3794  1.0223  0.1769
 9574TIP3    H250214   4.592   1.372   5.514 -0.7690  0.2938  0.1515
 9575TIP3   OH250215   5.638   5.897   1.221 -0.1367  0.9904  0.2474
 9575TIP3    H150216   5.712   5.869   1.166 -1.5575 -0.3534 -1.1079
 9575TIP3    H250217   5.645   5.992   1.224  0.8818  0.9878 -1.0190
 9576TIP3   OH250218   1.272   5.860   4.993  0.2909 -0.2917 -0.4814
 9576TIP3    H150219   1.233   5.942   5.023  1.5661 -0.3496  1.4757
 9576TIP3    H250220   1.207   5.823   4.933 -0.3866  2.0264 -1.2664
 9577TIP3   OH250221   0.711   0.791   0.982 -0.2440  0.1519  0.2845
 9577TIP3    H150222   0.735   0.734   1.054  1.3804  2.5212  1.7725
 9577TIP3    H250223   0.791   0.799   0.930 -0.7014  0.3496 -0.4007
 9578TIP3   OH250224   5.540   6.457  11.890 -0.3440  0.1938 -0.5030
 9578TIP3    H150225   5.493   6.407  11.823 -0.6382 -1.6291  0.9677
 9578TIP3    H250226   5.492   6.539  11.897 -2.8254 -1.2205  0.3017
 9579TIP3   OH250227   1.569   3.621   5.122 -0.0527 -0.0449 -0.3731
 9579TIP3    H150228   1.644   3.619   5.064  1.2186 -0.7907  1.2159
 9579TIP3    H250229   1.500   3.574   5.075  1.0873 -1.0572 -1.0710
 9580TIP3   OH250230   1.078   3.890  10.803 -0.0461  0.2348  0.3334
 9580TIP3    H150231   1.154   3.833  10.794  0.1171 -0.0843  3.0885
 9580TIP3    H250232   1.028   3.853  10.875 -1.8823  1.5021 -0.2088
 9581TIP3   OH250233   5.830   1.557  14.473 -0.1282  0.4540 -0.5460
 9581TIP3    H150234   5.834   1.499  14.398  2.1913  0.5646 -0.5896
 9581TIP3    H250235   5.876   1.637  14.445  0.9504  0.4257  0.9809
 9582TIP3   OH250236   0.441   6.482   2.003 -0.7978  0.0104  0.0712
 9582TIP3    H150237   0.502   6.470   1.930  0.7115  0.6782  1.1636
 9582TIP3    H250238   0.392   6.400   2.007  1.7358 -1.5940  0.6461
 9583TIP3   OH250239   6.807   4.832   1.045 -0.5017  0.1305 -0.2730
 9583TIP3    H150240   6.750   4.805   0.972  0.2923 -0.8298 -0.5532
 9583TIP3    H250241   6.881   4.772   1.041 -1.3153 -1.2228  2.4704
 9584TIP3   OH250242   2.617   6.195  13.889  0.5330 -0.2636 -0.2385
 9584TIP3    H150243   2.578   6.269  13.934  0.5637 -0.6059  0.3626
 9584TIP3    H250244   2.578   6.118  13.931  1.4544 -0.5995  0.0207
 9585TIP3   OH250245   3.355   3.389  14.086  0.4150  0.2094 -0.7389
 9585TIP3    H150246   3.354   3.472  14.133  0.4080 -0.0593 -0.2580
 9585TIP3    H250247   3.375   3.413  13.995 -0.7237  0.8405 -0.8381
 9586TIP3   OH250248   3.784   2.967  14.149  0.3695  0.2063 -0.2101
 9586TIP3    H150249   3.859   2.907  14.148 -0.6936 -1.2173 -2.2895
 9586TIP3    H250250   3.723   2.929  14.085 -1.4026  2.2259  0.2016
 9587TIP3   OH250251   3.368   1.146  12.059  0.1296 -0.7902  0.4887
 9587TIP3    H150252   3.448   1.156  12.111  0.5007  1.3837 -0.3963
 9587TIP3    H250253   3.400   1.122  11.972 -0.2030 -0.3713  0.2486
 9588TIP3   OH250254   2.222   4.643   4.971 -0.3997  0.3357  0.2094
 9588TIP3    H150255   2.249   4.698   5.045  2.2375 -0.2023 -0.2491
 9588TIP3    H250256   2.259   4.557   4.991 -1.6670 -0.4348 -0.6499
 9589TIP3   OH250257   4.509   5.403   0.038 -0.0055  0.2185 -0.1322
 9589TIP3    H150258   4.533   5.484   0.082 -1.4464 -0.3448  1.8539
 9589TIP3    H250259   4.416   5.392   0.058  0.2553 -2.1358  0.0739
 9590TIP3   OH250260   3.464   0.673  16.298  0.0627 -0.0297 -0.0038
 9590TIP3    H150261   3.452   0.767  16.285  1.5503  0.3340  1.1129
 9590TIP3    H250262   3.444   0.635  16.212 -1.9813  1.1297 -0.1058
 9591TIP3   OH250263   5.248   4.929   5.660 -0.6089 -0.0015 -0.5700
 9591TIP3    H150264   5.166   4.910   5.706 -0.7294  0.7682 -0.4567
 9591TIP3    H250265   5.287   4.843   5.644 -0.3595 -0.2812  1.3393
 9592TIP3   OH250266   1.982   1.116   1.780 -0.5022  0.2471 -0.5363
 9592TIP3    H150267   1.930   1.075   1.711  0.3164 -0.7873 -0.5642
 9592TIP3    H250268   2.003   1.203   1.746 -0.3394 -0.1465 -1.4617
 9593TIP3   OH250269   4.711   0.727  16.280  0.0038 -0.2134  0.6771
 9593TIP3    H150270   4.729   0.820  16.268 -0.1528 -0.2698 -0.0520
 9593TIP3    H250271   4.628   0.725  16.328  0.0099  0.0265  0.6996
 9594TIP3   OH250272   3.830   6.511  11.264 -0.2636 -0.1383  0.2213
 9594TIP3    H150273   3.877   6.580  11.217 -0.2058  1.6512  2.7107
 9594TIP3    H250274   3.774   6.470  11.197 -0.8843  2.8289 -1.2516
 9595TIP3   OH250275   4.020   6.481   2.749 -0.1051  0.7086 -0.2439
 9595TIP3    H150276   3.947   6.422   2.728  0.1627  0.5856 -0.8594
 9595TIP3    H250277   4.005   6.506   2.841 -1.8989  2.0894 -0.8493
 9596TIP3   OH250278   3.758   3.588  16.984  0.4625  0.2713 -0.0116
 9596TIP3    H150279   3.747   3.667  17.038  0.5152  0.4366 -0.2407
 9596TIP3    H250280   3.770   3.517  17.047  1.4129  0.5949  0.1777
 9597TIP3   OH250281   0.861   6.654  12.292 -0.4219 -0.5027  0.8257
 9597TIP3    H150282   0.817   6.705  12.360 -2.1568 -2.8814  1.6332
 9597TIP3    H250283   0.945   6.629  12.331  0.1336  1.0936  0.6879
 9598TIP3   OH250284   6.214   0.676   0.179  0.4501 -0.0015 -0.1800
 9598TIP3    H150285   6.183   0.749   0.233  0.3124  0.6381 -1.1050
 9598TIP3    H250286   6.144   0.660   0.116  1.0757  0.0428 -0.9117
 9599TIP3   OH250287   4.854   1.248  13.140  0.2556 -0.3185  0.4890
 9599TIP3    H150288   4.783   1.186  13.123 -0.1861  0.2984  0.0496
 9599TIP3    H250289   4.814   1.334  13.126  1.2348  0.0163 -0.2639
 9600TIP3   OH250290   3.758   3.912  11.574 -0.1141 -0.0141 -0.1494
 9600TIP3    H150291   3.823   3.858  11.619 -1.2209 -0.8817  0.4617
 9600TIP3    H250292   3.807   3.988  11.544  1.3847 -1.0887 -0.5611
 9601TIP3   OH250293   1.548   5.809   4.515  0.3015  0.6420  0.5520
 9601TIP3    H150294   1.475   5.755   4.485  1.8520 -2.0469  1.2771
 9601TIP3    H250295   1.542   5.807   4.610  0.4676  1.7247  0.6005
 9602TIP3   OH250296   3.375   5.040  11.508  0.2665  0.5735  0.5892
 9602TIP3    H150297   3.424   5.122  11.514  0.6790  0.3636  0.1502
 9602TIP3    H250298   3.352   5.032  11.415  0.8808 -0.1712  0.4905
 9603TIP3   OH250299   6.378   2.755   2.009 -0.8252 -0.3632  0.4559
 9603TIP3    H150300   6.371   2.777   1.916  0.7030 -0.5826  0.2611
 9603TIP3    H250301   6.288   2.740   2.037 -1.4980  1.4166 -0.5579
 9604TIP3   OH250302   3.392   3.496  14.463  0.1673  0.2345 -0.3733
 9604TIP3    H150303   3.397   3.590  14.484  1.5140  0.5929 -2.0760
 9604TIP3    H250304   3.337   3.492  14.385 -0.3743 -0.4834  0.0352
 9605TIP3   OH250305   3.107   3.366   5.754 -0.2114 -0.0633 -0.7240
 9605TIP3    H150306   3.112   3.361   5.658 -0.5871 -0.9629 -0.6980
 9605TIP3    H250307   3.181   3.313   5.784 -1.0293 -1.0935 -0.5037
 9606TIP3   OH250308   3.542   3.966   2.858 -0.1933 -0.5009  0.0755
 9606TIP3    H150309   3.587   4.000   2.935  0.9918 -0.5871 -0.5488
 9606TIP3    H250310   3.592   3.887   2.834 -0.1611 -0.1336 -1.1220
 9607TIP3   OH250311   4.363   5.353  13.520  0.4004 -0.2583 -0.4180
 9607TIP3    H150312   4.338   5.274  13.568 -0.5140  0.9287  1.1539
 9607TIP3    H250313   4.289   5.369  13.461 -0.2817  0.3909  0.5681
 9608TIP3   OH250314   2.236   1.606   4.613 -0.1018 -0.0411 -0.1846
 9608TIP3    H150315   2.199   1.519   4.628  3.0353 -1.6703 -0.8612
 9608TIP3    H250316   2.168   1.653   4.565 -1.5795 -2.4379 -0.6246
 9609TIP3   OH250317   1.882   5.856  13.931  0.0406 -0.1503  0.2205
 9609TIP3    H150318   1.885   5.906  14.013 -0.2351  0.0506  0.1095
 9609TIP3    H250319   1.813   5.791  13.945 -0.4391  0.2871 -0.0765
 9610TIP3   OH250320   3.367   3.732   4.903  0.2642 -0.3666  0.1427
 9610TIP3    H150321   3.460   3.708   4.904  0.3122 -0.2801 -1.2274
 9610TIP3    H250322   3.361   3.801   4.837 -0.3960  1.2761  1.8350
 9611TIP3   OH250323   0.648   1.368   2.863 -0.1235  0.2379 -0.0083
 9611TIP3    H150324   0.680   1.457   2.876  0.7674  0.2118 -1.8002
 9611TIP3    H250325   0.625   1.364   2.770  0.2323 -1.5204 -0.0501
 9612TIP3   OH250326   3.810   4.240  13.767  0.3547  0.2707 -0.4831
 9612TIP3    H150327   3.719   4.212  13.762  0.7548 -0.8564 -2.0668
 9612TIP3    H250328   3.856   4.168  13.810  0.8401 -0.1790 -1.6864
 9613TIP3   OH250329   0.823   6.286  11.454  0.7193  0.2679 -0.1634
 9613TIP3    H150330   0.744   6.275  11.401 -0.6907  0.5802  1.7892
 9613TIP3    H250331   0.811   6.226  11.528  0.9294  2.3522  1.6549
 9614TIP3   OH250332   2.942   1.669   6.437 -0.2400  0.4205 -0.3747
 9614TIP3    H150333   2.887   1.605   6.483  0.3876 -0.7776 -1.2443
 9614TIP3    H250334   2.932   1.749   6.488 -1.0336 -0.3659  0.7726
 9615TIP3   OH250335   6.555   1.556  14.610 -0.9249  0.2211  0.5076
 9615TIP3    H150336   6.486   1.492  14.630 -1.8846  1.2804  0.6858
 9615TIP3    H250337   6.636   1.505  14.613 -1.7523 -1.2908 -0.7061
 9616TIP3   OH250338   3.979   5.558  16.860 -0.2327 -0.0788  0.0699
 9616TIP3    H150339   4.070   5.529  16.854 -0.5700 -0.9899 -0.9409
 9616TIP3    H250340   3.958   5.553  16.953  0.6152 -0.2861  0.2557
 9617TIP3   OH250341   3.137   0.819   4.782 -0.3021 -0.5036 -0.1813
 9617TIP3    H150342   3.222   0.812   4.738 -0.1188  0.2818  0.0389
 9617TIP3    H250343   3.159   0.824   4.875 -0.6829 -2.0622  0.0256
 9618TIP3   OH250344   4.253   6.168   3.383  0.2914  0.1329  0.1738
 9618TIP3    H150345   4.296   6.193   3.301  0.1317 -0.0777  0.0236
 9618TIP3    H250346   4.280   6.077   3.397 -1.7772 -0.7512 -1.0480
 9619TIP3   OH250347   1.877   0.440   6.195  0.3151 -0.6552  0.1529
 9619TIP3    H150348   1.846   0.358   6.157  0.1147 -1.0027  1.0272
 9619TIP3    H250349   1.798   0.482   6.230  0.1522  0.7275 -1.7315
 9620TIP3   OH250350   1.054   4.567   3.365 -0.0427  0.1939  0.2757
 9620TIP3    H150351   1.029   4.618   3.287 -0.1894  2.1791  1.5431
 9620TIP3    H250352   0.986   4.587   3.429  0.1756 -1.2751  0.9858
 9621TIP3   OH250353   6.782   2.041   2.387 -0.5476 -0.2615  0.3898
 9621TIP3    H150354   6.783   2.068   2.479  1.7045 -1.7202  0.8894
 9621TIP3    H250355   6.772   1.946   2.389  1.3605 -0.5463 -0.7100
 9622TIP3   OH250356   0.311   5.808   6.190  0.5085 -0.2488 -0.0934
 9622TIP3    H150357   0.361   5.850   6.260 -0.3681 -1.4379  1.3020
 9622TIP3    H250358   0.375   5.753   6.145  1.6065  2.2727 -1.7839
 9623TIP3   OH250359   0.756   6.414  10.947  0.0149 -0.3370  0.2574
 9623TIP3    H150360   0.808   6.424  10.867 -0.7113 -1.5044 -0.3957
 9623TIP3    H250361   0.757   6.319  10.964 -1.2881 -0.3046  0.6315
 9624TIP3   OH250362   4.106   6.166   4.545  0.0438  0.2533 -0.9943
 9624TIP3    H150363   4.182   6.217   4.518 -0.0962 -0.6139 -3.2518
 9624TIP3    H250364   4.035   6.197   4.489 -0.5455 -0.9437 -0.9488
 9625TIP3   OH250365   0.479   0.965   0.346 -0.2426 -0.0262  0.1526
 9625TIP3    H150366   0.512   0.992   0.431 -0.9289  0.2588  0.3382
 9625TIP3    H250367   0.499   1.038   0.287  0.7249 -0.4545 -0.0614
 9626TIP3   OH250368   4.723   5.990   3.889  0.1837  0.1466  0.0108
 9626TIP3    H150369   4.816   5.967   3.895  0.0072 -0.4932  0.4426
 9626TIP3    H250370   4.687   5.927   3.828 -0.3509 -0.9317  1.3792
 9627TIP3   OH250371   1.448   4.873  11.709 -0.0106  0.5478  0.5034
 9627TIP3    H150372   1.463   4.931  11.634  0.7088  0.7149  0.7658
 9627TIP3    H250373   1.516   4.897  11.772 -0.0375 -0.2104  0.8389
 9628TIP3   OH250374   2.088   1.362   4.645 -0.0416  0.5601 -0.0662
 9628TIP3    H150375   2.139   1.303   4.589  0.7479  0.9529  0.2166
 9628TIP3    H250376   2.073   1.313   4.725 -0.9573  0.0884 -0.5138
 9629TIP3   OH250377   5.983   1.172   0.823 -0.1571  0.3162 -0.1389
 9629TIP3    H150378   6.078   1.164   0.832 -0.2476 -0.5160  0.1613
 9629TIP3    H250379   5.968   1.265   0.806  0.9526  0.0596 -3.0734
 9630TIP3   OH250380   1.566   0.158   4.532 -0.1147  0.1213  0.4436
 9630TIP3    H150381   1.476   0.127   4.526 -0.5244  1.2293  0.4728
 9630TIP3    H250382   1.618   0.090   4.490 -1.0062 -0.3838  0.1209
 9631TIP3   OH250383   4.890   6.628   2.008 -0.0775  0.8114 -0.1551
 9631TIP3    H150384   4.888   6.690   2.081 -0.2350  0.6847 -0.0512
 9631TIP3    H250385   4.838   6.670   1.939 -1.2020  0.2741  0.3370
 9632TIP3   OH250386   0.500   4.545   5.951  0.3011 -0.4550 -0.4339
 9632TIP3    H150387   0.580   4.573   5.995 -1.5136  1.1449  2.0931
 9632TIP3    H250388   0.498   4.450   5.963  0.1247 -0.1587  2.7175
 9633TIP3   OH250389   3.368   6.806   3.568 -0.0912  0.1952  0.5541
 9633TIP3    H150390   3.416   6.833   3.490 -0.3006  2.3192  1.1191
 9633TIP3    H250391   3.277   6.802   3.541 -0.2759  1.8097  0.8838
 9634TIP3   OH250392   5.564   5.817  11.734  0.0875  0.3015  0.4324
 9634TIP3    H150393   5.562   5.901  11.780 -0.8249  1.2593 -1.2380
 9634TIP3    H250394   5.528   5.837  11.647  0.9682 -1.5769 -0.4163
 9635TIP3   OH250395   5.057   2.515  14.150  0.4144  0.0821  0.0175
 9635TIP3    H150396   5.121   2.454  14.185  0.9459  0.1048 -0.8816
 9635TIP3    H250397   5.102   2.559  14.078 -1.0013 -0.8577 -1.5232
 9636TIP3   OH250398   4.048   3.846  11.410 -0.5856  0.4194  0.0739
 9636TIP3    H150399   4.125   3.789  11.419 -0.9060 -0.5202 -2.3933
 9636TIP3    H250400   4.082   3.934  11.423  1.6391  0.3328 -3.6280
 9637TIP3   OH250401   0.486   5.162   3.283 -0.7351 -0.0183 -0.1637
 9637TIP3    H150402   0.500   5.224   3.354  2.2757 -0.4826 -0.2398
 9637TIP3    H250403   0.522   5.205   3.205 -1.1297 -0.7757 -0.7880
 9638TIP3   OH250404   2.515   4.147  12.971 -0.0908 -0.4992  0.7782
 9638TIP3    H150405   2.459   4.210  12.926  0.5046  0.0064  0.7379
 9638TIP3    H250406   2.502   4.065  12.922 -0.8724 -0.4231  0.8361
 9639TIP3   OH250407   5.173   4.863   1.544 -0.1449  0.2090 -0.6248
 9639TIP3    H150408   5.131   4.788   1.587  0.1356 -0.5081 -1.5480
 9639TIP3    H250409   5.244   4.824   1.493 -1.8341  0.6814 -3.5455
 9640TIP3   OH250410   1.170   5.650   4.864  0.1580 -0.4294  0.0629
 9640TIP3    H150411   1.090   5.640   4.916 -0.3391  0.0187 -0.5956
 9640TIP3    H250412   1.240   5.616   4.920 -0.3733 -0.0223  0.9900
 9641TIP3   OH250413   6.261   2.600  14.046  0.3758 -0.1356  0.0208
 9641TIP3    H150414   6.228   2.515  14.016  0.2347  0.0037 -0.2166
 9641TIP3    H250415   6.209   2.621  14.123 -0.4843  0.3517 -0.6799
 9642TIP3   OH250416   5.874   1.791  11.900  0.0265 -0.6635  0.1337
 9642TIP3    H150417   5.849   1.770  11.990 -0.5987 -1.0145 -0.1088
 9642TIP3    H250418   5.848   1.713  11.850 -0.5948 -0.0619 -0.4994
 9643TIP3   OH250419   1.349   4.480   1.270 -0.4350  0.0677 -0.1803
 9643TIP3    H150420   1.346   4.574   1.289 -0.5875  0.6408 -2.7467
 9643TIP3    H250421   1.340   4.439   1.356 -0.6184  2.3820  0.9995
 9644TIP3   OH250422   6.720   1.824   1.917 -0.0846 -0.2077 -0.4685
 9644TIP3    H150423   6.685   1.840   1.830 -1.7307 -0.4666  0.1018
 9644TIP3    H250424   6.760   1.907   1.943 -1.9286  0.7203 -0.4468
 9645TIP3   OH250425   6.268   3.003  10.741  0.0267  0.4266  0.6665
 9645TIP3    H150426   6.239   2.968  10.826 -1.9592  0.6587  0.1124
 9645TIP3    H250427   6.227   2.946  10.676 -0.6576  1.8411 -0.1847
 9646TIP3   OH250428   0.872   1.413   5.598  0.6604  0.0082 -0.0816
 9646TIP3    H150429   0.840   1.334   5.642  0.0404  0.0074 -0.5130
 9646TIP3    H250430   0.951   1.384   5.553 -0.2481 -0.7277 -1.2959
 9647TIP3   OH250431   6.020   1.989   4.187 -0.0566 -0.2610 -0.5371
 9647TIP3    H150432   6.043   2.033   4.269  0.8576 -0.2137 -0.8123
 9647TIP3    H250433   6.104   1.971   4.144 -0.4305 -1.7282 -0.7181
 9648TIP3   OH250434   5.388   1.754  12.784  0.3648  0.2820 -0.4529
 9648TIP3    H150435   5.323   1.724  12.847 -0.2335 -1.7023 -1.9366
 9648TIP3    H250436   5.337   1.781  12.707  1.2288 -1.0490 -1.5427
 9649TIP3   OH250437   4.649   5.711   5.730  0.0736  0.0275  0.6734
 9649TIP3    H150438   4.564   5.754   5.739  0.7326  1.8478 -0.9057
 9649TIP3    H250439   4.663   5.667   5.814 -2.4028 -0.3460  0.9582
 9650TIP3   OH250440   6.438   3.831   3.226  0.1256  0.0880 -0.0396
 9650TIP3    H150441   6.488   3.889   3.283  0.2230 -0.0139 -0.0208
 9650TIP3    H250442   6.503   3.772   3.188 -0.1621 -1.0819  1.1994
 9651TIP3   OH250443   3.445   1.127  15.616 -0.2638 -0.0609  0.6159
 9651TIP3    H150444   3.533   1.154  15.644 -1.0312  1.6368  1.5457
 9651TIP3    H250445   3.458   1.094  15.527  1.4466 -0.7024  1.0663
 9652TIP3   OH250446   6.505   0.500  14.525 -0.3137 -0.3721  0.2511
 9652TIP3    H150447   6.423   0.518  14.570  0.2960 -0.2657  1.3624
 9652TIP3    H250448   6.573   0.533  14.584  0.5149 -0.1005 -0.8195
 9653TIP3   OH250449   0.558   6.282   3.544 -0.0122 -0.6424  0.2336
 9653TIP3    H150450   0.605   6.351   3.498 -1.4214  0.7421  0.8065
 9653TIP3    H250451   0.542   6.317   3.631 -1.0277 -1.5705  0.4441
 9654TIP3   OH250452   2.980   5.082  10.327  0.2636  0.4326  0.2964
 9654TIP3    H150453   2.980   5.036  10.243  0.0093 -0.4932  0.7929
 9654TIP3    H250454   2.995   5.014  10.392  0.0291  1.0732  1.0383
 9655TIP3   OH250455   0.865   2.874   1.389  0.0651 -0.3831 -0.4121
 9655TIP3    H150456   0.918   2.945   1.351  0.4344 -0.7941 -0.6838
 9655TIP3    H250457   0.923   2.798   1.388 -0.4579 -0.7894 -0.4988
 9656TIP3   OH250458   4.981   6.386   2.130 -0.0109  0.1079 -0.6397
 9656TIP3    H150459   4.933   6.449   2.077  1.4251  0.6017 -1.4046
 9656TIP3    H250460   4.925   6.308   2.132 -1.2160  0.9536 -0.7527
 9657TIP3   OH250461   2.593   5.395   4.368 -0.3218 -0.0444 -0.2742
 9657TIP3    H150462   2.586   5.308   4.406  1.1208  0.8797  2.4494
 9657TIP3    H250463   2.687   5.413   4.367 -0.6020  1.5392 -0.5714
 9658TIP3   OH250464   5.279   5.465  15.020  0.0731  0.3102 -0.2797
 9658TIP3    H150465   5.273   5.556  15.047 -0.5246  0.5773 -1.2854
 9658TIP3    H250466   5.315   5.420  15.097 -0.2465  1.2716  0.4531
 9659TIP3   OH250467   3.963   2.937   3.357  0.0870  0.2320  0.0304
 9659TIP3    H150468   3.869   2.955   3.367  0.2787  0.9190  0.7116
 9659TIP3    H250469   3.972   2.844   3.376 -0.1477  0.6256  2.3210
 9660TIP3   OH250470   2.004   5.306  13.792 -0.2950  0.6194 -0.1303
 9660TIP3    H150471   1.925   5.359  13.791 -0.6813  0.0521 -1.0750
 9660TIP3    H250472   2.054   5.335  13.716  0.4793  1.0627  0.5330
 9661TIP3   OH250473   6.334   1.206   1.482 -0.3895  0.4286  0.1634
 9661TIP3    H150474   6.299   1.267   1.546 -0.3295  0.0168  0.5864
 9661TIP3    H250475   6.288   1.124   1.498  0.1104  0.1370  0.1273
 9662TIP3   OH250476   6.428   4.769   3.368  0.4931 -0.3363  0.2876
 9662TIP3    H150477   6.407   4.839   3.430  1.5447  0.3762 -0.1255
 9662TIP3    H250478   6.521   4.783   3.347 -0.0997  0.1487 -2.3093
 9663TIP3   OH250479   1.688   1.739  11.031  0.0698 -0.0489 -0.6134
 9663TIP3    H150480   1.777   1.773  11.033 -0.3002  0.9201  0.4499
 9663TIP3    H250481   1.657   1.759  10.943  0.5192  0.6585 -0.6190
 9664TIP3   OH250482   1.995   2.883   5.151 -0.2389 -0.1876  0.0822
 9664TIP3    H150483   2.022   2.812   5.092 -1.6953 -1.1918  0.5638
 9664TIP3    H250484   2.052   2.873   5.227  2.1610  1.5690 -1.3340
 9665TIP3   OH250485   0.489   2.170   4.896 -0.0059  0.8135  0.0159
 9665TIP3    H150486   0.487   2.178   4.800 -0.7805 -1.3976 -0.2021
 9665TIP3    H250487   0.568   2.218   4.922  0.0865  1.6778 -1.6889
 9666TIP3   OH250488   6.771   3.824   4.022  0.6833 -0.0843  0.3076
 9666TIP3    H150489   6.826   3.870   3.958  0.1065  0.2848  0.0705
 9666TIP3    H250490   6.760   3.736   3.985  2.8771 -0.8923  1.3955
 9667TIP3   OH250491   2.219   3.064   5.364  0.1816  0.3981  0.0978
 9667TIP3    H150492   2.202   3.113   5.444 -0.8350 -0.0216  0.1660
 9667TIP3    H250493   2.308   3.087   5.339 -0.0695  1.8009  0.4440
 9668TIP3   OH250494   1.339   4.013   1.724 -0.0419 -0.5716  0.7879
 9668TIP3    H150495   1.430   4.014   1.754  1.0201  0.3787 -2.1399
 9668TIP3    H250496   1.318   3.920   1.716  1.2323 -0.8180  0.0414
 9669TIP3   OH250497   2.577   0.957  16.425 -0.1065  0.4592 -0.1287
 9669TIP3    H150498   2.650   1.001  16.382  1.1583  0.3730  1.8391
 9669TIP3    H250499   2.521   0.928  16.353  2.2060 -0.2098 -1.7614
 9670TIP3   OH250500   6.264   5.239   5.767  0.3264  0.0783  0.8629
 9670TIP3    H150501   6.301   5.235   5.679  1.1027 -0.4245  1.2044
 9670TIP3    H250502   6.206   5.315   5.765  1.2813  0.8262  0.2678
 9671TIP3   OH250503   1.794   2.274   5.655 -0.2520 -0.1788 -0.9250
 9671TIP3    H150504   1.853   2.349   5.652 -1.5474  0.8640 -2.2730
 9671TIP3    H250505   1.805   2.232   5.569 -0.7605 -0.5141 -0.8314
 9672TIP3   OH250506   5.101   3.468  10.936  0.5289 -0.2886 -0.4614
 9672TIP3    H150507   5.178   3.412  10.926  0.6902 -0.3848  1.1137
 9672TIP3    H250508   5.055   3.432  11.012  0.1714  1.1676  0.0499
 9673TIP3   OH250509   5.660   1.484   5.981  0.2123 -0.0820  0.2029
 9673TIP3    H150510   5.749   1.502   6.009  0.1281  0.6637  0.0140
 9673TIP3    H250511   5.652   1.526   5.896 -1.1278  2.2432  1.3787
 9674TIP3   OH250512   5.731   4.047   3.169 -0.1805 -0.3873 -0.2663
 9674TIP3    H150513   5.793   4.074   3.236  0.3706 -1.0982 -0.4695
 9674TIP3    H250514   5.746   4.107   3.096  0.5290 -0.7774 -0.4500
 9675TIP3   OH250515   4.900   5.419  14.523 -0.5046  0.2398  0.0653
 9675TIP3    H150516   4.810   5.451  14.531 -0.4887  0.1674  0.6207
 9675TIP3    H250517   4.951   5.479  14.578 -0.5190 -0.8893  1.3801
 9676TIP3   OH250518   0.782   0.276  15.446  0.6642 -0.6687  0.0533
 9676TIP3    H150519   0.789   0.302  15.354 -0.3876 -1.4148 -0.2623
 9676TIP3    H250520   0.730   0.196  15.444  1.0284 -0.9563  1.2697
 9677TIP3   OH250521   2.988   4.484  15.338 -0.5224  0.0883  0.5554
 9677TIP3    H150522   2.914   4.426  15.320 -0.0128 -0.2588 -0.4729
 9677TIP3    H250523   2.972   4.562  15.285 -0.5852  0.3841  1.0007
 9678TIP3   OH250524   4.928   0.937  11.719  0.8487  0.2558 -0.4111
 9678TIP3    H150525   4.893   0.905  11.635 -0.3783  1.4793 -0.4039
 9678TIP3    H250526   4.854   0.932  11.779  1.3729  0.6127  0.2782
 9679TIP3   OH250527   1.566   2.547  11.312  0.0371  0.7670  0.9628
 9679TIP3    H150528   1.605   2.537  11.399 -0.0725  0.7343  1.0071
 9679TIP3    H250529   1.642   2.558  11.254  0.2353 -1.2070  0.7739
 9680TIP3   OH250530   3.714   4.232   3.907  0.1676  0.1686 -0.3217
 9680TIP3    H150531   3.784   4.186   3.952 -2.1014 -2.3585  0.9133
 9680TIP3    H250532   3.634   4.191   3.939 -1.7956  1.1488 -3.5240
 9681TIP3   OH250533   4.844   1.201  11.905  0.2081 -0.0195 -0.1297
 9681TIP3    H150534   4.932   1.189  11.941  0.7634 -0.8664 -1.6728
 9681TIP3    H250535   4.848   1.284  11.858 -0.9748  1.9113  2.9081
 9682TIP3   OH250536   4.918   2.312   5.220  0.3556 -0.1624  0.2355
 9682TIP3    H150537   5.006   2.303   5.256 -0.2058 -2.0053  1.2705
 9682TIP3    H250538   4.922   2.267   5.135  0.9539  1.7324 -0.7858
 9683TIP3   OH250539   1.371   6.036  12.491 -0.2805  0.5604 -0.3874
 9683TIP3    H150540   1.285   6.044  12.448 -0.3645  3.7284  0.1159
 9683TIP3    H250541   1.350   6.022  12.583 -0.2092 -0.0075 -0.4535
 9684TIP3   OH250542   3.741   6.513  14.652  0.3052  0.3056  0.0672
 9684TIP3    H150543   3.677   6.442  14.664  0.5738  0.2058  0.9524
 9684TIP3    H250544   3.691   6.582  14.608  0.3905 -0.9440 -2.1824
 9685TIP3   OH250545   0.077   0.593   5.435 -0.3652 -0.4512 -0.3355
 9685TIP3    H150546   0.052   0.504   5.461 -1.2909 -0.0624  0.1427
 9685TIP3    H250547  -0.003   0.631   5.400  0.3922 -0.3154 -2.0452
 9686TIP3   OH250548   6.455   2.638   2.920  0.0081  0.1118 -0.0824
 9686TIP3    H150549   6.377   2.679   2.958 -0.0960  0.8488 -1.0430
 9686TIP3    H250550   6.424   2.603   2.836 -0.1371 -2.7981  1.0732
 9687TIP3   OH250551   5.373   1.379  14.729  0.4104  0.4080  0.6189
 9687TIP3    H150552   5.336   1.353  14.814  0.0214  2.6368  1.1925
 9687TIP3    H250553   5.319   1.452  14.700  1.7860  1.0184 -0.5720
 9688TIP3   OH250554   0.219   4.021   3.270 -0.4434  0.1761  0.1649
 9688TIP3    H150555   0.214   4.021   3.174 -0.9943 -0.2013  0.1872
 9688TIP3    H250556   0.292   3.963   3.290 -0.5635 -0.0410 -0.0213
 9689TIP3   OH250557   0.695   1.237  14.091  0.1908 -0.3578  0.0971
 9689TIP3    H150558   0.688   1.331  14.107  0.3808 -0.0523 -1.4425
 9689TIP3    H250559   0.616   1.200  14.130  0.3085  0.3772  1.0688
 9690TIP3   OH250560   5.462   3.599   1.522 -0.0432  0.6335  0.2014
 9690TIP3    H150561   5.530   3.663   1.544 -1.2395  2.4227 -1.0648
 9690TIP3    H250562   5.393   3.614   1.586  0.6044 -1.0575  1.3671
 9691TIP3   OH250563   5.336   6.292  15.567 -0.5929 -0.3346 -0.1530
 9691TIP3    H150564   5.405   6.237  15.604 -0.0622  0.4099 -0.0089
 9691TIP3    H250565   5.382   6.349  15.505 -1.1326 -0.0599 -0.3048
 9692TIP3   OH250566   2.337   6.260  14.301  0.0979 -0.1483 -0.1187
 9692TIP3    H150567   2.392   6.187  14.330 -1.2698 -1.3709 -0.4671
 9692TIP3    H250568   2.248   6.232  14.320 -0.4603  1.5495 -0.0632
 9693TIP3   OH250569   2.013   6.253  15.455 -0.5314 -0.1211  0.4485
 9693TIP3    H150570   1.964   6.294  15.384  0.4344 -0.2651 -0.3146
 9693TIP3    H250571   2.000   6.159  15.443 -1.1677 -0.1291  1.0660
 9694TIP3   OH250572   1.156   3.232  15.856  0.1305 -0.1649 -0.2185
 9694TIP3    H150573   1.201   3.315  15.838  3.6339 -1.8572 -0.1648
 9694TIP3    H250574   1.150   3.189  15.771 -1.3387 -0.0559 -0.1902
 9695TIP3   OH250575   3.965   4.479  10.052 -0.1490 -0.2764  0.2718
 9695TIP3    H150576   4.042   4.508  10.102 -0.3611 -2.6557  2.1922
 9695TIP3    H250577   3.894   4.534  10.085 -0.3614 -2.0114  3.1201
 9696TIP3   OH250578   0.172   6.552   2.107 -0.1615  0.6565  0.7902
 9696TIP3    H150579   0.130   6.474   2.070 -1.6769  0.7038  2.2900
 9696TIP3    H250580   0.260   6.552   2.069 -0.7056 -0.8177 -0.5742
 9697TIP3   OH250581   0.153   0.187  10.915 -0.2608  0.4723  0.4958
 9697TIP3    H150582   0.204   0.148  10.844  1.1043  1.7950  0.7092
 9697TIP3    H250583   0.080   0.230  10.872 -0.4441 -0.2442  0.0672
 9698TIP3   OH250584   2.969   3.285   1.821 -0.1439 -0.0055  0.0885
 9698TIP3    H150585   2.985   3.374   1.854 -0.2605  0.8890 -2.0725
 9698TIP3    H250586   3.017   3.228   1.881 -0.4737  1.4519  1.8359
 9699TIP3   OH250587   4.910   4.828   0.246 -0.3137  0.6226 -0.3751
 9699TIP3    H150588   4.905   4.869   0.332 -2.4803  0.8206 -0.5245
 9699TIP3    H250589   4.827   4.781   0.238 -0.2890  0.8436 -2.4463
 9700TIP3   OH250590   4.778   3.684   0.092 -0.4703  0.3549  0.0615
 9700TIP3    H150591   4.857   3.686   0.039 -1.5849  0.3085 -1.6963
 9700TIP3    H250592   4.712   3.645   0.035 -1.6734  0.0291  1.6096
 9701TIP3   OH250593   0.561   5.007   4.287  0.0283 -0.2259 -0.2487
 9701TIP3    H150594   0.522   5.082   4.333 -0.5272  0.0602 -1.1553
 9701TIP3    H250595   0.639   5.043   4.245 -2.0087  0.8339 -3.5855
 9702TIP3   OH250596   0.133   0.858   4.547 -0.3982 -0.2752  0.3388
 9702TIP3    H150597   0.201   0.921   4.523  0.4982 -1.9691 -2.0499
 9702TIP3    H250598   0.061   0.877   4.488 -1.1502  0.0825  1.3463
 9703TIP3   OH250599   5.393   3.602   0.925  0.7361 -0.0639 -0.0730
 9703TIP3    H150600   5.380   3.539   0.996 -0.9375  1.6957  1.3132
 9703TIP3    H250601   5.320   3.587   0.866  1.3818 -0.6359 -0.7394
 9704TIP3   OH250602   4.105   4.863  10.419  0.2265  0.0490  0.5092
 9704TIP3    H150603   4.021   4.899  10.390 -0.4529 -2.3603 -0.8097
 9704TIP3    H250604   4.170   4.923  10.384 -0.8538  0.4787 -0.8594
 9705TIP3   OH250605   4.969   3.678   1.751 -0.3975 -0.2631  0.0034
 9705TIP3    H150606   4.921   3.603   1.715 -0.3523  0.0326 -0.6942
 9705TIP3    H250607   4.974   3.661   1.845 -1.4339 -0.5496  0.0236
 9706TIP3   OH250608   4.735   3.053  16.479  0.5449  0.1095  0.0834
 9706TIP3    H150609   4.781   3.106  16.544 -1.6659  1.7800  0.4196
 9706TIP3    H250610   4.777   3.077  16.396  2.9156 -1.5151  0.6993
 9707TIP3   OH250611   3.663   2.652   2.215 -0.3730  0.2393 -0.0161
 9707TIP3    H150612   3.678   2.610   2.130  0.9516  1.8244 -0.6304
 9707TIP3    H250613   3.584   2.704   2.202 -1.5689 -1.3867  0.5085
 9708TIP3   OH250614   3.642   4.036   5.744  0.2941 -0.0118  0.1053
 9708TIP3    H150615   3.628   4.049   5.837  2.8003 -0.6271  0.6349
 9708TIP3    H250616   3.612   4.118   5.704 -2.6509 -0.4818  1.1585
 9709TIP3   OH250617   0.734   1.798   6.715 -0.1284  0.2889 -0.4813
 9709TIP3    H150618   0.651   1.839   6.739 -1.1064 -1.3129 -1.0136
 9709TIP3    H250619   0.801   1.853   6.757 -1.3523  2.4130 -1.1777
 9710TIP3   OH250620   0.419   5.583   3.975  0.3066  0.0335  0.2593
 9710TIP3    H150621   0.447   5.495   4.000  0.2351 -0.2635 -0.6720
 9710TIP3    H250622   0.356   5.609   4.043  0.0407 -0.7910  0.3371
 9711TIP3   OH250623   5.015   0.577  13.682  0.2847 -0.3010  0.6995
 9711TIP3    H150624   5.020   0.511  13.613 -3.6839 -1.1349  0.9876
 9711TIP3    H250625   5.005   0.660  13.635  0.3334 -0.5220  0.2911
 9712TIP3   OH250626   5.070   4.420  14.170  0.2988  0.1806 -0.2679
 9712TIP3    H150627   5.143   4.475  14.142  1.1970 -1.2336 -0.7836
 9712TIP3    H250628   5.049   4.367  14.093 -1.2960  0.5674 -0.1327
 9713TIP3   OH250629   3.077   3.500  11.516  0.0034  0.7042  0.3598
 9713TIP3    H150630   3.111   3.518  11.428  0.0177 -1.6395 -0.1722
 9713TIP3    H250631   3.147   3.528  11.575  1.0584 -0.0047 -0.5214
 9714TIP3   OH250632   0.816   1.883  14.348  0.0977 -0.2324  0.1660
 9714TIP3    H150633   0.729   1.920  14.361  0.3465 -0.4922  3.7266
 9714TIP3    H250634   0.875   1.951  14.382  1.1633 -0.8200 -0.4618
 9715TIP3   OH250635   6.014   4.296  12.101 -0.4702  0.1826 -0.5549
 9715TIP3    H150636   6.103   4.260  12.100  0.5355  2.4270  0.6038
 9715TIP3    H250637   5.961   4.228  12.142  1.1381 -0.4162  0.6424
 9716TIP3   OH250638   0.894   2.884   0.806  0.1370  0.4382 -0.2167
 9716TIP3    H150639   0.882   2.812   0.868  1.1890  1.0608  0.7463
 9716TIP3    H250640   0.984   2.914   0.820  0.0032  1.3826 -1.2038
 9717TIP3   OH250641   6.078   3.530  10.990 -0.2684  0.5205 -0.6195
 9717TIP3    H150642   6.003   3.470  10.996  0.2094 -0.3385 -2.5175
 9717TIP3    H250643   6.041   3.615  11.012 -1.4355 -0.1303  0.0939
 9718TIP3   OH250644   4.020   6.550   3.051  0.1067  0.1427 -0.1921
 9718TIP3    H150645   4.006   6.617   3.118  0.2394 -0.6691  0.6728
 9718TIP3    H250646   4.087   6.587   2.993 -0.5440  1.1591 -0.3164
 9719TIP3   OH250647   0.752   5.374  14.550  0.3003  0.2982  0.0146
 9719TIP3    H150648   0.743   5.464  14.518 -0.1819  0.5698  0.8724
 9719TIP3    H250649   0.832   5.376  14.603  1.6765 -0.3998 -1.9413
 9720TIP3   OH250650   2.453   3.165   6.180 -0.0084 -0.1518  0.1968
 9720TIP3    H150651   2.407   3.250   6.183 -0.0542 -0.1952  0.8992
 9720TIP3    H250652   2.429   3.123   6.262 -0.8085 -1.2852 -0.5951
 9721TIP3   OH250653   1.772   6.271  10.711 -0.0774  0.3236 -0.7008
 9721TIP3    H150654   1.713   6.224  10.652  0.0040 -2.5724  1.2768
 9721TIP3    H250655   1.855   6.225  10.703  0.4471  1.0608  0.3108
 9722TIP3   OH250656   5.728   5.494  12.844 -0.3889 -0.2594 -0.6057
 9722TIP3    H150657   5.638   5.472  12.866 -0.2279 -0.0688  0.3137
 9722TIP3    H250658   5.722   5.555  12.771 -1.0445  0.3420 -0.0633
 9723TIP3   OH250659   2.984   1.998   0.394 -0.5850  0.3633 -0.6750
 9723TIP3    H150660   2.981   1.938   0.469  0.5266 -0.0439 -0.9248
 9723TIP3    H250661   2.902   2.046   0.398 -1.3986 -0.9857 -0.3020
 9724TIP3   OH250662   6.281   0.255  16.474 -0.5532  0.4669 -0.0424
 9724TIP3    H150663   6.221   0.193  16.433 -1.0909 -1.1605  2.9356
 9724TIP3    H250664   6.227   0.329  16.500 -0.9081 -0.0719  0.7902
 9725TIP3   OH250665   0.588   1.119  11.450  0.3275  0.1462  0.6040
 9725TIP3    H150666   0.537   1.199  11.451 -0.1497 -0.1507  1.5375
 9725TIP3    H250667   0.645   1.127  11.373 -2.3768 -0.3256 -1.6221
 9726TIP3   OH250668   2.612   2.336   4.526 -0.4510  0.1790  0.3378
 9726TIP3    H150669   2.665   2.408   4.558 -1.2903  0.1126  1.9982
 9726TIP3    H250670   2.670   2.260   4.528 -0.1689  0.4018  0.6622
 9727TIP3   OH250671   1.620   1.633   3.275  0.0929  0.5655  0.0233
 9727TIP3    H150672   1.533   1.608   3.305 -0.4978 -0.7303 -2.5582
 9727TIP3    H250673   1.671   1.553   3.280 -0.4030 -0.1188 -3.4430
 9728TIP3   OH250674   3.999   1.343  14.476 -0.3430  0.1291  0.2311
 9728TIP3    H150675   4.081   1.393  14.478 -0.0999 -0.2778  1.7259
 9728TIP3    H250676   3.961   1.356  14.563 -1.7503  0.0864 -0.3437
 9729TIP3   OH250677   5.418   2.346  11.087 -0.0155 -0.5555  0.4154
 9729TIP3    H150678   5.453   2.435  11.095  1.6062 -1.1699  0.4799
 9729TIP3    H250679   5.323   2.359  11.079  0.1689  1.1673  0.4973
 9730TIP3   OH250680   6.698   6.189   1.276 -0.4628  0.2413 -0.7015
 9730TIP3    H150681   6.644   6.150   1.345  0.3829  1.3684  0.6627
 9730TIP3    H250682   6.755   6.117   1.248 -1.6663 -0.5750 -1.1596
 9731TIP3   OH250683   0.031   4.705   5.568 -0.4930  0.3786  0.7349
 9731TIP3    H150684   0.079   4.674   5.491 -1.4965  1.6065 -0.4467
 9731TIP3    H250685   0.097   4.706   5.638  1.1264  1.5556 -0.7065
 9732TIP3   OH250686   5.307   3.234  13.585  0.3394  0.5599  0.1292
 9732TIP3    H150687   5.269   3.317  13.613 -1.2044  0.1516 -0.6681
 9732TIP3    H250688   5.240   3.169  13.604 -0.0981  0.0254 -2.7668
 9733TIP3   OH250689   4.545   4.404  14.492 -1.0352  0.1510  0.1810
 9733TIP3    H150690   4.576   4.494  14.497 -3.0014  0.8508  0.3017
 9733TIP3    H250691   4.596   4.358  14.560 -1.0591  1.4858  1.1370
 9734TIP3   OH250692   5.667   4.522   4.728 -0.0671  0.6100  0.2435
 9734TIP3    H150693   5.712   4.597   4.767 -0.6691  0.9835  0.2396
 9734TIP3    H250694   5.574   4.543   4.736 -0.2292  0.7963 -1.5381
 9735TIP3   OH250695   2.522   4.624  12.101  0.0767  0.4239 -0.4147
 9735TIP3    H150696   2.516   4.608  12.195  2.9666  0.7649 -0.0796
 9735TIP3    H250697   2.463   4.697  12.085 -0.1770  0.5991  1.2009
 9736TIP3   OH250698   1.844   3.298  11.694  0.0358  0.1003  0.4103
 9736TIP3    H150699   1.917   3.345  11.734  0.4485 -0.5459  0.4344
 9736TIP3    H250700   1.792   3.366  11.650 -0.1472  0.7482  1.6013
 9737TIP3   OH250701   5.067   5.369  15.876 -0.1367 -0.0799 -0.5812
 9737TIP3    H150702   5.119   5.429  15.824  0.4130  0.1894  0.2688
 9737TIP3    H250703   5.115   5.359  15.957 -1.5794  0.4544  0.3757
 9738TIP3   OH250704   0.201   0.816  17.243  0.0006  0.0172 -0.4622
 9738TIP3    H150705   0.244   0.896  17.272 -0.1826  0.2136 -0.7359
 9738TIP3    H250706   0.152   0.785  17.320  1.8770 -1.0699  0.3715
 9739TIP3   OH250707   3.636   3.946  16.533  0.4120  0.3310 -0.6399
 9739TIP3    H150708   3.624   4.041  16.534 -0.4823  0.2607  2.2970
 9739TIP3    H250709   3.625   3.918  16.624  0.3027 -2.6532 -1.4465
 9740TIP3   OH250710   3.110   2.889  12.865  0.3030  0.1357  0.2885
 9740TIP3    H150711   3.084   2.899  12.956 -1.1438 -2.3864  0.2726
 9740TIP3    H250712   3.165   2.964  12.846 -0.0823  1.1821  2.9715
 9741TIP3   OH250713   4.263   2.836  10.872 -0.1673 -0.9542 -0.2381
 9741TIP3    H150714   4.321   2.910  10.852  0.5651 -1.7508 -1.2222
 9741TIP3    H250715   4.323   2.762  10.884 -0.7602 -1.0949  2.4076
 9742TIP3   OH250716   1.339   3.333   2.438 -0.3782 -0.4555 -0.0125
 9742TIP3    H150717   1.309   3.399   2.376 -0.7779  0.1202  0.7798
 9742TIP3    H250718   1.342   3.252   2.387 -2.0313 -0.2754 -0.4493
 9743TIP3   OH250719   6.045   6.320   3.161 -0.2386 -0.2616 -0.4803
 9743TIP3    H150720   6.046   6.405   3.204  1.1679 -0.5938  0.1852
 9743TIP3    H250721   6.094   6.334   3.080 -2.9981  0.4018 -2.1769
 9744TIP3   OH250722   1.438   2.836  16.073  0.0198  1.0537  0.2503
 9744TIP3    H150723   1.343   2.835  16.086  0.2386 -1.3361  2.4002
 9744TIP3    H250724   1.471   2.893  16.142  0.1774  2.0078 -0.5918
 9745TIP3   OH250725   3.925   4.889  12.305 -0.0289 -0.3254  0.1020
 9745TIP3    H150726   3.833   4.901  12.325  0.6195  1.7180  2.3750
 9745TIP3    H250727   3.947   4.960  12.245 -0.2626 -1.9393 -2.0253
 9746TIP3   OH250728   6.175   5.892   1.155 -0.3360  0.2193 -0.1912
 9746TIP3    H150729   6.264   5.864   1.134  0.6158  1.5770  1.7613
 9746TIP3    H250730   6.124   5.811   1.153  1.0855 -0.7160 -0.6229
 9747TIP3   OH250731   4.875   0.023  14.953 -0.0667  0.8972 -0.3847
 9747TIP3    H150732   4.873  -0.071  14.967 -2.5001  1.0835  1.2050
 9747TIP3    H250733   4.893   0.034  14.860  2.6215 -1.0109 -0.1884
 9748TIP3   OH250734   4.088   2.029   4.466 -0.1410 -0.0585  0.2134
 9748TIP3    H150735   4.110   1.943   4.502  1.7331  0.0442 -0.6011
 9748TIP3    H250736   4.035   2.071   4.535  0.3705 -1.2026  1.3430
 9749TIP3   OH250737   6.672   3.582  16.332 -0.4509 -0.2684 -0.1771
 9749TIP3    H150738   6.730   3.593  16.407  0.5084 -0.6843 -0.8353
 9749TIP3    H250739   6.584   3.583  16.369 -0.0524  0.7402  0.8009
 9750TIP3   OH250740   0.376   4.004  11.254  0.1640 -0.5458 -0.0460
 9750TIP3    H150741   0.347   3.920  11.220 -0.1046 -0.1472 -0.8328
 9750TIP3    H250742   0.465   3.989  11.285 -0.1054 -1.2623  0.3983
 9751TIP3   OH250743   2.549   3.719   4.503 -0.2267  0.3327  0.0700
 9751TIP3    H150744   2.578   3.659   4.435  0.5621  1.0121 -0.2024
 9751TIP3    H250745   2.625   3.774   4.521 -0.8492  1.0695  0.5125
 9752TIP3   OH250746   1.833   2.242   5.375  0.4140  0.3168  0.2156
 9752TIP3    H150747   1.907   2.218   5.319  0.2315 -0.5214  0.3243
 9752TIP3    H250748   1.771   2.170   5.366  0.3913  0.1517  1.5263
 9753TIP3   OH250749   3.783   3.139  16.339 -0.1386  0.2496  0.3113
 9753TIP3    H150750   3.795   3.189  16.258 -1.0344  1.0641  0.6627
 9753TIP3    H250751   3.796   3.204  16.409 -1.8990  0.1454  0.7733
 9754TIP3   OH250752   0.961   1.325   0.192  0.2510 -0.2160 -0.1007
 9754TIP3    H150753   1.031   1.269   0.225  0.2139 -0.3236 -0.2039
 9754TIP3    H250754   0.921   1.275   0.121  0.5376  0.1448 -0.5244
 9755TIP3   OH250755   6.328   6.169  15.781 -0.7637 -0.0470 -0.2439
 9755TIP3    H150756   6.321   6.227  15.706 -0.4900 -0.7261 -0.8010
 9755TIP3    H250757   6.385   6.099  15.752 -0.8403 -0.4389  0.5250
 9756TIP3   OH250758   6.623   0.615   0.270 -0.3962 -0.3474 -0.4147
 9756TIP3    H150759   6.534   0.650   0.277 -0.9241 -0.9914 -2.9995
 9756TIP3    H250760   6.633   0.558   0.347  0.0524  4.1553  3.3379
 9757TIP3   OH250761   4.949   3.243   6.066  0.0104  0.3015 -0.1395
 9757TIP3    H150762   5.033   3.239   6.020 -0.1545  1.6221 -0.6009
 9757TIP3    H250763   4.907   3.323   6.034 -0.3744  0.9713  1.8609
 9758TIP3   OH250764   1.593   1.111  13.654 -0.5843  0.0508  0.2790
 9758TIP3    H150765   1.549   1.145  13.731  0.8554  0.3615  1.0067
 9758TIP3    H250766   1.680   1.152  13.656 -0.3067 -0.4009 -1.1723
 9759TIP3   OH250767   3.756   2.152   3.995  0.2985 -0.3995  0.5705
 9759TIP3    H150768   3.823   2.085   3.984  1.4692  0.6194  1.3509
 9759TIP3    H250769   3.755   2.199   3.911 -1.5266 -2.2041 -0.5223
 9760TIP3   OH250770   1.456   1.220   2.357 -0.0913  0.0319 -0.0767
 9760TIP3    H150771   1.421   1.190   2.273  2.4500  1.8893 -1.9475
 9760TIP3    H250772   1.504   1.146   2.392 -1.5533 -0.9057  0.0125
 9761TIP3   OH250773   1.543   5.455   2.715  0.5475  0.1801 -0.4724
 9761TIP3    H150774   1.587   5.539   2.728  0.6156 -0.1081  1.4617
 9761TIP3    H250775   1.456   5.478   2.682  0.7090  0.9846 -0.3580
 9762TIP3   OH250776   4.295   0.657   4.513  0.1300 -0.2684 -0.4575
 9762TIP3    H150777   4.375   0.688   4.556  1.2748 -2.5110 -0.8247
 9762TIP3    H250778   4.278   0.572   4.553 -1.5241 -0.2764 -1.1131
 9763TIP3   OH250779   2.755   1.057   3.150  0.0131  0.2094  0.0392
 9763TIP3    H150780   2.815   0.999   3.103  2.1776  1.0190  1.6236
 9763TIP3    H250781   2.800   1.077   3.232 -2.3781  1.0604  1.2449
 9764TIP3   OH250782   5.515   6.354  14.861 -0.2201 -0.5501  0.5250
 9764TIP3    H150783   5.589   6.389  14.811 -0.5261  0.6118  0.8664
 9764TIP3    H250784   5.515   6.261  14.840 -0.1726 -0.1566 -1.4522
 9765TIP3   OH250785   3.932   0.125   0.660 -0.0412 -0.2173 -0.3355
 9765TIP3    H150786   3.948   0.111   0.753  0.0163  1.8787  0.0068
 9765TIP3    H250787   4.017   0.108   0.618 -0.2029 -1.7355 -0.1306
 9766TIP3   OH250788   2.560   3.386  17.150 -0.4319  0.6532  0.0945
 9766TIP3    H150789   2.641   3.399  17.101  1.5079  0.3051  3.0071
 9766TIP3    H250790   2.526   3.302  17.118  1.2722 -0.0367  0.0102
 9767TIP3   OH250791   0.426   3.580  15.283 -0.0524 -0.2609 -0.4391
 9767TIP3    H150792   0.510   3.566  15.239  0.8211  0.8031  0.8018
 9767TIP3    H250793   0.442   3.555  15.374 -1.2277 -0.4850 -0.2771
 9768TIP3   OH250794   3.446   4.814   2.800 -0.1929  0.7131  0.3820
 9768TIP3    H150795   3.394   4.830   2.879  0.9486 -0.6334  1.4514
 9768TIP3    H250796   3.534   4.845   2.822  0.0512  0.7109 -0.5204
 9769TIP3   OH250797   4.616   6.586   3.506  0.1425 -0.0502 -0.0983
 9769TIP3    H150798   4.595   6.506   3.554  0.4886  0.7458  1.4449
 9769TIP3    H250799   4.548   6.592   3.438 -1.1443 -0.5586  1.1092
 9770TIP3   OH250800   2.135   6.710   3.065  0.2579 -0.1358  0.7373
 9770TIP3    H150801   2.067   6.699   3.132  1.1260  0.3312  1.7337
 9770TIP3    H250802   2.144   6.805   3.057  1.7036 -0.1814  1.5955
 9771TIP3   OH250803   1.601   1.922   0.867  0.2608  0.4603  0.0327
 9771TIP3    H150804   1.669   1.903   0.932  0.7766  0.4291 -0.5082
 9771TIP3    H250805   1.619   1.861   0.796  0.0889  0.9345 -0.4169
 9772TIP3   OH250806   1.219   4.673  11.502 -0.1644 -0.0111 -0.3073
 9772TIP3    H150807   1.204   4.694  11.595  0.8104 -1.9293  0.3390
 9772TIP3    H250808   1.271   4.746  11.469  0.2809  0.2603  0.9268
 9773TIP3   OH250809   4.474   2.890  11.347 -0.1710 -0.4832 -0.2322
 9773TIP3    H150810   4.498   2.900  11.255 -0.8493 -0.3974 -0.4065
 9773TIP3    H250811   4.546   2.840  11.386 -0.6577 -1.9696 -1.1728
 9774TIP3   OH250812   6.103   1.704   3.412 -0.2252  0.1926  0.4997
 9774TIP3    H150813   6.053   1.633   3.372 -0.7281 -0.2525  1.8428
 9774TIP3    H250814   6.182   1.661   3.446 -0.1862  0.4087  0.6863
 9775TIP3   OH250815   1.481   3.698   2.167 -0.6682  0.7587  0.0355
 9775TIP3    H150816   1.528   3.737   2.241  0.0132 -0.3857  0.2288
 9775TIP3    H250817   1.542   3.705   2.094 -0.6273  0.2870  0.0185
 9776TIP3   OH250818   2.846   2.710  15.958  0.2790 -0.3786 -0.3457
 9776TIP3    H150819   2.778   2.644  15.970 -0.6145  0.2475 -1.7307
 9776TIP3    H250820   2.926   2.660  15.945 -0.3396 -1.1999 -1.1144
 9777TIP3   OH250821   3.660   0.510   4.278  0.0499  0.1412 -0.2467
 9777TIP3    H150822   3.753   0.501   4.296  0.5294  0.1267 -2.4278
 9777TIP3    H250823   3.641   0.602   4.295  0.3173  0.0271  0.7195
 9778TIP3   OH250824   4.912   6.360  15.527  0.5792  0.2171  0.3196
 9778TIP3    H150825   4.970   6.284  15.520 -0.0469 -0.2240 -0.2009
 9778TIP3    H250826   4.850   6.337  15.596  1.3061  0.8995  1.2382
 9779TIP3   OH250827   0.366   4.778   4.268 -0.0910 -0.6048 -0.4608
 9779TIP3    H150828   0.421   4.855   4.260 -1.0479  0.0070 -1.5109
 9779TIP3    H250829   0.402   4.729   4.342  1.1656  0.3149 -0.4477
 9780TIP3   OH250830   2.544   2.866   5.310  0.3640 -0.3622  0.1866
 9780TIP3    H150831   2.618   2.866   5.248  0.0621 -0.2805 -0.1771
 9780TIP3    H250832   2.578   2.911   5.387  0.3367  0.7544 -0.4254
 9781TIP3   OH250833   1.282   6.734   3.742 -0.5091 -0.1886 -0.2689
 9781TIP3    H150834   1.377   6.728   3.733 -0.3978  0.1406  0.6391
 9781TIP3    H250835   1.249   6.675   3.674  0.3446 -0.5046 -0.4327
 9782TIP3   OH250836   5.910   3.221   5.603 -0.6778  0.4269 -0.3386
 9782TIP3    H150837   6.000   3.218   5.572 -0.6001 -1.1130 -0.0328
 9782TIP3    H250838   5.859   3.187   5.529 -0.8405 -0.0719 -0.0024
 9783TIP3   OH250839   4.024   6.396   0.160 -0.5827  0.0727  0.4784
 9783TIP3    H150840   4.067   6.360   0.083 -1.8807 -1.3962  0.3941
 9783TIP3    H250841   4.042   6.332   0.229 -2.0906 -0.2762  0.5763
 9784TIP3   OH250842   3.904   0.570   3.267 -0.2426  0.1611  0.2117
 9784TIP3    H150843   3.930   0.559   3.176 -1.6628  1.6766 -0.4290
 9784TIP3    H250844   3.861   0.488   3.290  0.9105 -0.5677 -0.1926
 9785TIP3   OH250845   4.566   4.665  13.058 -0.0395  1.0974  0.1631
 9785TIP3    H150846   4.596   4.749  13.092  0.8953  1.5562 -1.6750
 9785TIP3    H250847   4.510   4.687  12.984 -1.4187  0.1093  0.8440
 9786TIP3   OH250848   4.938   5.408   1.032 -0.1115  0.0979  0.0589
 9786TIP3    H150849   4.911   5.317   1.040 -0.4938  0.2771  0.8575
 9786TIP3    H250850   4.859   5.454   1.005 -0.2269  0.3783  0.8514
 9787TIP3   OH250851   5.912   4.283  10.745  0.4590 -0.5527 -0.4816
 9787TIP3    H150852   5.994   4.331  10.744 -0.0961  0.4137 -0.5556
 9787TIP3    H250853   5.848   4.343  10.708 -0.6856 -0.5538  1.3661
 9788TIP3   OH250854   5.190   6.387  11.160  0.3187  0.1923  0.0158
 9788TIP3    H150855   5.106   6.354  11.128  0.1641 -0.6028  1.1619
 9788TIP3    H250856   5.232   6.310  11.201  0.3881  1.1795  1.8923
 9789TIP3   OH250857   4.899   3.131  11.176  0.3621  0.2425 -0.0193
 9789TIP3    H150858   4.983   3.138  11.131 -0.2910  1.9380 -1.0849
 9789TIP3    H250859   4.837   3.109  11.107 -0.7008  3.1010 -0.1080
 9790TIP3   OH250860   0.567   5.089  14.035 -0.2750 -0.7795  0.2635
 9790TIP3    H150861   0.607   5.175  14.051 -1.0115 -0.4611  0.4284
 9790TIP3    H250862   0.626   5.047  13.972  0.7256 -0.6335  1.0717
 9791TIP3   OH250863   3.552   5.614  12.316  0.4346 -0.1018 -0.0949
 9791TIP3    H150864   3.528   5.691  12.368  2.0754  0.6461 -0.3952
 9791TIP3    H250865   3.640   5.634  12.283  1.4831 -2.6488  0.9071
 9792TIP3   OH250866   3.977   0.048  13.759 -0.6883  1.0012  0.3067
 9792TIP3    H150867   3.955   0.046  13.666  0.0002  1.0833  0.1347
 9792TIP3    H250868   4.012  -0.039  13.777 -0.6533  1.0441  0.4447
 9793TIP3   OH250869   2.246   1.498  11.613  0.0417  0.2255  0.3160
 9793TIP3    H150870   2.234   1.564  11.680 -3.0213  0.1378 -0.0060
 9793TIP3    H250871   2.172   1.438  11.624  1.0744 -1.4713 -1.2868
 9794TIP3   OH250872   2.778   3.156   4.045  0.2282 -0.1251  0.0298
 9794TIP3    H150873   2.765   3.247   4.019  0.6325 -0.0340  0.1457
 9794TIP3    H250874   2.850   3.125   3.990 -1.2973 -1.0280 -1.5658
 9795TIP3   OH250875   2.786   1.201   2.815 -0.1116  0.5489 -0.3223
 9795TIP3    H150876   2.791   1.271   2.880 -0.4483  1.3161 -1.0964
 9795TIP3    H250877   2.707   1.221   2.764  0.7957  0.6692 -1.7324
 9796TIP3   OH250878   0.180   2.237  14.961  0.2473  0.1800  0.3072
 9796TIP3    H150879   0.214   2.324  14.941  3.5386 -0.6284  1.7258
 9796TIP3    H250880   0.179   2.233  15.057 -0.1558 -1.2364  0.2646
 9797TIP3   OH250881   1.675   1.646   4.572 -0.2818  0.0360 -0.4426
 9797TIP3    H150882   1.680   1.741   4.582 -2.0943  0.1536 -0.4117
 9797TIP3    H250883   1.583   1.628   4.556  0.1057 -1.6839 -0.9663
 9798TIP3   OH250884   1.276   1.200   5.432 -0.3689 -0.2790  0.7350
 9798TIP3    H150885   1.206   1.265   5.424 -0.3164 -0.0425  1.9326
 9798TIP3    H250886   1.229   1.118   5.447 -0.4133 -0.3660  0.1427
 9799TIP3   OH250887   6.676   3.935   5.725  0.4996 -0.2090 -0.1509
 9799TIP3    H150888   6.674   4.022   5.765  1.3075 -0.5092  0.5666
 9799TIP3    H250889   6.641   3.949   5.637  1.2442  0.9793 -0.2885
 9800TIP3   OH250890   5.404   6.310   3.109  0.1687 -0.4526 -0.1636
 9800TIP3    H150891   5.479   6.308   3.049  1.4376 -1.0017  1.3535
 9800TIP3    H250892   5.436   6.361   3.184 -1.3434  0.1540  0.0947
 9801TIP3   OH250893   2.319   2.151   0.201 -0.0242 -0.0429 -0.1939
 9801TIP3    H150894   2.253   2.121   0.264 -0.1153  1.6380  0.5703
 9801TIP3    H250895   2.273   2.216   0.148  0.1802 -1.1132 -1.7447
 9802TIP3   OH250896   5.003   5.375   3.959 -0.1446 -0.2725  0.1495
 9802TIP3    H150897   4.989   5.433   3.883  0.9056 -2.4186 -1.8141
 9802TIP3    H250898   5.050   5.429   4.022 -0.9235  1.5671 -0.7588
 9803TIP3   OH250899   3.825   0.810   3.380  0.6030  0.0120 -0.2390
 9803TIP3    H150900   3.828   0.801   3.476 -0.4475 -1.1312 -0.2831
 9803TIP3    H250901   3.860   0.727   3.347  0.0058 -0.0159 -0.8284
 9804TIP3   OH250902   3.239   5.624  11.039  0.0732 -0.0687 -0.0148
 9804TIP3    H150903   3.204   5.691  11.097  0.0177 -1.6140  1.8168
 9804TIP3    H250904   3.334   5.637  11.041  0.0071  0.4867 -0.3629
 9805TIP3   OH250905   3.141   2.353  12.086 -0.4338  0.1913 -0.1018
 9805TIP3    H150906   3.190   2.314  12.158 -0.8012 -0.3293 -0.1340
 9805TIP3    H250907   3.101   2.432  12.124  1.4171  1.3304 -0.3824
 9806TIP3   OH250908   5.077   2.230   2.150  0.4839  0.0048  0.1271
 9806TIP3    H150909   4.992   2.249   2.191  0.0686 -0.9888 -0.2223
 9806TIP3    H250910   5.097   2.308   2.098  0.8186  1.1093  1.8640
 9807TIP3   OH250911   4.587   5.041  13.737 -0.3102 -0.1483 -0.5174
 9807TIP3    H150912   4.503   5.002  13.762 -0.8053  0.2570 -1.4673
 9807TIP3    H250913   4.615   4.990  13.661  0.5000 -0.5175  0.0195
 9808TIP3   OH250914   6.148   3.664  15.471 -0.0349  0.5471  0.1611
 9808TIP3    H150915   6.074   3.652  15.412  0.0054 -0.8598  0.3549
 9808TIP3    H250916   6.220   3.618  15.427  0.3091  0.5546  0.7138
 9809TIP3   OH250917   6.264   0.824   4.268  0.0328 -0.8002 -0.1820
 9809TIP3    H150918   6.242   0.917   4.263  1.0774 -0.4545  1.0104
 9809TIP3    H250919   6.179   0.780   4.273 -0.5099  0.3237  2.2647
 9810TIP3   OH250920   1.635   2.529   1.979 -0.4242  0.1111  0.2426
 9810TIP3    H150921   1.727   2.554   1.985 -0.4455  0.6961 -1.3288
 9810TIP3    H250922   1.627   2.452   2.035  0.8693  0.4497  0.9269
 9811TIP3   OH250923   1.533   5.430  14.379  0.3454 -0.1785 -0.2078
 9811TIP3    H150924   1.519   5.377  14.301  0.0239 -0.0096 -0.2660
 9811TIP3    H250925   1.480   5.389  14.447 -0.0093  0.1435 -0.2886
 9812TIP3   OH250926   3.232   1.213  17.102  0.1652 -0.0998  0.1608
 9812TIP3    H150927   3.260   1.175  17.019  0.5475 -0.7943  0.5975
 9812TIP3    H250928   3.303   1.272  17.127  0.4294 -0.5106  0.3912
 9813TIP3   OH250929   2.021   0.999  11.853  0.4597  0.5640  0.0765
 9813TIP3    H150930   1.989   0.912  11.828  1.6505 -0.0891  0.7623
 9813TIP3    H250931   1.974   1.019  11.934  0.6604  0.2686  0.2680
 9814TIP3   OH250932   4.101   6.653  15.119  0.2460 -0.5439  0.3766
 9814TIP3    H150933   4.027   6.708  15.094  2.0348  1.5449 -0.6497
 9814TIP3    H250934   4.118   6.597  15.043  0.5362 -0.0745  0.0934
 9815TIP3   OH250935   5.048   6.432  14.254  0.5676  0.3760  0.1121
 9815TIP3    H150936   5.098   6.408  14.176  0.3176 -0.4287  0.1911
 9815TIP3    H250937   5.038   6.527  14.248  1.6498  0.4791 -0.1751
 9816TIP3   OH250938   0.164   6.801   4.746 -0.1902  0.8966  0.0009
 9816TIP3    H150939   0.087   6.762   4.788 -0.1984  1.2061  0.2738
 9816TIP3    H250940   0.199   6.731   4.691  0.8405 -0.0858  1.8400
 9817TIP3   OH250941   6.733   3.921  14.182  0.0355 -0.0285  0.2611
 9817TIP3    H150942   6.786   3.843  14.168 -0.2981  0.0441 -1.5559
 9817TIP3    H250943   6.646   3.898  14.151 -0.5361  0.4856  1.4287
 9818TIP3   OH250944   1.713   4.173   4.078  0.2225 -0.6760 -0.6201
 9818TIP3    H150945   1.765   4.161   4.157 -0.1621  0.8973 -0.0948
 9818TIP3    H250946   1.662   4.093   4.070  1.0816 -1.3123  0.0869
 9819TIP3   OH250947   4.746   5.560   5.111 -0.2147  0.4182 -0.5144
 9819TIP3    H150948   4.688   5.497   5.069 -5.5043  4.3159 -0.0460
 9819TIP3    H250949   4.800   5.594   5.040 -0.9312 -0.9725 -1.7792
 9820TIP3   OH250950   1.303   4.098   0.388  0.3101  0.1995 -0.3359
 9820TIP3    H150951   1.308   4.186   0.348  0.5563 -0.0615 -0.8959
 9820TIP3    H250952   1.250   4.110   0.466  0.1743  0.8149 -0.5171
 9821TIP3   OH250953   1.688   3.223  13.026  0.1613  0.1274  0.0724
 9821TIP3    H150954   1.665   3.253  13.114  0.8213 -1.1654  0.7091
 9821TIP3    H250955   1.607   3.185  12.991  0.3709 -1.1240  0.8946
 9822TIP3   OH250956   1.093   6.511  12.379  0.1441  0.1938  0.1482
 9822TIP3    H150957   1.119   6.557  12.458 -0.7471 -0.5221  0.8869
 9822TIP3    H250958   1.150   6.546  12.310  3.3366 -1.5479  1.6737
 9823TIP3   OH250959   2.071   6.219  14.328 -0.1455 -0.5831  0.1817
 9823TIP3    H150960   2.022   6.290  14.368 -1.0234 -1.2459  0.3136
 9823TIP3    H250961   2.066   6.147  14.391  1.2409 -0.5910  0.3220
 9824TIP3   OH250962   6.244   4.500   5.302 -0.0050  0.6594  0.2287
 9824TIP3    H150963   6.180   4.493   5.231  1.1785  0.7660 -0.8728
 9824TIP3    H250964   6.238   4.416   5.348  0.9135 -0.3748 -1.4770
 9825TIP3   OH250965   1.901   3.785   2.986 -0.2919 -0.0905 -0.3440
 9825TIP3    H150966   1.822   3.733   2.978  0.4795 -1.2361 -0.8713
 9825TIP3    H250967   1.969   3.722   3.009  0.6454  0.7032 -0.8458
 9826TIP3   OH250968   5.384   1.524  13.810  0.4630  0.1886  0.3585
 9826TIP3    H150969   5.334   1.603  13.788  1.9514  0.2444 -3.7011
 9826TIP3    H250970   5.468   1.557  13.841  0.2364  0.1643  1.0014
 9827TIP3   OH250971   3.880   3.848   4.542 -0.6136  0.5672 -0.3220
 9827TIP3    H150972   3.803   3.895   4.510 -1.7355 -0.7922  0.2860
 9827TIP3    H250973   3.929   3.914   4.591 -1.6472  1.3527 -0.3004
 9828TIP3   OH250974   2.655   6.435  13.390  0.0768 -0.4409 -0.0611
 9828TIP3    H150975   2.614   6.360  13.432 -1.3843  1.1058  1.4220
 9828TIP3    H250976   2.739   6.401  13.358 -0.5611 -2.6968  0.4794
 9829TIP3   OH250977   5.943   4.306  12.842 -0.0410 -0.2057  0.1698
 9829TIP3    H150978   5.943   4.334  12.750  0.6048 -1.0721 -0.1098
 9829TIP3    H250979   6.033   4.319  12.870 -0.7691  2.7337  1.5807
 9830TIP3   OH250980   2.605   2.404  10.706  0.0201  0.0042  0.6584
 9830TIP3    H150981   2.698   2.388  10.686 -0.2786 -0.5344 -0.3875
 9830TIP3    H250982   2.563   2.318  10.695 -0.9436  0.6422 -1.0227
 9831TIP3   OH250983   2.063   0.530  15.463 -0.3360  0.4897  0.2815
 9831TIP3    H150984   2.155   0.557  15.469 -0.2621  0.3027 -0.0353
 9831TIP3    H250985   2.033   0.528  15.554 -0.0603  0.6629  0.3777
 9832TIP3   OH250986   3.450   2.544  16.316  0.0633 -0.0804  0.4075
 9832TIP3    H150987   3.543   2.531  16.333 -0.0687 -1.1022  0.3923
 9832TIP3    H250988   3.410   2.549  16.403  0.5553  4.2460  0.6181
 9833TIP3   OH250989   0.147   6.059   6.606 -0.2957  0.3101 -0.0599
 9833TIP3    H150990   0.228   6.012   6.589  0.3621  0.9022  1.3198
 9833TIP3    H250991   0.127   6.104   6.523  0.4936 -0.2574 -0.5650
 9834TIP3   OH250992   1.546   0.052  15.413  0.3911 -0.1796  0.4122
 9834TIP3    H150993   1.467   0.013  15.376  0.7443  1.4654 -2.3732
 9834TIP3    H250994   1.515   0.130  15.458  0.4068  1.2106 -1.8112
 9835TIP3   OH250995   2.303   2.291   3.368 -0.1643  0.1731 -0.5475
 9835TIP3    H150996   2.293   2.263   3.459 -0.0778 -2.5442 -1.2998
 9835TIP3    H250997   2.220   2.268   3.327 -0.0262  0.9432 -1.2880
 9836TIP3   OH250998   5.818   5.374   2.385 -0.2604  0.2281 -0.4196
 9836TIP3    H150999   5.755   5.305   2.406  1.6151 -1.1178  1.2632
 9836TIP3    H251000   5.772   5.432   2.326 -2.3800 -1.7922 -0.8998
 9837TIP3   OH251001   3.834   5.578  11.787 -0.6625  0.2718  0.0958
 9837TIP3    H151002   3.844   5.483  11.783  1.5590  0.4976 -1.1269
 9837TIP3    H251003   3.761   5.596  11.727  0.3462 -0.5232 -1.4346
 9838TIP3   OH251004   4.345   0.622   4.890  0.7095 -0.4258  0.1485
 9838TIP3    H151005   4.393   0.543   4.867  0.4010 -0.8863  1.0324
 9838TIP3    H251006   4.379   0.647   4.976 -1.1852 -1.2723  1.2320
 9839TIP3   OH251007   1.399   3.970   0.683  0.0612 -0.1097  0.1648
 9839TIP3    H151008   1.306   3.992   0.674  0.3083  0.8260 -0.2389
 9839TIP3    H251009   1.442   4.054   0.699  0.7007 -0.6863  1.6318
 9840TIP3   OH251010   3.824   3.438  13.328 -0.1730 -0.5061 -0.3106
 9840TIP3    H151011   3.806   3.379  13.254 -1.2391  0.6390 -1.0081
 9840TIP3    H251012   3.915   3.464  13.317 -0.8533  1.2507 -2.4566
 9841TIP3   OH251013   4.541   2.805   0.748 -0.0051  0.1059 -0.1725
 9841TIP3    H151014   4.572   2.842   0.831  2.2201 -0.1752 -0.8252
 9841TIP3    H251015   4.477   2.739   0.774 -0.0534  0.6876  1.2716
 9842TIP3   OH251016   0.918   6.437  15.763  0.0997  0.1717  0.0744
 9842TIP3    H151017   0.931   6.405  15.673 -1.3660 -0.4418  0.0567
 9842TIP3    H251018   0.978   6.511  15.770  0.1072  0.3596 -1.4778
 9843TIP3   OH251019   4.167   3.671  12.179 -0.3039  0.6241 -0.1060
 9843TIP3    H151020   4.228   3.614  12.225  1.4147  1.5268 -1.1679
 9843TIP3    H251021   4.086   3.621  12.174 -0.3967  0.1770  3.2017
 9844TIP3   OH251022   4.434   4.067  16.093  0.4571  0.2104 -0.5479
 9844TIP3    H151023   4.520   4.088  16.056  0.5486 -0.6008 -0.8164
 9844TIP3    H251024   4.431   3.971  16.092  0.1535  0.1960  0.8601
 9845TIP3   OH251025   1.041   4.126  16.455  0.3196  0.8201 -0.3006
 9845TIP3    H151026   0.993   4.155  16.378 -1.5300  0.4656  0.6688
 9845TIP3    H251027   1.100   4.058  16.423 -0.5197  0.5798 -1.3724
 9846TIP3   OH251028   4.592   0.661  14.781 -0.2167 -0.1268 -0.1672
 9846TIP3    H151029   4.593   0.614  14.697  3.7595 -0.4557 -0.1229
 9846TIP3    H251030   4.576   0.752  14.757  1.8126 -0.0616 -1.4815
 9847TIP3   OH251031   4.608   1.843  16.062  0.9515  0.4283 -1.0144
 9847TIP3    H151032   4.614   1.748  16.053  0.5705  0.5078 -2.2991
 9847TIP3    H251033   4.526   1.867  16.020  1.0634  1.3324 -0.7497
 9848TIP3   OH251034   5.781   5.630  12.567  0.5386 -0.0626  0.3640
 9848TIP3    H151035   5.810   5.663  12.482 -0.1887  1.5936  0.7113
 9848TIP3    H251036   5.699   5.584  12.549  0.3716  0.3083  0.1677
 9849TIP3   OH251037   2.741   0.275   5.358  0.4047  0.6922  0.2531
 9849TIP3    H151038   2.727   0.361   5.319  0.4851  0.8732  0.6164
 9849TIP3    H251039   2.835   0.260   5.350  1.0746  2.3134  3.5376
 9850TIP3   OH251040   1.945   2.111  11.878  0.0791  0.1329 -0.2799
 9850TIP3    H151041   1.955   2.030  11.928 -0.5134 -1.0236 -1.9355
 9850TIP3    H251042   2.028   2.123  11.832 -0.6721 -1.0216 -2.0548
 9851TIP3   OH251043   4.360   5.270   3.828  0.1644  0.0840 -0.1207
 9851TIP3    H151044   4.284   5.212   3.819 -0.2207  0.1037  2.3769
 9851TIP3    H251045   4.433   5.210   3.846  0.7749  0.0836 -2.2802
 9852TIP3   OH251046   2.141   2.329   5.180  0.3711 -0.2457  0.4481
 9852TIP3    H151047   2.191   2.401   5.141 -1.2433  1.0423  0.6484
 9852TIP3    H251048   2.061   2.324   5.127 -0.5664 -0.3678  1.8382
 9853TIP3   OH251049   6.708   2.813  14.264 -0.0138  0.3259  0.2701
 9853TIP3    H151050   6.782   2.869  14.239 -0.5558  1.8805  1.9768
 9853TIP3    H251051   6.729   2.783  14.352 -1.1979  0.4186  0.6039
 9854TIP3   OH251052   6.380   4.990   5.967 -0.4165  0.0135 -0.4594
 9854TIP3    H151053   6.346   4.902   5.984 -1.7715  0.3700 -1.1501
 9854TIP3    H251054   6.351   5.042   6.042  2.5014 -0.5852  1.2373
 9855TIP3   OH251055   4.963   1.019  15.305 -0.1989  0.0436  0.2214
 9855TIP3    H151056   4.936   1.097  15.256 -0.3561  0.2566  0.6395
 9855TIP3    H251057   4.883   0.988  15.347 -0.7374 -1.9060 -2.0282
 9856TIP3   OH251058   5.647   3.422   2.453  0.0279 -0.4713  0.1010
 9856TIP3    H151059   5.575   3.394   2.510 -0.5870  1.0746  0.1446
 9856TIP3    H251060   5.709   3.465   2.512 -1.0312  1.9492 -0.4129
 9857TIP3   OH251061   2.137   4.274  14.210 -0.2902 -0.7688 -0.3658
 9857TIP3    H151062   2.157   4.262  14.117  0.0399 -2.9320 -0.0791
 9857TIP3    H251063   2.042   4.264  14.216 -0.4112  0.1454 -0.5363
 9858TIP3   OH251064   2.241   2.636  11.011 -0.1570  0.1159 -0.1297
 9858TIP3    H151065   2.267   2.544  11.013 -1.0657 -0.1605  2.1214
 9858TIP3    H251066   2.148   2.635  11.033  0.4559  1.6491  3.2449
 9859TIP3   OH251067   0.573   5.517   2.186 -0.1314  0.3186  0.1105
 9859TIP3    H151068   0.504   5.521   2.120 -0.8659  0.4571  0.8683
 9859TIP3    H251069   0.531   5.544   2.267  0.9570  0.9582  0.4886
 9860TIP3   OH251070   2.316   1.554  13.133  0.1836  0.2359  0.2334
 9860TIP3    H151071   2.301   1.629  13.191 -0.2057  0.3389 -0.0019
 9860TIP3    H251072   2.266   1.574  13.054 -2.5264 -1.6897  1.3344
 9861TIP3   OH251073   1.551   6.742   3.715 -0.7367 -0.2149 -0.4442
 9861TIP3    H151074   1.645   6.760   3.707 -0.4978 -0.0392  2.1447
 9861TIP3    H251075   1.531   6.686   3.640  1.8461 -1.8009 -0.0628
 9862TIP3   OH251076   3.619   5.780  15.613  0.4701  0.5547 -0.3473
 9862TIP3    H151077   3.524   5.783  15.600  0.5085  1.0732 -0.5117
 9862TIP3    H251078   3.642   5.688  15.597 -0.1417  0.1951  0.6837
 9863TIP3   OH251079   1.546   6.486  12.124 -0.2722 -0.0602 -0.3587
 9863TIP3    H151080   1.531   6.392  12.128  0.0729 -0.0931  0.3901
 9863TIP3    H251081   1.635   6.498  12.157 -0.0114  0.4606 -1.2199
 9864TIP3   OH251082   1.005   2.616   3.214 -0.1996 -0.2240  0.1558
 9864TIP3    H151083   1.089   2.620   3.167 -0.6703 -0.8124 -0.7552
 9864TIP3    H251084   1.018   2.673   3.290  0.2438  1.6573 -1.2400
 9865TIP3   OH251085   3.515   6.777  15.357  0.4863 -0.1974  0.7764
 9865TIP3    H151086   3.606   6.760  15.380 -0.3583 -2.5138  2.8310
 9865TIP3    H251087   3.477   6.814  15.436 -0.1899  1.7060 -0.3842
 9866TIP3   OH251088   1.184   0.244  11.650  0.1238 -0.1314  0.0659
 9866TIP3    H151089   1.102   0.229  11.601 -0.1117 -1.8290  0.9204
 9866TIP3    H251090   1.253   0.217  11.589 -0.1851 -2.6027  0.6862
 9867TIP3   OH251091   4.262   5.741  14.251  0.2759  0.0208 -0.4878
 9867TIP3    H151092   4.222   5.776  14.171  0.2942  0.7510 -0.1880
 9867TIP3    H251093   4.347   5.707  14.222 -0.8642 -2.3109 -1.2834
 9868TIP3   OH251094   2.785   4.530  15.036 -0.1127 -0.3566 -0.1169
 9868TIP3    H151095   2.743   4.613  15.058  1.1588 -0.2095  1.9815
 9868TIP3    H251096   2.791   4.532  14.940  0.9646  2.5736 -0.1088
 9869TIP3   OH251097   5.008   4.966   5.787  0.3918 -0.4025  0.1142
 9869TIP3    H151098   5.003   4.901   5.857  2.2275 -0.5939  0.1140
 9869TIP3    H251099   4.920   4.966   5.749 -0.6390 -0.3593  2.3289
 9870TIP3   OH251100   1.519   3.263   5.655  0.9429 -0.2911 -0.2709
 9870TIP3    H151101   1.541   3.335   5.596 -0.5073  0.6975  0.3363
 9870TIP3    H251102   1.451   3.214   5.608 -1.9841  1.8702  1.4134
 9871TIP3   OH251103   4.152   1.671   1.475  0.2991  0.2758  0.3536
 9871TIP3    H151104   4.113   1.619   1.405 -0.1682 -0.1955  0.9639
 9871TIP3    H251105   4.089   1.741   1.492 -0.8292 -1.1084  2.0890
 9872TIP3   OH251106   6.711   2.095   3.287 -0.0847  0.1589  0.1297
 9872TIP3    H151107   6.801   2.104   3.317  0.0427  0.0843 -0.2298
 9872TIP3    H251108   6.710   2.014   3.236 -0.5663 -0.3444  0.8999
 9873TIP3   OH251109   5.608   6.695   4.140  0.1722 -0.4729  0.1193
 9873TIP3    H151110   5.679   6.676   4.202  1.1227 -2.8113 -1.5381
 9873TIP3    H251111   5.652   6.712   4.057 -1.1299  1.1360 -0.2965
 9874TIP3   OH251112   6.642   4.513  14.555 -0.7227 -0.2974 -0.7730
 9874TIP3    H151113   6.732   4.532  14.581 -0.0732 -0.8089 -2.4767
 9874TIP3    H251114   6.594   4.505  14.637  0.9960 -1.0457  0.2113
 9875TIP3   OH251115   5.887   4.558  15.705 -0.8382 -0.6324 -0.5483
 9875TIP3    H151116   5.839   4.623  15.654  0.4521  0.2417 -0.7041
 9875TIP3    H251117   5.945   4.516  15.642  1.0534  0.7211  0.1675
 9876TIP3   OH251118   5.734   5.020  11.999  0.0153 -0.2979 -0.0091
 9876TIP3    H151119   5.643   5.014  11.971  0.8134  0.4137 -3.0967
 9876TIP3    H251120   5.767   4.930  11.992 -0.3353 -0.5106  0.8720
 9877TIP3   OH251121   5.153   2.020   0.738 -0.6146 -0.0354 -0.6097
 9877TIP3    H151122   5.120   2.100   0.698  1.6084  1.5152  0.4327
 9877TIP3    H251123   5.079   1.960   0.738 -2.3794  2.0438 -1.3860
 9878TIP3   OH251124   0.767   5.308   5.117  0.0183 -0.5265  0.3737
 9878TIP3    H151125   0.836   5.374   5.117 -0.4768  0.0010 -0.0156
 9878TIP3    H251126   0.705   5.337   5.184 -1.4859  0.8200 -1.4728
 9879TIP3   OH251127   0.571   3.092  12.875  0.2624 -0.3389  0.1182
 9879TIP3    H151128   0.568   3.092  12.971  0.9620 -0.2048  0.1447
 9879TIP3    H251129   0.564   3.000  12.851 -0.9116 -0.2976  0.2555
 9880TIP3   OH251130   5.257   0.051   3.981 -0.6833  0.1720 -0.0605
 9880TIP3    H151131   5.280  -0.022   3.924  0.9164  1.0287 -0.5572
 9880TIP3    H251132   5.255   0.012   4.069  0.6654 -0.3945 -0.2465
 9881TIP3   OH251133   0.138   1.970   3.921 -0.1846 -0.3383  0.1126
 9881TIP3    H151134   0.146   2.045   3.862 -2.2365  0.0587  0.2860
 9881TIP3    H251135   0.136   1.894   3.863 -1.2322 -0.0179 -0.2939
 9882TIP3   OH251136   1.000   2.172  14.454  0.3829 -0.2048  0.0414
 9882TIP3    H151137   0.916   2.167  14.500 -0.6534 -0.3491 -1.7744
 9882TIP3    H251138   1.011   2.264  14.434  1.5576  0.0837  1.7549
 9883TIP3   OH251139   6.144   4.060   4.946 -0.0452 -0.4986 -0.5406
 9883TIP3    H151140   6.057   4.042   4.910 -0.5037 -0.2280  0.4095
 9883TIP3    H251141   6.184   3.973   4.958 -1.1789 -0.7948  1.4149
 9884TIP3   OH251142   0.856   6.801  13.560  0.5937  0.9939  0.3521
 9884TIP3    H151143   0.917   6.788  13.488  1.4179  1.0936  1.0056
 9884TIP3    H251144   0.878   6.732  13.623 -0.8968  0.1821  0.0170
 9885TIP3   OH251145   4.454   5.193  14.074 -0.2864 -0.3926 -0.6281
 9885TIP3    H151146   4.362   5.171  14.092  0.1363 -2.5320 -0.8714
 9885TIP3    H251147   4.450   5.252  13.999 -1.4986  0.1977 -0.1288
 9886TIP3   OH251148   5.715   3.332  13.647  0.1700  0.4932  0.4910
 9886TIP3    H151149   5.774   3.256  13.646  1.6103  1.5431 -1.1226
 9886TIP3    H251150   5.639   3.303  13.597 -0.0682 -0.4098  1.3385
 9887TIP3   OH251151   5.602   3.112   3.326 -0.1492  0.3459  0.5044
 9887TIP3    H151152   5.539   3.041   3.338  0.4716  0.0606  2.2105
 9887TIP3    H251153   5.564   3.186   3.374  0.6588  0.2662  1.2775
 9888TIP3   OH251154   5.364   2.752  16.699 -0.0572 -0.1009  0.2339
 9888TIP3    H151155   5.390   2.827  16.645 -1.2148  0.4926  0.4835
 9888TIP3    H251156   5.287   2.716  16.655 -0.1632 -0.4804  0.7196
 9889TIP3   OH251157   5.420   3.742   1.282 -0.1991  0.1024  0.0326
 9889TIP3    H151158   5.328   3.728   1.261 -0.0128 -1.4473  0.0905
 9889TIP3    H251159   5.441   3.671   1.343  1.1690  0.1035 -0.4060
 9890TIP3   OH251160   1.103   3.071   4.725 -0.3189 -0.1091  0.2752
 9890TIP3    H151161   1.096   2.996   4.783  1.5034 -1.1895 -0.8140
 9890TIP3    H251162   1.193   3.102   4.735  0.7543 -1.5634 -3.2479
 9891TIP3   OH251163   0.104   1.691  16.251  0.1848 -0.0856  0.6355
 9891TIP3    H151164   0.162   1.647  16.189  0.4859  1.3921 -0.1928
 9891TIP3    H251165   0.045   1.623  16.282  1.5416 -1.3574  0.5181
 9892TIP3   OH251166   0.178   4.132  14.155  0.3346 -0.5078  0.2721
 9892TIP3    H151167   0.235   4.066  14.192 -0.5597 -1.9578 -0.8015
 9892TIP3    H251168   0.237   4.197  14.116  1.2376 -1.1956  0.4771
 9893TIP3   OH251169   4.384   6.358  13.306 -0.2745  0.2417 -0.4819
 9893TIP3    H151170   4.307   6.405  13.338 -1.1769 -1.3384 -0.2732
 9893TIP3    H251171   4.458   6.402  13.348 -1.2295  0.1099  1.3993
 9894TIP3   OH251172   4.559   1.663  14.256  0.3949 -0.3275 -0.5748
 9894TIP3    H151173   4.616   1.693  14.184 -0.5690  1.4012 -0.6838
 9894TIP3    H251174   4.594   1.706  14.334 -1.2019  1.4961 -0.7794
 9895TIP3   OH251175   0.991   2.510  16.662 -0.1472  0.0633  0.2550
 9895TIP3    H151176   0.905   2.499  16.704 -0.0064 -1.2419  0.2367
 9895TIP3    H251177   1.047   2.546  16.731 -0.7381  1.1126  0.2124
 9896TIP3   OH251178   4.923   1.574  17.089 -0.4619 -0.5817  0.5023
 9896TIP3    H151179   5.009   1.545  17.060 -1.6470 -0.6344 -3.6456
 9896TIP3    H251180   4.935   1.666  17.113  0.4710  0.0226 -1.9957
 9897TIP3   OH251181   4.368   1.533  14.924 -0.3051 -0.6997 -0.1481
 9897TIP3    H151182   4.297   1.582  14.882 -0.7957 -1.3161 -0.0599
 9897TIP3    H251183   4.424   1.506  14.851 -0.8996 -1.3607 -0.3734
 9898TIP3   OH251184   1.508   3.866  13.064  0.0033  0.3294 -0.1589
 9898TIP3    H151185   1.602   3.852  13.061 -0.2937 -1.9967 -0.0391
 9898TIP3    H251186   1.493   3.911  13.148  0.9620  0.3775 -0.0071
 9899TIP3   OH251187   2.753   5.367   1.536 -0.8970 -0.4659  0.5064
 9899TIP3    H151188   2.681   5.329   1.485 -1.0222  1.1155 -0.5649
 9899TIP3    H251189   2.832   5.335   1.493 -0.9430 -1.5862  1.2174
 9900TIP3   OH251190   0.858   2.491  13.492 -0.7636 -0.1138  0.4096
 9900TIP3    H151191   0.775   2.452  13.519 -1.2425  0.2221 -0.5109
 9900TIP3    H251192   0.842   2.519  13.401 -1.0389  3.7662  1.4648
 9901TIP3   OH251193   3.125   5.723   1.562  0.3415 -0.0767  0.5003
 9901TIP3    H151194   3.055   5.668   1.526 -0.2783  0.6489  0.5843
 9901TIP3    H251195   3.169   5.667   1.626  0.1585 -0.7028  0.0892
 9902TIP3   OH251196   0.065   2.593  14.412 -0.5667  0.1706 -0.5085
 9902TIP3    H151197   0.106   2.507  14.417 -0.1794  0.1916 -2.6134
 9902TIP3    H251198   0.116   2.648  14.472 -1.6434 -1.3133  1.9183
 9903TIP3   OH251199   5.343   3.106  15.468  0.4141 -0.0669 -0.4162
 9903TIP3    H151200   5.329   3.168  15.397 -2.3730 -0.1500 -0.0500
 9903TIP3    H251201   5.399   3.038  15.430  1.4706  1.3872 -1.5655
 9904TIP3   OH251202   2.538   5.845   5.376  0.3193 -0.0743 -0.1045
 9904TIP3    H151203   2.541   5.857   5.471  0.3835  0.9566 -0.2249
 9904TIP3    H251204   2.448   5.866   5.352  0.2696 -0.4565 -0.2612
 9905TIP3   OH251205   0.040   0.191  13.536  0.2502  0.3698  0.0130
 9905TIP3    H151206   0.023   0.192  13.630  0.7392  1.3021  0.1028
 9905TIP3    H251207   0.031   0.099  13.511  1.8702 -0.1885  1.2907
 9906TIP3   OH251208   4.296   1.366   1.187 -0.1152  0.2595 -0.5498
 9906TIP3    H151209   4.303   1.284   1.140  0.9637  0.5486 -0.9384
 9906TIP3    H251210   4.291   1.433   1.119  0.4339  0.6056 -0.2634
 9907TIP3   OH251211   5.532   6.802  11.732  0.0073 -0.4585 -0.4068
 9907TIP3    H151212   5.488   6.860  11.670 -0.0745 -0.5204 -0.4065
 9907TIP3    H251213   5.471   6.729  11.745 -0.5223  0.1552  0.6966
 9908TIP3   OH251214   3.057   0.811   6.022  0.4568  0.3063  0.4346
 9908TIP3    H151215   3.069   0.716   6.020 -0.2256  0.2103  0.4162
 9908TIP3    H251216   3.072   0.835   6.113  0.0741  0.0965  0.5548
 9909TIP3   OH251217   2.069   4.492   4.767  0.4507 -0.0283  0.4589
 9909TIP3    H151218   2.100   4.546   4.840 -2.2212 -0.3028  1.9284
 9909TIP3    H251219   2.062   4.404   4.804 -0.9071 -0.1826 -0.1115
 9910TIP3   OH251220   0.771   1.199   5.722  0.0848  0.1561 -0.1405
 9910TIP3    H151221   0.825   1.128   5.758  1.0928  1.2917  0.6690
 9910TIP3    H251222   0.714   1.225   5.794  0.5611  0.9597 -0.0398
 9911TIP3   OH251223   6.654   1.040   5.668  0.1715 -0.7458 -0.9586
 9911TIP3    H151224   6.606   1.081   5.596 -1.9908 -1.1214  0.1941
 9911TIP3    H251225   6.611   1.072   5.747 -2.1896 -5.5640  0.0704
 9912TIP3   OH251226   2.095   3.166  10.480  0.4523  0.1545  0.3431
 9912TIP3    H151227   2.141   3.152  10.563 -0.6122 -0.6132  0.8365
 9912TIP3    H251228   2.164   3.169  10.414  1.2409 -0.4211  1.1178
 9913TIP3   OH251229   2.504   5.048   1.309  0.0114  0.6066 -0.0771
 9913TIP3    H151230   2.469   5.035   1.221  0.5416  0.1159 -0.2269
 9913TIP3    H251231   2.443   5.002   1.366 -1.1566  2.1748 -0.0094
 9914TIP3   OH251232   5.133   0.633   4.672 -0.0174 -0.4388 -0.3158
 9914TIP3    H151233   5.069   0.703   4.653  0.2816 -0.7540 -2.9035
 9914TIP3    H251234   5.100   0.558   4.623  1.4929 -1.0812 -0.3731
 9915TIP3   OH251235   1.885   6.439   0.489  0.0116 -0.5095 -0.3002
 9915TIP3    H151236   1.900   6.501   0.561 -1.0045 -2.1958  1.4739
 9915TIP3    H251237   1.973   6.412   0.463  0.5790  2.4890 -2.0150
 9916TIP3   OH251238   4.298   3.281  12.106 -0.2291 -0.5310  0.0691
 9916TIP3    H151239   4.386   3.296  12.139 -0.4491  0.4264  0.2636
 9916TIP3    H251240   4.308   3.212  12.040  0.5745 -0.7937  0.4507
 9917TIP3   OH251241   0.659   1.596   0.667  0.0037 -0.4423 -0.9504
 9917TIP3    H151242   0.704   1.668   0.712 -0.5113  0.3111 -1.6246
 9917TIP3    H251243   0.721   1.569   0.599  0.5332 -1.1861 -0.1927
 9918TIP3   OH251244   1.130   5.449   1.696  0.5307  0.5190  0.0845
 9918TIP3    H151245   1.121   5.405   1.781  1.8540  2.4328  1.2969
 9918TIP3    H251246   1.197   5.399   1.650  0.6455  0.1453  0.6523
 9919TIP3   OH251247   6.649   5.449   1.896  0.4046 -0.5343 -0.4654
 9919TIP3    H151248   6.603   5.528   1.867  0.0170 -0.4666  0.3059
 9919TIP3    H251249   6.723   5.482   1.947  0.0839 -0.6664  0.0926
 9920TIP3   OH251250   5.036   2.871  17.061 -0.0052  0.0327 -0.2386
 9920TIP3    H151251   5.093   2.948  17.062 -0.6981  0.6496 -2.3568
 9920TIP3    H251252   5.008   2.861  17.152  0.1890  2.2541  0.1318
 9921TIP3   OH251253   4.771   5.041  13.954 -0.3784 -0.3786 -0.3243
 9921TIP3    H151254   4.720   4.993  14.020 -0.9128  0.7015  0.0748
 9921TIP3    H251255   4.710   5.054  13.882  0.3643 -2.0332 -1.3069
 9922TIP3   OH251256   1.711   5.713   1.299 -0.4619 -0.0625  0.0150
 9922TIP3    H151257   1.774   5.643   1.315 -0.2835 -0.0042 -0.4115
 9922TIP3    H251258   1.647   5.674   1.240 -0.8040 -0.1064  0.4102
 9923TIP3   OH251259   0.030   3.061   1.444 -0.2376 -0.1923  0.0516
 9923TIP3    H151260   0.059   3.098   1.527  0.4696  0.0147 -0.2720
 9923TIP3    H251261   0.097   3.089   1.381 -1.4307  0.7582 -0.8411
 9924TIP3   OH251262   1.547   1.131   4.976 -0.3383 -0.1269 -0.2179
 9924TIP3    H151263   1.469   1.131   5.031  0.6775  2.1220  1.3842
 9924TIP3    H251264   1.594   1.210   5.001  3.6319 -2.4692  0.5752
 9925TIP3   OH251265   1.363   4.201  13.806  0.1027 -0.9923 -0.8614
 9925TIP3    H151266   1.456   4.207  13.831 -0.0176 -1.9099 -0.0996
 9925TIP3    H251267   1.316   4.243  13.878 -0.1117 -1.2963 -0.8211
 9926TIP3   OH251268   3.846   0.298  16.756  0.1554 -0.2928  0.0139
 9926TIP3    H151269   3.846   0.390  16.782 -0.6566  0.2143 -1.6934
 9926TIP3    H251270   3.933   0.267  16.781  0.5367  0.9860  0.3775
 9927TIP3   OH251271   1.164   6.496   5.979 -0.3400 -0.0612 -0.5396
 9927TIP3    H151272   1.152   6.588   5.955  0.8317  0.2139 -0.1422
 9927TIP3    H251273   1.177   6.450   5.896 -0.1078  0.2618 -0.6813
 9928TIP3   OH251274   6.585   3.101  10.900  0.1139 -0.7677 -0.1813
 9928TIP3    H151275   6.624   3.181  10.935  0.0854 -0.7259 -0.2456
 9928TIP3    H251276   6.654   3.061  10.847  0.0975 -0.7396 -0.2233
 9929TIP3   OH251277   6.344   6.199   0.811  0.1023  0.4577 -0.3578
 9929TIP3    H151278   6.404   6.209   0.885  1.2473  1.2711 -1.3822
 9929TIP3    H251279   6.399   6.205   0.733 -1.1427  0.0168 -1.3064
 9930TIP3   OH251280   1.914   1.877  11.092  0.2606  0.4779 -0.9826
 9930TIP3    H151281   1.877   1.961  11.118 -0.3226  0.3227 -1.2942
 9930TIP3    H251282   1.994   1.899  11.044  1.7454  0.7692  1.4202
 9931TIP3   OH251283   2.639   4.561   0.549  0.2425  0.0419 -0.1257
 9931TIP3    H151284   2.686   4.636   0.585  0.6519 -0.0909 -0.3762
 9931TIP3    H251285   2.701   4.489   0.555 -0.4147 -0.4655  0.8200
 9932TIP3   OH251286   2.254   5.542  12.996 -0.1747  0.4789 -0.2380
 9932TIP3    H151287   2.225   5.634  12.993 -1.5886  0.1974  2.4172
 9932TIP3    H251288   2.349   5.548  13.003 -0.2228  1.7338 -0.3068
 9933TIP3   OH251289   5.953   1.560  12.970 -0.3985 -0.3131  0.3406
 9933TIP3    H151290   5.935   1.535  13.061  0.3128  0.3185  0.6693
 9933TIP3    H251291   5.870   1.549  12.925 -1.0815  0.5063  1.3367
 9934TIP3   OH251292   1.681   5.573  11.153 -0.3888  0.3344 -0.1973
 9934TIP3    H151293   1.651   5.525  11.077 -1.0937  0.5506 -0.0593
 9934TIP3    H251294   1.628   5.653  11.155  0.3312  0.8286 -0.0687
 9935TIP3   OH251295   2.370   4.715  16.432 -0.0548 -0.2215  0.0056
 9935TIP3    H151296   2.421   4.636  16.451 -0.2291 -0.5676 -0.9237
 9935TIP3    H251297   2.279   4.688  16.443 -0.0732  0.2152  0.9977
 9936TIP3   OH251298   4.061   6.547   4.354 -0.0293 -0.5449  0.5635
 9936TIP3    H151299   3.988   6.513   4.405  0.7662 -2.8474  0.2818
 9936TIP3    H251300   4.065   6.491   4.277  1.8608 -0.3049  0.4378
 9937TIP3   OH251301   5.344   2.729  13.258 -0.8688 -0.6107 -0.0062
 9937TIP3    H151302   5.431   2.690  13.267 -1.7137 -2.6174  0.0498
 9937TIP3    H251303   5.340   2.759  13.168 -0.9375 -2.7529 -0.7657
 9938TIP3   OH251304   6.387   4.686  14.884 -0.1442  0.8672  0.1385
 9938TIP3    H151305   6.395   4.676  14.978 -1.9486  0.2122  0.2748
 9938TIP3    H251306   6.387   4.596  14.850  1.5541  1.1128 -0.6321
 9939TIP3   OH251307   2.166   0.946  16.599 -0.5055 -0.7704  0.5761
 9939TIP3    H151308   2.231   0.932  16.668  0.8079  1.5701 -0.0628
 9939TIP3    H251309   2.091   0.986  16.643 -0.2256 -0.5501  0.8565
 9940TIP3   OH251310   0.826   4.639  17.245  0.0007 -0.0251 -0.5435
 9940TIP3    H151311   0.871   4.684  17.316  0.8177 -0.6381 -0.6602
 9940TIP3    H251312   0.887   4.645  17.171  1.3201 -3.4455  0.0991
 9941TIP3   OH251313   6.014   4.914   6.396 -0.1161 -0.4077 -0.2963
 9941TIP3    H151314   6.031   4.995   6.445  0.9513 -0.1617 -1.0158
 9941TIP3    H251315   6.089   4.858   6.415  0.2334 -0.3792 -1.4586
 9942TIP3   OH251316   5.837   2.074  11.482  0.6664  0.2845 -0.1602
 9942TIP3    H151317   5.857   1.995  11.532 -1.2327 -0.6013 -0.6807
 9942TIP3    H251318   5.920   2.122  11.477  1.7293 -1.3826  0.6606
 9943TIP3   OH251319   0.968   1.194  16.432 -0.6100 -0.4425 -0.7882
 9943TIP3    H151320   0.989   1.190  16.338  0.4832 -1.4679 -0.5243
 9943TIP3    H251321   1.042   1.152  16.475 -0.1062  1.7885  0.7167
 9944TIP3   OH251322   4.571   4.516  16.657  0.2187  0.4640  0.0512
 9944TIP3    H151323   4.617   4.573  16.596 -0.3389 -0.1200 -0.9591
 9944TIP3    H251324   4.542   4.573  16.727  0.6993  1.2018 -0.3429
 9945TIP3   OH251325   5.364   1.812   3.946  0.0232  0.5962 -0.3445
 9945TIP3    H151326   5.351   1.750   3.875 -1.2255  1.5738 -1.0142
 9945TIP3    H251327   5.457   1.832   3.944 -0.0160  0.7005 -1.7981
 9946TIP3   OH251328   4.404   1.635  15.745 -0.3827 -0.8566  0.5663
 9946TIP3    H151329   4.401   1.715  15.692 -1.8608 -1.4736 -0.3624
 9946TIP3    H251330   4.493   1.603  15.736 -0.3900 -0.5364 -0.9818
 9947TIP3   OH251331   2.391   2.016   2.470 -0.1022 -0.1149 -0.1562
 9947TIP3    H151332   2.359   1.949   2.410  0.6630 -0.8655  0.2572
 9947TIP3    H251333   2.417   2.089   2.414 -1.8668  0.2601 -0.5513
 9948TIP3   OH251334   6.051   4.418   3.637  0.7342 -0.2104  0.5757
 9948TIP3    H151335   6.119   4.473   3.678  0.0952  0.3549  0.9059
 9948TIP3    H251336   5.971   4.442   3.684  0.0829  0.0334 -0.6365
 9949TIP3   OH251337   5.864   0.937  12.316 -0.0055 -0.1031  0.1341
 9949TIP3    H151338   5.871   0.899  12.228 -0.5522  2.1026 -0.9557
 9949TIP3    H251339   5.890   1.028  12.305 -0.0645  0.2327  2.2910
 9950TIP3   OH251340   4.217   0.097   1.748 -0.4862  0.1417  0.0659
 9950TIP3    H151341   4.181   0.171   1.797 -1.4986  2.1243 -3.3468
 9950TIP3    H251342   4.184   0.108   1.659  2.7587 -2.0612 -1.6417
 9951TIP3   OH251343   4.436   0.498  13.959 -0.4187  0.6544 -0.0459
 9951TIP3    H151344   4.527   0.468  13.955  0.2572  1.9067  3.1389
 9951TIP3    H251345   4.435   0.578  13.907  0.2326  0.4583 -0.3729
 9952TIP3   OH251346   1.917   6.437  14.434 -0.0881 -0.5747 -0.6694
 9952TIP3    H151347   1.829   6.408  14.410  0.1790 -1.1260 -0.9839
 9952TIP3    H251348   1.931   6.401  14.522  0.3161 -1.5674 -1.1340
 9953TIP3   OH251349   1.543   1.559  14.868  0.2481  0.0614  0.3482
 9953TIP3    H151350   1.467   1.618  14.867 -0.9129 -1.3966  0.0187
 9953TIP3    H251351   1.606   1.602  14.811 -1.1908  0.2418 -1.1992
 9954TIP3   OH251352   4.311   6.516  15.707 -0.3907  0.0988  0.2925
 9954TIP3    H151353   4.261   6.579  15.757  0.4059  1.8223 -0.9837
 9954TIP3    H251354   4.323   6.557  15.621 -0.6098 -2.1728 -0.8975
 9955TIP3   OH251355   6.173   3.961   0.091 -0.4188 -0.0789  0.4911
 9955TIP3    H151356   6.200   3.894   0.155  0.8588  0.6867  0.7713
 9955TIP3    H251357   6.240   3.958   0.023 -0.5802  0.6365  0.2970
 9956TIP3   OH251358   3.041   0.850  11.132 -0.0875  0.1019  0.7976
 9956TIP3    H151359   3.135   0.830  11.133 -0.0045  0.4250 -0.3170
 9956TIP3    H251360   3.010   0.814  11.049 -0.6298  1.4540  0.4010
 9957TIP3   OH251361   0.570   2.708   3.138 -0.1847  0.0008  0.0830
 9957TIP3    H151362   0.655   2.715   3.180 -0.5373  0.9824  0.6597
 9957TIP3    H251363   0.508   2.738   3.204 -0.8867  0.2106 -0.6513
 9958TIP3   OH251364   1.206   0.638   3.882  0.5486 -0.0725  0.3197
 9958TIP3    H151365   1.125   0.639   3.831  0.9110  0.3946 -0.2707
 9958TIP3    H251366   1.262   0.573   3.839  0.1504 -1.0866  1.2937
 9959TIP3   OH251367   3.418   5.315   0.686 -0.1838  0.3295  0.5501
 9959TIP3    H151368   3.376   5.341   0.768 -1.2764 -0.8858  0.4045
 9959TIP3    H251369   3.372   5.365   0.618 -0.9768 -0.5145  0.4536
 9960TIP3   OH251370   0.676   0.382   0.271 -0.0003  0.6229  0.4212
 9960TIP3    H151371   0.585   0.365   0.294  0.1837 -0.5704  0.2973
 9960TIP3    H251372   0.706   0.445   0.337 -1.1906  1.8307 -0.1408
 9961TIP3   OH251373   5.052   2.709   2.039  0.2136 -0.1583 -0.3530
 9961TIP3    H151374   5.063   2.766   1.964  0.1608  0.0193 -0.2264
 9961TIP3    H251375   4.964   2.728   2.071  0.1006 -0.4916 -0.4625
 9962TIP3   OH251376   3.675   0.285  15.367 -0.2080  0.1572  0.5475
 9962TIP3    H151377   3.724   0.350  15.417  0.4505  0.6578 -0.6973
 9962TIP3    H251378   3.634   0.229  15.433  0.5068  0.8775  1.6272
 9963TIP3   OH251379   2.749   4.806   4.800 -0.3389 -0.2436 -0.0719
 9963TIP3    H151380   2.771   4.847   4.883  0.9514 -0.1076 -0.4415
 9963TIP3    H251381   2.829   4.759   4.775 -0.8108 -0.5516 -1.0697
 9964TIP3   OH251382   0.577   5.791   4.267 -0.4582  0.3369 -0.0075
 9964TIP3    H151383   0.597   5.857   4.333  0.2579 -1.0758  1.2659
 9964TIP3    H251384   0.599   5.708   4.309 -1.6537 -0.7521 -1.4150
 9965TIP3   OH251385   1.899   5.133   1.380 -0.3618  0.3704  0.2131
 9965TIP3    H151386   1.969   5.187   1.416 -0.5331  0.1472  0.8913
 9965TIP3    H251387   1.853   5.099   1.456 -0.5225 -0.3878 -0.2146
 9966TIP3   OH251388   2.573   5.893   2.175 -0.1672  0.1946  0.5769
 9966TIP3    H151389   2.543   5.806   2.150  2.7018 -0.8051  0.3050
 9966TIP3    H251390   2.558   5.947   2.098 -1.5444 -0.1339  0.5911
 9967TIP3   OH251391   4.424   1.323   4.285  0.0464 -0.6217 -0.0451
 9967TIP3    H151392   4.504   1.277   4.309  0.0903  0.1618  1.3792
 9967TIP3    H251393   4.357   1.254   4.279  0.4446 -1.0670  0.5327
 9968TIP3   OH251394   2.074   3.599   1.228 -0.2929  0.3268  0.0966
 9968TIP3    H151395   2.136   3.540   1.271 -0.8281  0.0081  0.4405
 9968TIP3    H251396   2.004   3.611   1.292  0.3265  2.2178  0.4708
 9969TIP3   OH251397   3.120   3.239  14.176 -0.3356 -0.2924 -0.4618
 9969TIP3    H151398   3.082   3.294  14.246  2.0019 -1.8594  2.2411
 9969TIP3    H251399   3.192   3.292  14.141  1.3405 -1.1529  1.5169
 9970TIP3   OH251400   4.486   1.262   3.878  0.0492 -0.4163 -0.3709
 9970TIP3    H151401   4.485   1.350   3.915  2.2320 -0.1294 -0.8324
 9970TIP3    H251402   4.577   1.233   3.888 -0.3792 -2.2041 -1.1849
 9971TIP3   OH251403   0.617   4.255  16.091 -0.3288 -0.3152 -0.1431
 9971TIP3    H151404   0.556   4.254  16.018 -0.3266  2.8536 -0.3213
 9971TIP3    H251405   0.610   4.344  16.128  0.8976 -1.2525  2.6668
 9972TIP3   OH251406   2.237   5.946  12.321  0.4096 -0.8559  0.0639
 9972TIP3    H151407   2.263   6.020  12.377  0.3835 -0.6857 -0.1454
 9972TIP3    H251408   2.147   5.926  12.348 -0.1437  0.1757 -0.8924
 9973TIP3   OH251409   0.916   4.952   5.602 -0.1866 -0.4378  0.6355
 9973TIP3    H151410   0.969   5.005   5.662  0.2534 -1.2724  0.9992
 9973TIP3    H251411   0.936   4.987   5.515  2.4202 -1.8774  0.5469
 9974TIP3   OH251412   6.712   3.580  13.335 -0.1449  0.7530 -0.4327
 9974TIP3    H151413   6.709   3.567  13.430 -1.3517 -1.1237 -0.6885
 9974TIP3    H251414   6.695   3.673  13.323  1.3947  1.3154  1.2268
 9975TIP3   OH251415   4.593   4.926   2.178 -0.0617  0.4161  0.4742
 9975TIP3    H151416   4.631   4.839   2.170 -1.2448  0.0038 -1.3792
 9975TIP3    H251417   4.666   4.986   2.161  0.5399 -0.2298  0.7263
 9976TIP3   OH251418   4.498   2.865   1.365  0.1055 -0.3696  0.1421
 9976TIP3    H151419   4.409   2.830   1.354 -0.7368  1.6011  0.2237
 9976TIP3    H251420   4.501   2.894   1.456 -0.0912  1.8329 -0.4901
 9977TIP3   OH251421   6.130   2.396  15.798  0.4088 -0.1134 -1.0322
 9977TIP3    H151422   6.179   2.361  15.723  0.5297 -0.2105 -0.9088
 9977TIP3    H251423   6.039   2.378  15.777  0.3696  0.6669 -1.5713
 9978TIP3   OH251424   4.541   5.030   1.307  0.3952  0.3828  0.3172
 9978TIP3    H151425   4.583   5.009   1.223 -0.1358 -2.0161  0.5694
 9978TIP3    H251426   4.481   4.957   1.322 -1.6461  2.1836  1.4327
 9979TIP3   OH251427   5.738   5.322   5.800  0.4114 -0.2124  0.1107
 9979TIP3    H151428   5.671   5.363   5.744  0.9468  0.9314  0.2731
 9979TIP3    H251429   5.733   5.371   5.883  1.2814 -0.2752  0.2088
 9980TIP3   OH251430   6.255   3.323   4.759  0.0463 -0.3401 -0.0846
 9980TIP3    H151431   6.307   3.341   4.681  0.8743 -2.1713 -0.0094
 9980TIP3    H251432   6.318   3.327   4.831 -0.3931 -0.2531  0.3012
 9981TIP3   OH251433   3.712   0.070  11.833  0.4563 -0.2813  0.1444
 9981TIP3    H151434   3.708   0.163  11.809  0.9631 -0.5145 -0.9028
 9981TIP3    H251435   3.788   0.036  11.786 -1.0559 -1.7460 -1.4118
 9982TIP3   OH251436   4.353   2.417   4.075  0.2206 -0.6236 -0.0195
 9982TIP3    H151437   4.280   2.453   4.125 -0.3162 -1.2133 -0.3501
 9982TIP3    H251438   4.314   2.344   4.027  1.3174 -1.8315  0.8523
 9983TIP3   OH251439   1.574   3.015   3.503 -0.1317 -0.1109  0.5527
 9983TIP3    H151440   1.524   2.938   3.531 -0.4409  0.0903  0.5670
 9983TIP3    H251441   1.664   2.984   3.495  0.1869  0.0563  2.8067
 9984TIP3   OH251442   1.587   1.789  15.835 -0.0751 -0.1016  0.1593
 9984TIP3    H151443   1.536   1.815  15.758  1.0209  0.8710 -0.2545
 9984TIP3    H251444   1.666   1.842  15.831  0.0861 -0.1611  1.8746
 9985TIP3   OH251445   3.262   3.869   3.403  0.2063 -0.0384  0.1954
 9985TIP3    H151446   3.324   3.806   3.366  0.4580 -0.1067  0.7332
 9985TIP3    H251447   3.307   3.953   3.398  0.0446  0.0350 -0.1042
 9986TIP3   OH251448   1.362   0.089   6.175  0.3576  0.1291 -0.7849
 9986TIP3    H151449   1.274   0.124   6.157 -0.0223 -0.8066 -0.7869
 9986TIP3    H251450   1.402   0.156   6.231 -0.4157  0.4888 -0.6363
 9987TIP3   OH251451   3.569   1.083  15.370  0.2160 -0.4278 -0.7410
 9987TIP3    H151452   3.643   1.143  15.360  0.0785 -0.0952  0.0633
 9987TIP3    H251453   3.500   1.120  15.314 -0.1542  0.6884  0.3871
 9988TIP3   OH251454   0.863   0.525  12.803  0.0238  0.0345  0.0463
 9988TIP3    H151455   0.848   0.550  12.712  1.5455 -1.8287 -0.7722
 9988TIP3    H251456   0.956   0.538  12.817 -0.7797  5.5125  3.1531
 9989TIP3   OH251457   6.352   5.708  16.156  0.5404 -0.4445 -0.0535
 9989TIP3    H151458   6.319   5.690  16.068 -1.0219 -1.0212  0.6066
 9989TIP3    H251459   6.362   5.803  16.159  1.0344 -0.4572 -0.9848
 9990TIP3   OH251460   6.073   0.238   2.723  0.5888 -0.2670 -0.5292
 9990TIP3    H151461   6.041   0.252   2.634  0.5707  0.0708 -0.4698
 9990TIP3    H251462   6.168   0.240   2.716  0.6339 -1.7009 -0.7783
 9991TIP3   OH251463   4.652   5.202  12.309  0.0952 -0.5071 -1.0380
 9991TIP3    H151464   4.629   5.282  12.356 -1.0752 -1.3786 -0.0643
 9991TIP3    H251465   4.713   5.231  12.241 -0.3590  1.2106 -0.7608
 9992TIP3   OH251466   4.872   4.955   2.140 -0.1217 -0.3092 -0.2170
 9992TIP3    H151467   4.901   4.868   2.112 -2.9799 -2.0004  1.6352
 9992TIP3    H251468   4.895   4.960   2.232  2.2671  2.0568 -0.8129
 9993TIP3   OH251469   6.167   5.567   5.558  0.1333 -0.4597  0.7161
 9993TIP3    H151470   6.169   5.473   5.539 -0.1824 -0.4830  0.7884
 9993TIP3    H251471   6.108   5.575   5.633 -0.8590 -0.0714 -0.0787
 9994TIP3   OH251472   1.720   0.838   3.506  0.4129 -0.0280 -0.0041
 9994TIP3    H151473   1.715   0.930   3.480  0.1331 -0.3735 -1.2190
 9994TIP3    H251474   1.772   0.796   3.437 -2.2878 -1.4070 -1.3417
 9995TIP3   OH251475   3.024   1.875   4.254 -0.0740  0.0894  0.0080
 9995TIP3    H151476   2.961   1.859   4.184 -0.6688  0.9216  0.3379
 9995TIP3    H251477   3.095   1.923   4.212  0.4338 -0.9605 -0.3927
 9996TIP3   OH251478   4.965   4.994  17.163 -0.5386  0.0078  0.0610
 9996TIP3    H151479   5.012   4.911  17.162 -1.9458 -0.8153  0.1552
 9996TIP3    H251480   4.987   5.035  17.079  0.0258 -0.5357 -0.0626
 9997TIP3   OH251481   6.261   6.141  11.634 -0.0425 -0.5728 -0.0874
 9997TIP3    H151482   6.222   6.191  11.561 -1.2399  1.1688  1.6304
 9997TIP3    H251483   6.351   6.124  11.606 -0.2021  0.7955 -1.6256
 9998TIP3   OH251484   0.838   2.651  12.331  0.6902 -0.4807  0.2737
 9998TIP3    H151485   0.918   2.600  12.342  0.7062 -1.2459 -2.5191
 9998TIP3    H251486   0.794   2.646  12.416  3.3384 -0.3943  1.7568
 9999TIP3   OH251487   2.284   4.016  16.566 -0.8614  0.0285  0.4338
 9999TIP3    H151488   2.294   4.040  16.474 -0.6818 -0.1558  0.4059
 9999TIP3    H251489   2.192   3.989  16.574 -1.0265  0.5747  0.4319
10000TIP3   OH251490   2.969   3.125  11.414  0.2095  0.2425  0.5396
10000TIP3    H151491   2.885   3.081  11.400 -0.0987  0.6364  1.1138
10000TIP3    H251492   3.015   3.071  11.477  0.5078 -0.1246  0.0107
10001TIP3   OH251493   1.079   4.645  11.745  0.5867  0.2284  0.3464
10001TIP3    H151494   1.017   4.715  11.766  0.0070  0.3800 -1.6237
10001TIP3    H251495   1.097   4.603  11.829 -1.5366  0.7331  1.1244
10002TIP3   OH251496   1.041   5.977  13.908 -0.0558 -0.3315 -0.4140
10002TIP3    H151497   1.016   5.973  14.001 -1.1995 -1.6029 -0.7398
10002TIP3    H251498   1.096   6.055  13.902 -0.7230  0.3176  1.1559
10003TIP3   OH251499   5.779   4.965   2.183 -0.0299  0.4366 -0.4210
10003TIP3    H151500   5.735   5.049   2.168  0.1347  0.6769  0.3972
10003TIP3    H251501   5.870   4.988   2.199 -0.4750  0.4136  2.6997
10004TIP3   OH251502   0.634   6.193  12.318 -0.1886  0.2984  0.8592
10004TIP3    H151503   0.656   6.230  12.232 -1.2162  1.4664  1.0747
10004TIP3    H251504   0.695   6.120  12.328  0.5133  0.6505 -0.4975
10005TIP3   OH251505   0.344   3.375   4.725 -0.2094 -0.1341 -0.1873
10005TIP3    H151506   0.419   3.329   4.688  0.3262 -0.1790  0.9123
10005TIP3    H251507   0.289   3.305   4.760  0.0351 -0.0115  0.4496
10006TIP3   OH251508   5.829   5.288  11.526  0.5979 -0.5613  0.3467
10006TIP3    H151509   5.839   5.193  11.527  2.6964 -0.3699  0.5587
10006TIP3    H251510   5.764   5.305  11.595 -0.7950 -1.8869 -0.5631
10007TIP3   OH251511   0.044   1.593  15.542 -0.3941  0.2648 -0.3302
10007TIP3    H151512   0.137   1.570  15.545 -0.2697  0.4461  4.3520
10007TIP3    H251513   0.041   1.673  15.490  2.7591  2.2852  2.1443
10008TIP3   OH251514   5.806   4.563   3.093  0.0105  0.3097 -0.5803
10008TIP3    H151515   5.897   4.569   3.123  0.0259 -0.2411 -0.4971
10008TIP3    H251516   5.786   4.650   3.060  0.7552  0.2809 -1.1333
10009TIP3   OH251517   2.999   6.136   0.878 -0.0204 -0.0428 -0.0170
10009TIP3    H151518   2.910   6.119   0.848  0.5041 -2.2015 -0.5320
10009TIP3    H251519   2.989   6.198   0.950 -1.8675  0.1885 -0.4226
10010TIP3   OH251520   3.258   4.367  13.720 -0.3703 -0.5514 -0.2403
10010TIP3    H151521   3.219   4.323  13.795 -0.0077 -1.3751 -0.5270
10010TIP3    H251522   3.237   4.310  13.645 -0.1311 -0.0968 -0.6587
10011TIP3   OH251523   5.049   0.588   2.710  0.8325  0.3274 -0.8592
10011TIP3    H151524   5.003   0.649   2.768  1.7329  1.1037 -0.9441
10011TIP3    H251525   5.012   0.502   2.732  0.4150  0.7394  0.1158
10012TIP3   OH251526   6.166   2.203  13.012  0.0559  0.4060 -0.1148
10012TIP3    H151527   6.161   2.283  12.960  2.3366  2.1956  2.1411
10012TIP3    H251528   6.094   2.210  13.074  0.7445  1.1872  0.6189
10013TIP3   OH251529   6.469   6.610  12.401 -0.0579  0.6990  0.0328
10013TIP3    H151530   6.415   6.649  12.470 -0.2194 -0.3704  0.5236
10013TIP3    H251531   6.543   6.570  12.446  1.3473  2.3901 -0.6588
10014TIP3   OH251532   6.202   2.725  11.829  0.1822  0.5097 -0.0060
10014TIP3    H151533   6.149   2.796  11.793 -0.4004 -0.2541 -0.7198
10014TIP3    H251534   6.138   2.656  11.847  0.7301  0.1847  0.7178
10015TIP3   OH251535   3.024   5.321  10.467 -0.3349  0.3307 -0.0619
10015TIP3    H151536   3.007   5.239  10.419 -2.7494  0.2054  0.8418
10015TIP3    H251537   3.119   5.327  10.471 -0.0723 -2.0940 -0.7425
10016TIP3   OH251538   4.710   6.466  13.026 -0.4799 -0.1558 -0.1506
10016TIP3    H151539   4.734   6.434  12.939 -0.0548 -0.5579  0.1119
10016TIP3    H251540   4.664   6.548  13.009 -0.0049 -0.0043 -0.7294
10017TIP3   OH251541   3.871   3.179   4.432 -0.3437 -0.2145 -0.0412
10017TIP3    H151542   3.867   3.231   4.512 -0.8183  0.0812 -0.2562
10017TIP3    H251543   3.832   3.235   4.365  0.3561 -0.3257 -0.5549
10018TIP3   OH251544   1.348   4.801  15.964 -0.1144 -0.5025 -0.0701
10018TIP3    H151545   1.372   4.879  15.915  2.4142 -0.3107  1.3152
10018TIP3    H251546   1.275   4.829  16.020  1.6978  1.3835  1.5031
10019TIP3   OH251547   2.921   4.872  13.820 -0.6263  0.1380  0.3324
10019TIP3    H151548   2.882   4.803  13.874 -2.3882 -0.5461 -1.6653
10019TIP3    H251549   2.884   4.857  13.733  2.6215  0.7361 -1.2859
10020TIP3   OH251550   2.389   6.101  17.110  0.3689  0.3238  0.0831
10020TIP3    H151551   2.414   6.105  17.203  1.3720  2.0252 -0.2230
10020TIP3    H251552   2.295   6.120  17.110  0.2556 -0.1813  0.7834
10021TIP3   OH251553   2.076   4.794  14.650 -0.3548  0.4293  0.0226
10021TIP3    H151554   2.155   4.809  14.701 -0.6195  0.6912  0.3570
10021TIP3    H251555   2.024   4.732  14.701 -1.9470  2.8407  1.5374
10022TIP3   OH251556   4.887   3.021   2.649 -0.0804  0.0158  0.2003
10022TIP3    H151557   4.907   3.000   2.558  0.8114  0.9676  0.1522
10022TIP3    H251558   4.971   3.050   2.685 -0.7342  1.0620  0.9127
10023TIP3   OH251559   3.014   0.202  13.184 -0.0800 -0.2315 -0.3484
10023TIP3    H151560   3.055   0.215  13.099  1.3484  1.5510  0.5319
10023TIP3    H251561   2.983   0.290  13.209  0.6455 -0.4503  1.4708
10024TIP3   OH251562   4.214   3.966   1.438 -0.3342 -0.1604 -0.3200
10024TIP3    H151563   4.201   3.901   1.508  0.4848 -2.6465 -2.3268
10024TIP3    H251564   4.274   4.030   1.477 -0.5017 -1.0276  1.5046
10025TIP3   OH251565   1.949   4.393   4.117  0.4647  0.7197  0.3893
10025TIP3    H151566   1.893   4.360   4.188 -0.8220  1.0562 -0.4228
10025TIP3    H251567   1.901   4.469   4.083 -1.0111 -1.6425 -3.3743
10026TIP3   OH251568   1.764   0.379   4.331  0.2610  0.3318 -0.1348
10026TIP3    H151569   1.728   0.447   4.274 -2.8196  0.5262  1.7807
10026TIP3    H251570   1.755   0.414   4.419 -1.3894 -2.4330  0.9429
10027TIP3   OH251571   4.343   0.983  10.306 -0.2541  0.6148 -0.3419
10027TIP3    H151572   4.276   0.923  10.339  0.1100  0.0757 -0.5728
10027TIP3    H251573   4.424   0.932  10.308  0.3923  1.6303  1.0662
10028TIP3   OH251574   3.798   0.146   5.224 -0.6206 -0.4117  0.7278
10028TIP3    H151575   3.873   0.198   5.195 -1.7070  1.4604  1.0961
10028TIP3    H251576   3.792   0.165   5.318 -1.3833 -0.7686  0.7526
10029TIP3   OH251577   1.281   6.794  14.483 -0.1630 -0.1783 -0.1610
10029TIP3    H151578   1.315   6.729  14.544  1.1666 -0.5003 -1.2077
10029TIP3    H251579   1.337   6.870  14.494 -0.7950  0.2755 -0.0020
10030TIP3   OH251580   2.393   3.496   2.113  0.2008  0.8447  0.2853
10030TIP3    H151581   2.469   3.442   2.093  0.1771  0.8222  0.2568
10030TIP3    H251582   2.376   3.479   2.206 -0.2351  0.2662  0.1065
10031TIP3   OH251583   2.727   4.705  14.576  0.0568  0.1269 -0.4228
10031TIP3    H151584   2.762   4.646  14.643  0.1667  0.8714  0.1906
10031TIP3    H251585   2.632   4.692  14.579  0.1800 -2.9484 -3.0549
10032TIP3   OH251586   4.508   5.997  16.120  0.1106 -0.8397 -0.1628
10032TIP3    H151587   4.533   5.908  16.098  0.8717 -0.9946  1.2033
10032TIP3    H251588   4.488   6.038  16.036 -1.7674 -2.7149 -0.7016
10033TIP3   OH251589   4.421   3.790  11.974  0.3363 -0.0565  0.1346
10033TIP3    H151590   4.422   3.696  11.991 -1.6535 -0.0177  0.7515
10033TIP3    H251591   4.480   3.827  12.040  1.7612 -0.8862 -0.6105
10034TIP3   OH251592   1.176   3.312  13.328  0.0281  0.0695 -0.5103
10034TIP3    H151593   1.172   3.355  13.243 -0.5912 -0.3934 -0.7288
10034TIP3    H251594   1.233   3.236  13.314 -1.2004 -0.8256 -0.9193
10035TIP3   OH251595   0.520   3.256   2.893  0.0308 -0.0593  0.6271
10035TIP3    H151596   0.515   3.193   2.964 -1.8650 -0.5916  0.0881
10035TIP3    H251597   0.530   3.341   2.936  1.3232 -0.5826  1.4030
10036TIP3   OH251598   0.040   3.288   5.019  0.2763 -0.7520 -0.0448
10036TIP3    H151599   0.038   3.240   5.102  0.0715  1.4912  1.3291
10036TIP3    H251600  -0.051   3.294   4.992 -0.0870  1.4018  1.4133
10037TIP3   OH251601   0.285   2.526   5.524 -0.2327  0.2424  0.0405
10037TIP3    H151602   0.358   2.532   5.586  0.2625  0.2143 -0.5319
10037TIP3    H251603   0.264   2.618   5.504  0.0364  0.2431 -0.2444
10038TIP3   OH251604   0.266   3.305   0.993 -0.1595  0.6288 -0.3055
10038TIP3    H151605   0.309   3.229   1.032 -0.8082  1.0166  1.2460
10038TIP3    H251606   0.280   3.295   0.899 -0.6679 -1.6866 -0.1931
10039TIP3   OH251607   2.059   4.270   0.083  0.2503 -0.1065 -0.4742
10039TIP3    H151608   2.069   4.247  -0.010 -1.3817 -0.7022 -0.5385
10039TIP3    H251609   2.085   4.190   0.130  0.6967  0.0643 -0.4253
10040TIP3   OH251610   6.501   0.691   3.494  0.2870 -0.0055 -0.3595
10040TIP3    H151611   6.414   0.733   3.496 -0.1558 -0.7685 -1.8812
10040TIP3    H251612   6.559   0.760   3.460 -0.0461  0.0298 -0.8799
10041TIP3   OH251613   5.567   5.816  12.455  0.6178 -0.2328  0.2089
10041TIP3    H151614   5.560   5.788  12.547  1.4036 -0.5113  0.1948
10041TIP3    H251615   5.630   5.888  12.456  0.6470 -0.2513 -0.1070
10042TIP3   OH251616   6.486   0.291   2.294 -0.0913 -0.7486 -0.0919
10042TIP3    H151617   6.489   0.332   2.207  0.0783  0.8910  0.6473
10042TIP3    H251618   6.462   0.200   2.277  0.4915 -0.6093 -1.9017
10043TIP3   OH251619   4.310   5.646   2.011  0.4303  0.2354 -0.5681
10043TIP3    H151620   4.229   5.662   2.060  1.2578  2.1754  0.3070
10043TIP3    H251621   4.289   5.574   1.952 -0.8255 -1.9030  2.2412
10044TIP3   OH251622   4.628   3.744  16.617 -0.2808  0.2688 -0.8526
10044TIP3    H151623   4.722   3.760  16.610 -0.1079 -0.1156  0.2525
10044TIP3    H251624   4.587   3.829  16.600  0.4183  1.0815  1.2362
10045TIP3   OH251625   2.986   3.832   3.034  0.2476 -0.7227  0.1772
10045TIP3    H151626   2.906   3.785   3.008  1.7231 -4.3530  1.5196
10045TIP3    H251627   2.964   3.869   3.120 -1.4288  2.7238 -1.5327
10046TIP3   OH251628   4.658   3.005   1.184 -0.2921  0.0187 -0.2030
10046TIP3    H151629   4.614   2.962   1.257  0.9057  1.6880  1.6121
10046TIP3    H251630   4.744   2.963   1.180 -0.2985  0.0356 -0.5487
10047TIP3   OH251631   4.900   0.032  13.062  0.2949  0.1906 -0.1393
10047TIP3    H151632   4.827   0.047  13.122  0.3108  0.6989 -0.2415
10047TIP3    H251633   4.972   0.005  13.119  0.0695 -0.1597 -0.0223
10048TIP3   OH251634   6.512   2.371   5.704  0.3067  0.4069  0.0430
10048TIP3    H151635   6.516   2.276   5.712  0.8529  0.3672 -0.6660
10048TIP3    H251636   6.418   2.390   5.703  0.1936 -0.1168  0.2220
10049TIP3   OH251637   4.029   3.041  12.242 -0.4618  0.0781  0.0612
10049TIP3    H151638   4.042   3.132  12.269 -0.3928  0.0600  0.0878
10049TIP3    H251639   3.971   3.005  12.309  1.1845 -0.4929  1.2438
10050TIP3   OH251640   0.300   5.196   1.990  0.0935  0.4108 -0.1540
10050TIP3    H151641   0.240   5.210   1.916  2.2888  0.7010 -2.0027
10050TIP3    H251642   0.258   5.128   2.042 -1.0490 -0.6666 -2.3253
10051TIP3   OH251643   3.908   3.371  16.797  0.3742 -0.1362 -0.5282
10051TIP3    H151644   3.855   3.447  16.822  1.1242  0.2785 -0.1527
10051TIP3    H251645   3.890   3.306  16.864  0.9679  0.3050  0.0718
10052TIP3   OH251646   6.606   1.340  15.706  0.6375 -0.1624 -0.3208
10052TIP3    H151647   6.521   1.347  15.664 -0.1473 -3.8486  0.3215
10052TIP3    H251648   6.662   1.298  15.640  0.9853 -0.7833  0.3537
10053TIP3   OH251649   2.048   4.706   2.448 -0.1384 -0.4617 -0.2132
10053TIP3    H151650   2.041   4.628   2.502  1.4895 -1.2438 -1.0707
10053TIP3    H251651   2.021   4.678   2.361  1.1637 -0.3013 -0.6943
10054TIP3   OH251652   2.010   2.977   1.038  0.2070 -0.2376 -0.0718
10054TIP3    H151653   2.099   2.979   1.001  0.1605  0.4196 -0.1576
10054TIP3    H251654   1.953   2.991   0.962  0.1785  3.3216  0.4369
10055TIP3   OH251655   1.809   4.645  15.277 -0.8606  0.2685 -0.1826
10055TIP3    H151656   1.860   4.575  15.318 -1.1793  0.6413  0.8865
10055TIP3    H251657   1.865   4.723  15.285 -1.4077  0.5924  0.6317
10056TIP3   OH251658   1.611   5.580   3.658  0.8583  0.3141  0.4011
10056TIP3    H151659   1.606   5.639   3.733  1.8412  0.5940  0.2726
10056TIP3    H251660   1.547   5.511   3.676 -0.7570  1.7131  0.2733
10057TIP3   OH251661   4.071   2.514   4.526  0.1234 -0.0921 -0.2938
10057TIP3    H151662   4.166   2.522   4.522  0.0272  1.2337 -0.5487
10057TIP3    H251663   4.054   2.461   4.604  1.0976 -1.5722 -1.0489
10058TIP3   OH251664   5.749   6.777   3.896  0.1142  0.3239 -0.0757
10058TIP3    H151665   5.740   6.718   3.822  0.7069 -2.8527  2.1601
10058TIP3    H251666   5.842   6.801   3.896  0.2421 -0.1534 -0.0639
10059TIP3   OH251667   6.244   2.649   1.457  0.2814 -0.1365  0.2877
10059TIP3    H151668   6.203   2.719   1.508 -0.3168  1.3275 -2.0113
10059TIP3    H251669   6.337   2.667   1.460  0.4938 -1.2718  2.4394
10060TIP3   OH251670   5.302   4.248   5.600  0.0092 -0.5704  0.1938
10060TIP3    H151671   5.378   4.268   5.545 -0.9552  1.4876 -0.5043
10060TIP3    H251672   5.301   4.317   5.666 -1.7750  0.0090 -0.3966
10061TIP3   OH251673   1.695   0.642   2.327 -0.1258  0.1661  0.1109
10061TIP3    H151674   1.690   0.550   2.300 -2.9707  0.4765 -0.6978
10061TIP3    H251675   1.777   0.673   2.289  0.7497 -1.9467  0.1494
10062TIP3   OH251676   3.593   3.683   6.549 -0.4425 -0.2537 -0.3604
10062TIP3    H151677   3.638   3.695   6.632 -0.6970 -1.6401  0.0026
10062TIP3    H251678   3.658   3.641   6.492 -0.4901  0.0504 -0.6427
10063TIP3   OH251679   1.504   4.626  11.740  0.0531 -0.2540 -0.5994
10063TIP3    H151680   1.467   4.712  11.719 -1.3155 -0.7105 -0.1622
10063TIP3    H251681   1.594   4.631  11.708 -0.4862  0.7619 -2.0989
10064TIP3   OH251682   5.501   4.818  15.923 -0.1070  0.0943  0.3225
10064TIP3    H151683   5.584   4.859  15.897 -0.4173  1.0129  0.7452
10064TIP3    H251684   5.523   4.726  15.934  1.3000  0.5906  2.2187
10065TIP3   OH251685   3.076   2.959  11.598 -0.2127 -0.2178  0.3995
10065TIP3    H151686   3.044   2.868  11.601 -0.4381 -0.1109  2.1221
10065TIP3    H251687   3.170   2.951  11.611 -0.1474 -0.2399 -0.0786
10066TIP3   OH251688   4.058   0.081   0.364  0.3392 -0.2345 -0.1453
10066TIP3    H151689   4.153   0.088   0.363  0.3574  0.2708  1.6005
10066TIP3    H251690   4.040  -0.005   0.324  1.7278 -1.7400  2.2243
10067TIP3   OH251691   5.021   3.182  11.573 -0.9754 -0.2811  0.4715
10067TIP3    H151692   4.976   3.267  11.576 -0.6336 -0.0564 -0.4215
10067TIP3    H251693   4.978   3.130  11.641 -0.7161  0.8306  1.5069
10068TIP3   OH251694   4.003   3.760   0.138  0.2838 -0.1729 -0.0752
10068TIP3    H151695   4.036   3.670   0.127 -0.5253 -0.6681  1.2199
10068TIP3    H251696   4.038   3.787   0.223 -0.1836  0.4170 -0.0657
10069TIP3   OH251697   0.273   5.056  14.615 -0.2874  0.2797  0.1880
10069TIP3    H151698   0.349   5.062  14.557 -0.0908  0.6582  0.4812
10069TIP3    H251699   0.228   5.140  14.604 -0.4409  0.2150  0.3204
10070TIP3   OH251700   0.203   0.014   2.053  0.2262  0.5347 -0.0421
10070TIP3    H151701   0.174  -0.061   2.105 -0.0831 -0.2023 -1.2451
10070TIP3    H251702   0.273   0.053   2.105  2.3438 -2.2194 -0.5403
10071TIP3   OH251703   3.598   0.222   1.621  0.5067  0.4131  0.3788
10071TIP3    H151704   3.523   0.230   1.562 -0.1727 -0.1306  1.1460
10071TIP3    H251705   3.614   0.311   1.651  1.0452  0.7427 -0.8288
10072TIP3   OH251706   5.637   4.546  11.167  0.1137 -0.2146 -0.3381
10072TIP3    H151707   5.594   4.582  11.090 -0.3143 -0.7009 -0.3323
10072TIP3    H251708   5.702   4.485  11.133  0.6719  0.3724 -0.3396
10073TIP3   OH251709   2.545   4.349   5.973  0.3186  0.2466  0.0196
10073TIP3    H151710   2.641   4.342   5.972  0.6052  2.7080 -2.1568
10073TIP3    H251711   2.525   4.391   6.057  0.6357 -3.5421  2.2246
10074TIP3   OH251712   1.746   5.544  12.956 -0.7262 -0.5597 -0.1284
10074TIP3    H151713   1.739   5.624  12.904 -1.2018 -0.2185  0.4472
10074TIP3    H251714   1.673   5.549  13.018  0.1892 -0.6397  0.9945
10075TIP3   OH251715   2.437   1.396   5.251 -0.2800  0.0410 -0.3067
10075TIP3    H151716   2.515   1.354   5.215 -0.4499  0.1299 -0.7799
10075TIP3    H251717   2.471   1.471   5.300 -0.1383  0.7939 -1.5183
10076TIP3   OH251718   5.034   1.269  13.522  0.0975 -0.2259 -0.1363
10076TIP3    H151719   4.953   1.319  13.530  1.3111  2.1147 -1.5143
10076TIP3    H251720   5.100   1.333  13.493  2.2451 -2.2172  0.0192
10077TIP3   OH251721   2.742   4.996   4.992 -0.5967  0.1472  0.2942
10077TIP3    H151722   2.661   5.019   4.948  0.2728  1.8609 -0.5428
10077TIP3    H251723   2.783   5.081   5.011  1.0524 -0.6678  0.5478
10078TIP3   OH251724   0.995   4.842   4.460  0.4815 -0.2753  0.0930
10078TIP3    H151725   1.015   4.818   4.370  0.4375 -2.3974  0.5863
10078TIP3    H251726   1.074   4.885   4.492  0.5990  0.2300 -0.8537
10079TIP3   OH251727   4.920   0.266  15.406 -0.2249 -0.2859 -0.0686
10079TIP3    H151728   4.913   0.172  15.424  0.2253 -0.2969  0.0707
10079TIP3    H251729   4.830   0.297  15.405 -0.3802 -0.7359 -0.1941
10080TIP3   OH251730   4.717   3.584  16.021  0.1394 -0.0992  0.2138
10080TIP3    H151731   4.656   3.540  15.962  0.1271  0.2636 -0.0485
10080TIP3    H251732   4.662   3.626  16.087  0.0002  1.2605 -0.7121
10081TIP3   OH251733   6.157   4.014  12.605  0.0448  0.0907 -0.1058
10081TIP3    H151734   6.142   4.021  12.511  2.3565 -2.6093 -0.8242
10081TIP3    H251735   6.080   3.969  12.639 -1.3029  2.0174 -0.4025
10082TIP3   OH251736   2.601   4.497   3.353  0.1987  0.6371 -0.1161
10082TIP3    H151737   2.554   4.574   3.385 -0.4294  0.5646 -0.8404
10082TIP3    H251738   2.544   4.423   3.379  1.2985  0.2975  1.5258
10083TIP3   OH251739   2.865   3.482   0.716 -0.3366  0.3786 -0.4712
10083TIP3    H151740   2.823   3.506   0.799  0.1403 -1.1471  0.2460
10083TIP3    H251741   2.952   3.451   0.741 -1.1251 -2.7094 -1.1755
10084TIP3   OH251742   3.594   3.743  11.447  0.7744 -0.4898 -0.1597
10084TIP3    H151743   3.658   3.790  11.501  0.3752  0.1063 -0.1917
10084TIP3    H251744   3.513   3.744  11.499 -0.0578  1.4664 -1.3846
10085TIP3   OH251745   0.068   1.542  13.394  0.5316 -0.1121  0.4240
10085TIP3    H151746   0.081   1.458  13.350 -3.8353 -0.7147 -0.1323
10085TIP3    H251747   0.056   1.605  13.322 -1.0809 -0.0169  0.7512
10086TIP3   OH251748   0.481   4.354  10.446 -0.0700 -0.5324  0.0137
10086TIP3    H151749   0.441   4.437  10.472  1.2469  0.2934 -0.5296
10086TIP3    H251750   0.574   4.364  10.467  0.3341 -1.3439 -1.2789
10087TIP3   OH251751   1.080   1.401   1.980  0.3541 -0.4123 -0.0474
10087TIP3    H151752   1.066   1.496   1.984 -0.6622 -0.5626  4.0806
10087TIP3    H251753   1.175   1.391   1.984  0.5879  0.3337 -2.1308
10088TIP3   OH251754   1.624   3.352  13.826  0.1159 -0.1175  0.5947
10088TIP3    H151755   1.649   3.436  13.786 -0.7438 -0.4087 -0.5957
10088TIP3    H251756   1.707   3.311  13.850  0.5348  1.4122  1.9510
10089TIP3   OH251757   0.152   4.369  15.786  0.3605  0.1227 -0.2555
10089TIP3    H151758   0.155   4.419  15.704  0.7978 -2.0137 -1.6337
10089TIP3    H251759   0.067   4.393  15.825 -0.0311  0.9090 -1.5193
10090TIP3   OH251760   4.868   0.367   1.238  0.1451  0.2019 -0.2072
10090TIP3    H151761   4.782   0.358   1.197 -0.2521  0.1787  0.6123
10090TIP3    H251762   4.878   0.461   1.254  0.0111  0.1404  0.2449
10091TIP3   OH251763   6.496   6.423  13.740  0.1677 -0.3023 -0.7576
10091TIP3    H151764   6.553   6.347  13.755 -1.2320 -1.6000 -1.7191
10091TIP3    H251765   6.514   6.450  13.650  0.4102  0.3058 -0.5341
10092TIP3   OH251766   0.887   4.657   5.890  0.1176  0.0257 -0.6191
10092TIP3    H151767   0.847   4.598   5.953 -1.9383  2.2994  0.3548
10092TIP3    H251768   0.968   4.686   5.932 -0.1288 -0.1910  0.0206
10093TIP3   OH251769   4.762   6.468  14.125 -0.3087  0.7927 -0.2806
10093TIP3    H151770   4.683   6.521  14.137 -0.2015  0.7373  0.7480
10093TIP3    H251771   4.762   6.407  14.199  0.1774  0.1251 -0.8189
10094TIP3   OH251772   2.814   1.943   6.312 -0.2279 -0.3050 -0.3237
10094TIP3    H151773   2.801   2.038   6.309 -1.5066 -0.3970  1.0907
10094TIP3    H251774   2.823   1.923   6.405 -1.2484 -1.7041 -0.5016
10095TIP3   OH251775   3.497   3.405   5.207  0.2924  0.3903 -0.0250
10095TIP3    H151776   3.550   3.325   5.217  0.2429  0.2877 -0.5589
10095TIP3    H251777   3.527   3.444   5.125 -0.9201 -0.0271 -0.7002
10096TIP3   OH251778   5.691   6.745  10.819  0.1991  0.1382 -0.5094
10096TIP3    H151779   5.655   6.812  10.878  0.8303 -0.0007  0.0512
10096TIP3    H251780   5.617   6.719  10.764 -0.6101 -0.2593  0.7171
10097TIP3   OH251781   6.516   4.189   0.276 -0.3447  0.0341 -0.0415
10097TIP3    H151782   6.438   4.177   0.330 -0.5857 -1.3451 -0.6422
10097TIP3    H251783   6.543   4.279   0.292 -1.2762  0.1204  1.2138
10098TIP3   OH251784   3.654   1.922   3.653  0.6081 -0.2998  0.0950
10098TIP3    H151785   3.629   1.829   3.653  0.7070 -0.3314  0.5094
10098TIP3    H251786   3.616   1.957   3.573  0.4322 -0.6639  0.0143
10099TIP3   OH251787   5.876   2.804  15.739  0.7091  0.5352 -0.2326
10099TIP3    H151788   5.803   2.860  15.713 -0.4669 -0.8739 -0.0692
10099TIP3    H251789   5.940   2.816  15.669  0.0978  1.3559 -0.6762
10100TIP3   OH251790   6.171   0.316  12.413 -0.0147 -0.2926  0.1543
10100TIP3    H151791   6.152   0.246  12.351  1.1234 -0.7405  0.2819
10100TIP3    H251792   6.093   0.371  12.412 -0.7516 -1.3091 -0.2879
10101TIP3   OH251793   4.728   6.100  15.374 -0.0169 -0.1158 -0.4692
10101TIP3    H151794   4.797   6.093  15.441 -1.3636 -0.5802  0.9315
10101TIP3    H251795   4.769   6.066  15.295  1.5894  0.2775  0.1510
10102TIP3   OH251796   6.045   4.943  11.802 -0.0244 -1.0477  0.3246
10102TIP3    H151797   5.997   4.977  11.877 -2.0458 -0.9496 -0.9437
10102TIP3    H251798   6.065   4.852  11.825 -0.5254 -0.9811  1.0242
10103TIP3   OH251799   4.017   5.624   0.486 -0.3388 -0.1544  0.3148
10103TIP3    H151800   4.043   5.605   0.576  0.7892  1.5878  0.4116
10103TIP3    H251801   4.099   5.642   0.440 -1.0423  1.7327 -0.3297
10104TIP3   OH251802   1.263   6.445   3.931 -0.1704 -0.0629 -0.2458
10104TIP3    H151803   1.291   6.536   3.931 -0.4126  0.0171 -0.7835
10104TIP3    H251804   1.193   6.441   3.996 -0.2814  0.1765 -0.3495
10105TIP3   OH251805   6.661   1.730  11.866  0.4216 -0.6565  0.1777
10105TIP3    H151806   6.626   1.673  11.797 -1.0556 -0.5934  0.8239
10105TIP3    H251807   6.744   1.691  11.890 -0.4186 -2.4013  0.4007
10106TIP3   OH251808   0.094   0.342  16.577 -0.0890  0.1789  0.2425
10106TIP3    H151809   0.077   0.250  16.555 -0.5154  0.3884 -0.3070
10106TIP3    H251810   0.190   0.349  16.578  0.2128 -1.2927  4.4687
10107TIP3   OH251811   3.231   3.398   3.971  0.5508  0.7856  0.3616
10107TIP3    H151812   3.213   3.432   4.058  0.6877 -0.4739  0.9049
10107TIP3    H251813   3.240   3.303   3.983  0.4915  0.5748 -1.0309
10108TIP3   OH251814   6.486   4.057   4.108 -0.3785  0.0650 -0.0416
10108TIP3    H151815   6.405   4.036   4.155 -0.1798  0.0519  0.2924
10108TIP3    H251816   6.456   4.103   4.029 -0.6362  1.7140  0.9570
10109TIP3   OH251817   2.383   2.543   4.797  0.5888  0.1128  0.3310
10109TIP3    H151818   2.374   2.627   4.842  0.6964 -0.0956  0.7407
10109TIP3    H251819   2.302   2.497   4.818  0.7050 -0.0439  0.4326
10110TIP3   OH251820   4.712   5.289   0.278 -0.2336 -0.5104 -0.0295
10110TIP3    H151821   4.617   5.301   0.279 -0.2495 -0.6628  0.2978
10110TIP3    H251822   4.726   5.207   0.230 -0.2570 -0.4179 -0.1965
10111TIP3   OH251823   6.490   5.067  10.865  0.4918  0.4607 -0.0976
10111TIP3    H151824   6.528   5.148  10.900  2.3498 -0.6196  0.5599
10111TIP3    H251825   6.404   5.092  10.832  1.4224  2.9065 -0.8543
10112TIP3   OH251826   5.442   2.838   2.898  0.0947 -0.5507 -0.2105
10112TIP3    H151827   5.514   2.776   2.910 -0.1877 -1.0813 -1.1003
10112TIP3    H251828   5.455   2.905   2.965  2.3165  0.2210 -1.3328
10113TIP3   OH251829   1.118   5.051  15.938  0.0277  0.5824  0.4237
10113TIP3    H151830   1.109   4.973  15.992 -0.4812  0.8841  0.7849
10113TIP3    H251831   1.213   5.060  15.925  0.0322 -2.0583 -2.5564
10114TIP3   OH251832   2.248   5.954   5.729  0.1415 -0.3314 -0.1431
10114TIP3    H151833   2.203   6.037   5.712 -0.7960 -0.9426 -0.7065
10114TIP3    H251834   2.217   5.895   5.661  1.3050 -0.9722 -0.1457
10115TIP3   OH251835   1.537   3.860  15.292  0.3068  0.2529  0.2660
10115TIP3    H151836   1.502   3.934  15.241  0.8113  0.0540 -0.3830
10115TIP3    H251837   1.545   3.894  15.381  1.6085  1.3649 -0.2330
10116TIP3   OH251838   3.391   4.159   4.544 -0.1530  0.0492  0.1237
10116TIP3    H151839   3.345   4.155   4.460  0.3774 -0.0488 -0.1636
10116TIP3    H251840   3.463   4.221   4.529  0.9523 -1.2258  0.0078
10117TIP3   OH251841   4.424   2.116   2.777 -0.2566  0.3181  0.0607
10117TIP3    H151842   4.428   2.102   2.682 -0.8134  1.0356 -0.0742
10117TIP3    H251843   4.454   2.033   2.814 -0.4763 -0.1381 -0.7424
10118TIP3   OH251844   6.605   3.421   0.496 -0.1735  0.0325  0.5522
10118TIP3    H151845   6.605   3.330   0.465  0.4376 -0.0390  0.7484
10118TIP3    H251846   6.653   3.468   0.428 -3.2106  0.8260 -1.2340
10119TIP3   OH251847   0.264   2.021   1.639 -0.5090  0.7791  0.3717
10119TIP3    H151848   0.233   1.993   1.726 -2.0334 -2.9332 -1.1673
10119TIP3    H251849   0.359   2.023   1.647 -0.5941 -0.0571  1.9760
10120TIP3   OH251850   1.485   0.409   5.638  0.0167 -0.0703  0.0166
10120TIP3    H151851   1.534   0.489   5.618  1.6273 -0.7248  1.1070
10120TIP3    H251852   1.449   0.425   5.726 -1.7868  0.3884 -0.7557
10121TIP3   OH251853   1.390   1.446  10.619  0.0121 -0.7352  0.2964
10121TIP3    H151854   1.435   1.524  10.586  0.8576 -0.9208  0.9648
10121TIP3    H251855   1.407   1.447  10.713 -1.5098 -0.7560  0.5904
10122TIP3   OH251856   3.285   2.558   4.217  0.1668 -0.1947  0.0047
10122TIP3    H151857   3.336   2.481   4.243 -0.4007 -0.4645  0.3431
10122TIP3    H251858   3.335   2.632   4.249  1.4554 -0.3349 -1.5794
10123TIP3   OH251859   4.075   5.076   3.259  0.1115  0.2896 -0.6307
10123TIP3    H151860   4.048   5.154   3.307  1.2213 -0.0771  0.6442
10123TIP3    H251861   4.135   5.109   3.192 -0.1865  0.6273 -0.7362
10124TIP3   OH251862   1.059   2.908   0.589  0.4288  0.5959  0.6856
10124TIP3    H151863   1.019   2.974   0.533  0.0675 -0.0559  0.1665
10124TIP3    H251864   1.003   2.830   0.580  0.7654  0.2545  1.3932
10125TIP3   OH251865   4.398   1.791  16.424  0.4946  0.2796  0.3837
10125TIP3    H151866   4.368   1.708  16.461 -0.6664  0.2320 -0.6095
10125TIP3    H251867   4.424   1.770  16.335 -0.4444  1.0803 -0.1050
10126TIP3   OH251868   3.026   4.904   1.754 -0.3600  0.3343  0.5825
10126TIP3    H151869   3.071   4.899   1.669 -0.7575 -0.8825  0.4212
10126TIP3    H251870   3.029   4.997   1.777  2.2782  0.3461  0.6041
10127TIP3   OH251871   3.321   4.854  15.752 -0.2018 -0.5359 -0.6468
10127TIP3    H151872   3.256   4.905  15.704 -0.3041  1.0616  1.0711
10127TIP3    H251873   3.357   4.916  15.816  1.1579 -2.0959  0.1699
10128TIP3   OH251874   5.915   0.777  14.376 -0.3762  0.6466 -0.1480
10128TIP3    H151875   5.974   0.825  14.319  0.5398 -0.5403 -0.2398
10128TIP3    H251876   5.851   0.738  14.317  2.2391 -3.0254 -0.8830
10129TIP3   OH251877   3.776   6.567  16.247  0.1879 -0.0438  0.4018
10129TIP3    H151878   3.767   6.502  16.317 -0.7601 -0.8073 -0.3920
10129TIP3    H251879   3.777   6.515  16.167 -0.1457  0.9010 -0.2303
10130TIP3   OH251880   5.636   0.175   4.445 -0.5024  0.1805  0.2035
10130TIP3    H151881   5.547   0.142   4.432 -0.3591 -0.6454  1.1650
10130TIP3    H251882   5.624   0.258   4.493 -0.7514 -0.0957  0.6303
10131TIP3   OH251883   1.198   2.922   3.710 -0.4759 -0.2573  0.0219
10131TIP3    H151884   1.110   2.906   3.676 -0.4174  1.2403 -0.9375
10131TIP3    H251885   1.226   3.003   3.666  1.7873 -1.2349 -0.4843
10132TIP3   OH251886   4.570   1.560   1.969  0.4115  0.3267 -0.3475
10132TIP3    H151887   4.614   1.562   1.884  0.5078  1.7652 -0.2846
10132TIP3    H251888   4.534   1.471   1.975  1.9399 -0.3948 -1.0884
10133TIP3   OH251889   1.991   1.339  12.411 -0.3102  0.3498  0.2073
10133TIP3    H151890   2.054   1.292  12.356  1.2000  2.9638 -0.4451
10133TIP3    H251891   2.036   1.348  12.495  0.2289  2.1927 -0.2491
10134TIP3   OH251892   6.540   3.798   6.451 -0.4871 -0.1565  0.4633
10134TIP3    H151893   6.446   3.797   6.468 -0.2053 -0.1095  2.2149
10134TIP3    H251894   6.574   3.718   6.492  0.2228 -0.3054 -0.3612
10135TIP3   OH251895   2.577   5.154   4.868 -0.1246  0.2892 -0.2786
10135TIP3    H151896   2.488   5.155   4.833 -0.3437 -0.9788  0.1973
10135TIP3    H251897   2.571   5.209   4.947 -0.7172 -0.5188  0.2550
10136TIP3   OH251898   2.895   0.121  14.252 -0.5173  0.1446 -0.2276
10136TIP3    H151899   2.888   0.047  14.312 -1.3792 -0.5878 -1.1954
10136TIP3    H251900   2.835   0.101  14.181 -0.8858  1.8593 -0.4564
10137TIP3   OH251901   0.064   0.226  14.254 -0.2632 -0.9203 -0.2165
10137TIP3    H151902  -0.013   0.170  14.266  0.1162 -1.0791  1.8760
10137TIP3    H251903   0.039   0.310  14.291  0.7253 -1.1394  1.0044
10138TIP3   OH251904   2.475   2.104  16.314 -0.6359  0.1194  0.5075
10138TIP3    H151905   2.550   2.045  16.306 -0.8746 -0.1294  0.0466
10138TIP3    H251906   2.429   2.096  16.230 -2.5407 -1.5908  1.6052
10139TIP3   OH251907   4.244   2.403  16.804 -0.1342 -0.1927 -0.0432
10139TIP3    H151908   4.320   2.358  16.766 -1.7161 -2.0541 -1.1271
10139TIP3    H251909   4.178   2.402  16.735 -1.3401  0.9784  1.0410
10140TIP3   OH251910   1.081   1.991  10.848 -0.3828  0.0943 -0.1367
10140TIP3    H151911   1.083   2.074  10.801  0.1097  0.4156  0.4327
10140TIP3    H251912   1.154   1.996  10.910  0.9949 -1.5977 -1.4986
10141TIP3   OH251913   2.996   4.708   3.871 -0.2145  0.4516  0.4888
10141TIP3    H151914   2.912   4.719   3.915 -0.0202  1.7275  0.5860
10141TIP3    H251915   2.975   4.669   3.787 -0.7856 -0.2194  0.9265
10142TIP3   OH251916   5.842   2.642   5.899  0.0322  0.3433 -0.7623
10142TIP3    H151917   5.765   2.697   5.884  0.7356  2.0985  1.4826
10142TIP3    H251918   5.885   2.638   5.813 -1.9484  0.2106 -1.8100
10143TIP3   OH251919   4.044   1.400   0.094 -0.3905 -0.0855 -0.3678
10143TIP3    H151920   4.117   1.458   0.112  1.4197 -1.7067 -2.0339
10143TIP3    H251921   4.085   1.318   0.066 -2.8091 -0.5146 -3.1519
10144TIP3   OH251922   5.131   2.361   5.667  0.1561 -0.4747 -0.5601
10144TIP3    H151923   5.148   2.381   5.759  0.2361 -0.3969 -0.5915
10144TIP3    H251924   5.094   2.273   5.668  2.1319 -1.3697 -0.6234
10145TIP3   OH251925   1.314   4.637   2.951 -0.2159 -0.2872  0.4719
10145TIP3    H151926   1.405   4.663   2.939 -0.0919 -0.7443  0.3804
10145TIP3    H251927   1.300   4.643   3.046  0.0379 -0.6078  0.5340
10146TIP3   OH251928   5.897   5.407  14.021  0.0860 -0.0057 -0.2112
10146TIP3    H151929   5.847   5.387  14.100 -0.4482 -0.0906 -0.5683
10146TIP3    H251930   5.912   5.501  14.025 -0.6294  0.1175 -0.4118
10147TIP3   OH251931   2.823   6.459   1.862  0.2778 -1.0669  0.5224
10147TIP3    H151932   2.892   6.477   1.799  0.0652 -1.1841  0.2557
10147TIP3    H251933   2.869   6.430   1.941  0.6389  0.7597  1.0230
10148TIP3   OH251934   3.913   4.668   1.189 -0.4738 -0.0442  0.5277
10148TIP3    H151935   3.867   4.653   1.272 -1.1956  1.1462  0.3589
10148TIP3    H251936   3.875   4.748   1.154 -0.1760 -0.5215 -0.9685
10149TIP3   OH251937   0.393   3.076   0.323  0.5392  0.7161 -0.5993
10149TIP3    H151938   0.369   3.066   0.415  1.3708  1.1810 -0.3176
10149TIP3    H251939   0.381   3.169   0.305 -0.5325  0.4610 -1.2367
10150TIP3   OH251940   2.094   1.449  15.500 -0.0185  0.2216 -0.1548
10150TIP3    H151941   2.090   1.356  15.479 -1.2123  0.3566 -0.5904
10150TIP3    H251942   2.181   1.477  15.469 -0.5191 -0.2503 -2.1214
10151TIP3   OH251943   4.919   1.256   4.181 -0.0562  0.3988  0.2225
10151TIP3    H151944   4.988   1.298   4.130  1.2865 -1.2367  0.5824
10151TIP3    H251945   4.955   1.170   4.203 -3.4003 -1.8670 -2.2368
10152TIP3   OH251946   1.705   0.207   6.009  0.3323 -0.0127  0.1402
10152TIP3    H151947   1.667   0.207   5.921  0.1179 -0.2211  0.2309
10152TIP3    H251948   1.632   0.232   6.067  0.4525  0.0505  0.2644
10153TIP3   OH251949   5.481   3.058   1.409  0.4849  0.0288 -0.6151
10153TIP3    H151950   5.440   3.143   1.425  0.0466  0.0556 -1.7410
10153TIP3    H251951   5.487   3.017   1.495 -1.4210  0.2505 -0.3397
10154TIP3   OH251952   2.064   4.847  17.040 -0.2420 -0.1859 -0.0529
10154TIP3    H151953   2.138   4.896  17.076  0.5763 -1.5651  0.1861
10154TIP3    H251954   2.012   4.913  16.994  1.4579  0.7040 -0.7809
10155TIP3   OH251955   3.370   5.009   3.006 -0.2311 -0.5215  0.0306
10155TIP3    H151956   3.312   4.934   3.014 -0.7154 -0.0626  1.0014
10155TIP3    H251957   3.336   5.058   2.931 -0.3313 -0.9058 -0.1742
10156TIP3   OH251958   6.607   3.169   4.444 -0.7223  0.3098 -0.3680
10156TIP3    H151959   6.658   3.217   4.509 -0.6012 -0.0882 -0.1677
10156TIP3    H251960   6.601   3.228   4.369 -0.3271  0.5233 -0.2325
10157TIP3   OH251961   4.004   2.674  11.117 -0.3393  0.3258 -0.0445
10157TIP3    H151962   4.085   2.701  11.160 -0.7540  0.8367  0.4382
10157TIP3    H251963   4.023   2.679  11.023  1.0007 -2.0918  0.0297
10158TIP3   OH251964   0.077   1.155  11.268 -0.0506 -0.1491  0.5039
10158TIP3    H151965   0.137   1.163  11.194 -0.9542 -0.6001 -0.3082
10158TIP3    H251966  -0.005   1.123  11.229 -0.3325 -1.0830  1.8063
10159TIP3   OH251967   6.644   3.151   5.400  0.1756  0.1296 -0.4664
10159TIP3    H151968   6.649   3.082   5.465 -1.3475 -0.1382 -0.5994
10159TIP3    H251969   6.625   3.231   5.450  0.2730  0.1488 -0.4608
10160TIP3   OH251970   4.203   6.719   1.506 -0.2281  0.0949 -0.2048
10160TIP3    H151971   4.178   6.633   1.473  1.6110 -0.6238  0.1403
10160TIP3    H251972   4.194   6.712   1.601 -1.3442  0.7496 -0.2386
10161TIP3   OH251973   4.852   5.248   4.775 -0.5490  0.3993 -0.3517
10161TIP3    H151974   4.920   5.271   4.839  0.0708  1.2270 -1.2752
10161TIP3    H251975   4.888   5.276   4.691 -1.0827 -1.2201 -1.1687
10162TIP3   OH251976   4.349   3.882   5.469  0.5647 -0.1927  0.0164
10162TIP3    H151977   4.295   3.960   5.476  2.1216  0.9950 -0.6623
10162TIP3    H251978   4.419   3.895   5.534  1.6038 -0.3470 -1.0379
10163TIP3   OH251979   4.239   2.011   3.682 -0.6691  0.4471 -0.0207
10163TIP3    H151980   4.221   2.044   3.770  1.6954 -0.4141  0.8671
10163TIP3    H251981   4.305   2.071   3.647 -1.7387  0.9122 -1.3547
10164TIP3   OH251982   2.169   3.059   2.109  0.2714 -0.0884 -0.3402
10164TIP3    H151983   2.156   3.027   2.198  0.5148  0.2290 -0.1886
10164TIP3    H251984   2.154   3.153   2.115  1.2072  0.0804 -0.4418
10165TIP3   OH251985   1.032   2.910  12.732  0.3820 -0.0315  0.1578
10165TIP3    H151986   1.026   2.946  12.820 -0.0589 -2.1788  1.0631
10165TIP3    H251987   1.033   2.815  12.744 -0.3971 -0.4141 -2.1978
10166TIP3   OH251988   5.062   4.867  13.416 -0.7026  0.1622 -0.6451
10166TIP3    H151989   4.995   4.923  13.455 -0.6422 -0.9522  1.1195
10166TIP3    H251990   5.062   4.892  13.323 -1.8884  1.8318 -0.2405
10167TIP3   OH251991   5.787   0.433   4.896  0.2181  0.2412 -0.2185
10167TIP3    H151992   5.723   0.361   4.899  0.3486  0.0475 -1.5796
10167TIP3    H251993   5.800   0.456   4.988 -0.1679 -1.1754  0.2256
10168TIP3   OH251994   4.718   3.110   1.536  0.4008  0.3096  0.7196
10168TIP3    H151995   4.691   3.154   1.616 -1.2678  0.2369  0.2457
10168TIP3    H251996   4.673   3.158   1.466  0.6589 -0.5162 -0.0400
10169TIP3   OH251997   1.799   1.084   2.356 -0.3578  0.0598 -0.5804
10169TIP3    H151998   1.743   1.010   2.379 -2.4464  1.1225 -1.9829
10169TIP3    H251999   1.860   1.049   2.291 -0.0273 -0.8628  0.2035
10170TIP3   OH252000   1.190   1.465  11.413  0.3093  0.0950  0.0677
10170TIP3    H152001   1.170   1.537  11.473 -1.4858 -0.3013 -0.0005
10170TIP3    H252002   1.106   1.419  11.401  0.9361 -0.7152 -1.5861
10171TIP3   OH252003   2.027   3.284   4.392 -0.1507 -0.1127 -0.2722
10171TIP3    H152004   2.080   3.361   4.369 -1.7343  1.2667  0.4265
10171TIP3    H252005   2.063   3.255   4.476 -0.6866  1.0562  0.3946
10172TIP3   OH252006   4.052   6.039   2.404 -0.2220  0.4414 -0.5258
10172TIP3    H152007   4.062   6.013   2.313 -1.4977  1.0474 -0.8564
10172TIP3    H252008   4.134   6.011   2.446 -0.1045 -0.9333 -1.5885
10173TIP3   OH252009   3.499   0.665  15.554 -0.2929 -0.2618  0.1302
10173TIP3    H152010   3.512   0.709  15.470 -1.8618  1.4125  0.6939
10173TIP3    H252011   3.411   0.690  15.581 -0.8009 -2.8127  1.1233
10174TIP3   OH252012   1.992   1.625  10.588 -0.3992 -0.0227  0.2314
10174TIP3    H152013   1.909   1.665  10.613 -1.1081  1.0021 -3.2160
10174TIP3    H252014   2.057   1.667  10.644 -2.0918 -0.7641  2.9411
10175TIP3   OH252015   2.156   1.952  16.777  0.1720  0.1298  0.6788
10175TIP3    H152016   2.096   1.884  16.747 -0.5187  0.3938  1.4315
10175TIP3    H252017   2.243   1.916  16.761 -0.1716 -0.2905 -0.3657
10176TIP3   OH252018   2.780   4.166  13.264  0.1681 -0.6449 -0.3671
10176TIP3    H152019   2.804   4.134  13.351 -2.5355  0.2803  0.8348
10176TIP3    H252020   2.728   4.096  13.226 -0.6958 -0.1050 -0.2083
10177TIP3   OH252021   1.568   6.224  12.054  0.1281  0.1668  0.3946
10177TIP3    H152022   1.481   6.185  12.068  0.1437  0.0232  0.1127
10177TIP3    H252023   1.590   6.199  11.964 -0.2278  1.5329 -0.0926
10178TIP3   OH252024   6.437   3.531  17.228 -0.2385 -0.8128 -0.2910
10178TIP3    H152025   6.500   3.468  17.264  0.4523  0.5679  1.0157
10178TIP3    H252026   6.460   3.538  17.136  1.6546 -0.2482  0.1818
10179TIP3   OH252027   4.219   6.202  14.930 -0.4959  0.2717  0.0200
10179TIP3    H152028   4.298   6.223  14.979  0.5282 -0.5313 -1.2059
10179TIP3    H252029   4.240   6.226  14.840 -2.1704  1.3230 -0.1417
10180TIP3   OH252030   2.175   5.002  13.661 -0.0881 -0.2339  0.0748
10180TIP3    H152031   2.227   5.036  13.589  1.5270 -0.2068  1.1972
10180TIP3    H252032   2.211   4.915  13.678 -0.7993 -0.4574  0.5060
10181TIP3   OH252033   1.510   5.185  16.078  0.5016  0.0085  0.2742
10181TIP3    H152034   1.604   5.197  16.093  0.5529 -1.4725  1.3315
10181TIP3    H252035   1.478   5.147  16.159 -0.7842 -0.6923 -0.5404
10182TIP3   OH252036   5.532   1.465  12.705  0.1758 -0.2317 -0.2161
10182TIP3    H152037   5.586   1.450  12.783 -0.7940 -0.7313  0.3803
10182TIP3    H252038   5.442   1.456  12.736 -0.2160 -1.8472 -1.6789
10183TIP3   OH252039   6.012   6.391   6.545 -0.4082  0.1229 -0.0385
10183TIP3    H152040   6.009   6.459   6.613  0.1734 -1.3724  1.5513
10183TIP3    H252041   5.922   6.358   6.540 -0.6756  0.9258 -0.7603
10184TIP3   OH252042   6.621   5.675  12.791 -0.4364 -0.1504  0.1618
10184TIP3    H152043   6.714   5.674  12.768  0.0968 -0.8181  2.1651
10184TIP3    H252044   6.619   5.696  12.885 -2.2817 -0.5914  0.2719
10185TIP3   OH252045   1.574   2.899  11.163 -0.5650 -0.1087  0.4168
10185TIP3    H152046   1.558   2.808  11.138 -0.7892 -0.6880  2.5193
10185TIP3    H252047   1.605   2.940  11.082 -1.7174 -1.7081 -0.9312
10186TIP3   OH252048   2.872   0.324   0.292 -0.2973 -0.1963 -0.4689
10186TIP3    H152049   2.865   0.322   0.388 -0.0914 -1.1686 -0.4667
10186TIP3    H252050   2.841   0.412   0.268 -0.1956  0.1216  0.4973
10187TIP3   OH252051   5.587   1.376   1.094 -0.3936 -0.1730 -0.4453
10187TIP3    H152052   5.507   1.428   1.097  0.1311  0.7120 -1.3080
10187TIP3    H252053   5.603   1.362   1.000 -0.5295 -1.9233 -0.2406
10188TIP3   OH252054   4.277   5.061  11.968 -0.4446 -0.4036 -0.1715
10188TIP3    H152055   4.271   5.136  11.909  3.3478 -1.4388 -2.1516
10188TIP3    H252056   4.334   5.091  12.039  0.7202 -1.1914 -0.7418
10189TIP3   OH252057   4.785   3.472   1.106 -0.6280 -0.6692 -1.0218
10189TIP3    H152058   4.731   3.514   1.039 -0.4919 -0.7543 -1.1861
10189TIP3    H252059   4.874   3.480   1.072 -0.4016  0.5149 -0.2054
10190TIP3   OH252060   4.900   3.181   3.044 -0.0055 -0.0420 -0.3470
10190TIP3    H152061   4.848   3.241   2.990 -0.3637 -0.7545 -0.8105
10190TIP3    H252062   4.910   3.103   2.990  0.6656 -0.3106  0.1527
10191TIP3   OH252063   0.319   4.816  14.733  0.4001  0.2954 -0.6048
10191TIP3    H152064   0.324   4.728  14.694  0.6286  0.0775 -0.0934
10191TIP3    H252065   0.332   4.876  14.659  2.1616 -0.1259 -0.6884
10192TIP3   OH252066   6.753   4.281   3.279 -0.3086 -0.0834  0.7344
10192TIP3    H152067   6.822   4.274   3.214  0.1414 -2.3027  1.3793
10192TIP3    H252068   6.733   4.375   3.283  0.8570  0.2978 -1.2976
10193TIP3   OH252069   6.170   1.278  12.550  0.0383  0.1891 -0.2318
10193TIP3    H152070   6.101   1.318  12.603  0.1949 -0.1857  0.2652
10193TIP3    H252071   6.125   1.210  12.500 -0.2149  0.9227 -1.0237
10194TIP3   OH252072   2.718   6.213  17.011 -0.2970 -0.2355 -0.2471
10194TIP3    H152073   2.682   6.256  17.088 -0.3729  0.0352 -0.4342
10194TIP3    H252074   2.702   6.273  16.939  0.3841 -0.1766 -0.3601
10195TIP3   OH252075   2.010   6.371   5.252 -0.4349  0.0566  0.1612
10195TIP3    H152076   2.046   6.436   5.191 -2.7010  0.6506 -0.6489
10195TIP3    H252077   1.985   6.423   5.329 -0.6209 -0.1515  0.2409
10196TIP3   OH252078   4.649   3.128   6.604 -0.2943 -0.2296  0.0415
10196TIP3    H152079   4.562   3.140   6.642 -0.4428 -2.1804  0.4022
10196TIP3    H252080   4.710   3.154   6.673 -0.5815 -2.4886  1.2190
10197TIP3   OH252081   3.981   1.749  13.520  0.0378  0.1715  0.1278
10197TIP3    H152082   3.988   1.724  13.428  0.7914 -0.7187  0.4174
10197TIP3    H252083   3.918   1.687  13.558 -0.4757  0.7041  0.1567
10198TIP3   OH252084   5.377   6.030  16.792 -0.1756  0.5102  0.0165
10198TIP3    H152085   5.325   6.027  16.712 -0.1297  0.0682  0.0015
10198TIP3    H252086   5.466   6.048  16.763 -0.4813  2.3442  0.1187
10199TIP3   OH252087   4.827   2.871   1.475  0.3680  0.1731  0.2202
10199TIP3    H152088   4.892   2.827   1.528  1.7922  1.1380 -0.6481
10199TIP3    H252089   4.818   2.958   1.514 -0.5690 -0.0162  0.4546
10200TIP3   OH252090   3.142   5.551   3.334  1.0462 -0.6805 -0.0412
10200TIP3    H152091   3.214   5.613   3.321  0.7293 -0.5479 -1.2735
10200TIP3    H252092   3.107   5.536   3.246 -1.5193  0.5497  0.6798
10201TIP3   OH252093   4.726   3.446   6.596  0.2751 -0.1062 -0.1664
10201TIP3    H152094   4.739   3.371   6.654 -1.5303 -1.0047 -0.8137
10201TIP3    H252095   4.811   3.490   6.593  0.4888 -0.0831  2.9745
10202TIP3   OH252096   1.029   1.676   6.172  0.1464  0.1553 -0.2568
10202TIP3    H152097   0.934   1.663   6.184  0.3145 -1.5015 -0.4779
10202TIP3    H252098   1.055   1.733   6.244 -1.0491  0.7858 -0.2990
10203TIP3   OH252099   0.915   4.521  15.838  0.1448  0.8580  0.6732
10203TIP3    H152100   0.991   4.562  15.798  0.1682 -0.2087 -0.4498
10203TIP3    H252101   0.939   4.428  15.847 -0.2867  0.8546  2.1576
10204TIP3   OH252102   3.903   4.190   2.807  0.1513  0.7759  0.0532
10204TIP3    H152103   3.962   4.257   2.774  0.1025  0.9414  0.2969
10204TIP3    H252104   3.831   4.187   2.745  1.1317 -0.4796 -1.0789
10205TIP3   OH252105   0.446   2.134   0.697 -0.5904 -0.3751  0.0767
10205TIP3    H152106   0.370   2.141   0.640 -0.9034  2.0524  0.7045
10205TIP3    H252107   0.429   2.054   0.748 -1.7108 -0.9821 -1.1829
10206TIP3   OH252108   0.096   4.982   6.167 -0.5340  0.2856  0.3576
10206TIP3    H152109   0.042   4.948   6.096  1.2924  0.2085 -1.0576
10206TIP3    H252110   0.146   4.905   6.198 -2.0934  0.0515  2.5469
10207TIP3   OH252111   4.554   6.463   2.790 -0.2325 -1.2346  0.3862
10207TIP3    H152112   4.611   6.462   2.713  2.2618  1.8464  1.9569
10207TIP3    H252113   4.491   6.533   2.773 -0.2851 -1.1971  0.7312
10208TIP3   OH252114   0.308   0.768  16.638 -0.0057  0.0167 -0.5547
10208TIP3    H152115   0.336   0.733  16.554  1.2072  0.2421 -0.2564
10208TIP3    H252116   0.295   0.862  16.621 -0.8096 -0.1173 -0.7376
10209TIP3   OH252117   6.592   5.654   5.808 -0.1886  0.3142  0.0484
10209TIP3    H152118   6.572   5.622   5.896 -1.2203 -0.1743 -0.3421
10209TIP3    H252119   6.639   5.581   5.767 -0.8585  0.0283 -0.2218
10210TIP3   OH252120   3.034   2.081   0.996  0.3912 -0.3161  0.0384
10210TIP3    H152121   3.011   2.087   0.903  2.2726  0.6457 -0.4212
10210TIP3    H252122   2.976   2.144   1.039 -0.8051 -1.0946 -0.4005
10211TIP3   OH252123   4.582   6.597   0.589 -0.1219 -0.0090  0.4731
10211TIP3    H152124   4.586   6.561   0.677  3.6932  0.9825  0.8704
10211TIP3    H252125   4.545   6.685   0.600 -2.3624 -0.8836  0.5535
10212TIP3   OH252126   0.474   1.762  16.679 -0.4323 -0.1652 -0.2644
10212TIP3    H152127   0.491   1.808  16.761  0.2143 -0.2271 -0.3602
10212TIP3    H252128   0.532   1.803  16.615 -1.7143  0.6397 -0.9739
10213TIP3   OH252129   1.319   6.368  15.789 -0.7428 -0.3050 -0.1096
10213TIP3    H152130   1.299   6.428  15.860 -2.7949 -2.2797  1.1017
10213TIP3    H252131   1.255   6.390  15.720  1.9640  2.3845 -2.0287
10214TIP3   OH252132   3.382   4.800  14.994 -0.3866  0.5812  0.1963
10214TIP3    H152133   3.339   4.852  15.062  0.2169  2.4879 -0.7953
10214TIP3    H252134   3.461   4.765  15.036  0.8337  3.0570  0.1325
10215TIP3   OH252135   3.650   0.331   4.808  0.1560 -0.1060  0.2655
10215TIP3    H152136   3.685   0.417   4.831  1.9292 -0.8385  0.4132
10215TIP3    H252137   3.555   0.340   4.819  0.4634  1.2153  2.3316
10216TIP3   OH252138   0.553   1.751   4.199 -0.4012 -0.0998 -0.2042
10216TIP3    H152139   0.507   1.745   4.115  0.3200 -0.3813 -0.5932
10216TIP3    H252140   0.493   1.711   4.262 -2.7608  3.6956  0.2493
10217TIP3   OH252141   5.503   4.389  11.364 -0.8393  0.0107  0.2109
10217TIP3    H152142   5.551   4.435  11.295 -0.3087 -0.7364  0.0668
10217TIP3    H252143   5.417   4.432  11.365 -0.4066  0.9209  0.0125
10218TIP3   OH252144   3.255   3.990   5.555 -0.0677  0.0743  0.0625
10218TIP3    H152145   3.335   4.008   5.507  0.0515 -1.2437 -0.2845
10218TIP3    H252146   3.275   3.912   5.607 -1.1596 -0.3842 -0.1604
10219TIP3   OH252147   1.438   6.131   4.884 -0.2510 -0.5039 -0.2364
10219TIP3    H152148   1.438   6.094   4.795 -2.5070 -0.5804 -0.2652
10219TIP3    H252149   1.346   6.151   4.901  0.4328  1.7483  1.1822
10220TIP3   OH252150   0.945   4.286  11.923  0.3219 -0.0139  0.1130
10220TIP3    H152151   0.940   4.214  11.985  1.4311 -1.1547 -1.0635
10220TIP3    H252152   0.932   4.245  11.837 -0.1882  1.3669 -0.5019
10221TIP3   OH252153   5.926   1.329  12.677  0.7103 -0.4061 -0.4650
10221TIP3    H152154   5.836   1.300  12.659  0.9002 -1.2392 -0.0890
10221TIP3    H252155   5.967   1.254  12.720  1.6868 -0.1410 -0.9282
10222TIP3   OH252156   4.153   0.828   0.413 -0.1575 -0.6806  0.0363
10222TIP3    H152157   4.180   0.736   0.401 -0.7093 -0.8391 -0.0171
10222TIP3    H252158   4.070   0.822   0.459 -0.0829 -0.1942  0.2346
10223TIP3   OH252159   4.958   0.863   5.689  0.0727 -0.8630 -0.3304
10223TIP3    H152160   4.907   0.874   5.769 -1.4538 -0.7668 -1.2816
10223TIP3    H252161   5.026   0.799   5.713  0.4150  0.0568  1.3472
10224TIP3   OH252162   0.326   0.272  15.941  0.0321  1.2302  0.1575
10224TIP3    H152163   0.256   0.209  15.925  0.0084  1.3098 -0.0516
10224TIP3    H252164   0.313   0.340  15.874 -0.0101  1.5121  0.4466
10225TIP3   OH252165   4.003   1.635   4.307 -0.3916  0.1315 -0.8120
10225TIP3    H152166   3.975   1.590   4.227  0.2490  1.2251 -1.6874
10225TIP3    H252167   3.944   1.602   4.375 -1.4653 -0.2469 -1.8823
10226TIP3   OH252168   0.006   2.419  11.157 -0.4016  0.0987  0.4042
10226TIP3    H152169   0.077   2.466  11.114  0.0534  0.4810  1.5186
10226TIP3    H252170  -0.032   2.483  11.217 -1.9801  0.0273 -0.4604
10227TIP3   OH252171   4.850   4.471   3.098  0.1671 -0.7740 -0.0795
10227TIP3    H152172   4.862   4.564   3.116  0.4276 -1.0451  1.2803
10227TIP3    H252173   4.938   4.434   3.108 -0.3045 -1.5109  1.7379
10228TIP3   OH252174   0.472   0.797   4.433  0.1642  0.0902 -0.2344
10228TIP3    H152175   0.408   0.828   4.368 -0.7332  0.9078  0.9983
10228TIP3    H252176   0.486   0.705   4.410 -3.2915 -0.8308  0.8290
10229TIP3   OH252177   2.518   6.066   5.030  0.1790 -0.2624  0.1759
10229TIP3    H152178   2.530   6.079   4.936  0.2533  1.0041  0.3494
10229TIP3    H252179   2.472   6.144   5.060  1.3964  0.0202  1.4283
10230TIP3   OH252180   4.992   6.215   4.971 -0.3100  0.2515  0.5598
10230TIP3    H152181   4.943   6.260   4.902  0.3749  0.6607  0.3326
10230TIP3    H252182   4.935   6.142   4.997 -0.5453  0.0372 -0.5048
10231TIP3   OH252183   1.253   6.535   4.926  0.0333  0.1472 -0.0612
10231TIP3    H152184   1.280   6.475   4.996  0.3652 -0.8121 -0.9881
10231TIP3    H252185   1.174   6.495   4.890  1.3338 -0.8254 -1.9770
10232TIP3   OH252186   3.877   1.127  12.176 -0.3073  0.1440  0.6032
10232TIP3    H152187   3.969   1.112  12.155 -0.9008 -0.3612 -2.0566
10232TIP3    H252188   3.854   1.206  12.128 -1.2270  0.3920  1.4153
10233TIP3   OH252189   4.387   6.334   4.906 -0.0125  0.4037 -0.0329
10233TIP3    H152190   4.331   6.257   4.914 -1.5600  1.5892  0.9240
10233TIP3    H252191   4.389   6.372   4.993  0.8362  1.3943 -0.4633
10234TIP3   OH252192   5.959   0.154   1.358 -0.2401 -0.0095  0.0948
10234TIP3    H152193   6.040   0.203   1.347  1.3474 -1.1296  4.6414
10234TIP3    H252194   5.901   0.212   1.406 -1.4521  0.0504 -1.3515
10235TIP3   OH252195   0.911   4.860  11.779 -0.1167 -0.1211 -0.4421
10235TIP3    H152196   0.947   4.946  11.757  1.7550 -1.3542 -2.5908
10235TIP3    H252197   0.901   4.863  11.875  2.4381  1.5822 -0.1266
10236TIP3   OH252198   1.648   0.466  13.357  1.1377  0.3420 -0.1839
10236TIP3    H152199   1.571   0.409  13.360  0.7681  0.7218 -1.8038
10236TIP3    H252200   1.661   0.493  13.448 -0.4643  0.0373  0.1657
10237TIP3   OH252201   1.070   1.129   2.010 -0.2302  0.2405  0.0953
10237TIP3    H152202   1.074   1.221   1.982 -2.0061  0.0178 -1.0231
10237TIP3    H252203   1.105   1.080   1.936  0.0400 -0.0480  0.4097
10238TIP3   OH252204   2.026   4.216   5.877 -0.4407 -0.0135  0.0996
10238TIP3    H152205   1.937   4.250   5.872 -0.1675  1.1554  2.0920
10238TIP3    H252206   2.045   4.212   5.971  1.1374 -1.5384 -0.2345
10239TIP3   OH252207   3.777   1.050   5.538  0.4261 -0.5197 -0.0146
10239TIP3    H152208   3.752   1.006   5.457  0.9654  0.2384 -0.6141
10239TIP3    H252209   3.863   1.014   5.560 -0.7974 -2.6214  1.6705
10240TIP3   OH252210   0.260   6.062  11.459 -0.4054 -1.5475  0.2801
10240TIP3    H152211   0.276   6.093  11.369 -1.1485 -2.2336 -0.0960
10240TIP3    H252212   0.238   6.141  11.507 -1.7980 -1.3824 -0.5651
10241TIP3   OH252213   0.270   2.982  12.668 -0.3502 -0.6418  0.2239
10241TIP3    H152214   0.331   2.994  12.595 -0.5421  2.0043  0.3974
10241TIP3    H252215   0.265   3.068  12.710  0.9867 -2.3619  4.4246
10242TIP3   OH252216   6.150   0.891  11.428 -0.0666 -0.2153 -0.8327
10242TIP3    H152217   6.240   0.857  11.425  0.0381  0.1035 -1.9606
10242TIP3    H252218   6.150   0.961  11.362 -0.5185  1.3571  0.7764
10243TIP3   OH252219   5.575   3.221  16.242  0.4156  0.7946 -0.1879
10243TIP3    H152220   5.637   3.155  16.275  1.3861  1.2422 -1.0274
10243TIP3    H252221   5.582   3.294  16.303 -0.3955  0.2816  0.5408
10244TIP3   OH252222   4.903   0.863   2.354  0.5015  0.9229 -0.2556
10244TIP3    H152223   4.818   0.881   2.315 -0.2036  0.6854  1.1221
10244TIP3    H252224   4.933   0.783   2.311 -1.3295 -0.6712  1.2622
10245TIP3   OH252225   3.068   5.211  12.117 -0.0607 -0.2760 -0.3165
10245TIP3    H152226   2.985   5.164  12.104 -1.2359  1.8050 -0.7047
10245TIP3    H252227   3.046   5.303  12.106  2.4651  0.3139 -1.0903
10246TIP3   OH252228   1.619   2.802  16.510  0.1906  0.2352  0.4179
10246TIP3    H152229   1.564   2.879  16.505 -0.5492 -0.2863  0.4278
10246TIP3    H252230   1.694   2.829  16.564  0.1506  1.0580  0.0744
10247TIP3   OH252231   4.257   5.155   5.215  0.3196  0.3354  0.1898
10247TIP3    H152232   4.330   5.154   5.153  0.0976 -1.3423 -0.0800
10247TIP3    H252233   4.298   5.143   5.301  0.3029 -2.0458 -0.0840
10248TIP3   OH252234   5.404   3.179  15.767  0.1219  0.4957 -0.0873
10248TIP3    H152235   5.435   3.088  15.760  0.0927  0.5097 -0.3803
10248TIP3    H252236   5.454   3.227  15.702  0.6121  0.8211  0.5256
10249TIP3   OH252237   4.916   3.680  14.462  0.7908 -0.4538 -0.3680
10249TIP3    H152238   4.926   3.679  14.558 -0.2278 -0.5678 -0.2529
10249TIP3    H252239   4.938   3.769  14.436 -1.1122  0.2269  0.2388
10250TIP3   OH252240   3.070   0.945   7.225 -0.2556  0.1306 -0.1634
10250TIP3    H152241   3.053   0.869   7.280  1.3447 -1.4401 -1.7447
10250TIP3    H252242   3.030   0.924   7.141  0.6875  0.7632 -0.7957
10251TIP3   OH252243   1.851   6.418  13.881 -0.0437 -0.1823 -0.5055
10251TIP3    H152244   1.871   6.325  13.871  1.2152 -0.0046  0.1654
10251TIP3    H252245   1.797   6.439  13.805 -0.4632 -1.4907 -0.5906
10252TIP3   OH252246   2.265   6.508  14.338  0.1605  0.4106 -0.0440
10252TIP3    H152247   2.206   6.497  14.264  0.5077  0.2724 -0.3036
10252TIP3    H252248   2.314   6.426  14.342 -0.5146  0.0260  0.9275
10253TIP3   OH252249   2.006   0.269  14.478 -0.0103  0.0713  0.0209
10253TIP3    H152250   1.983   0.266  14.570  0.3121 -1.4443  0.0832
10253TIP3    H252251   1.998   0.178  14.448  0.7322  0.3830 -1.2176
10254TIP3   OH252252   4.439   4.244   4.335  0.2989 -0.4503 -0.2517
10254TIP3    H152253   4.507   4.189   4.295  0.3231  0.7946 -2.0570
10254TIP3    H252254   4.359   4.191   4.328  0.9333 -1.7079  1.4089
10255TIP3   OH252255   5.011   2.128   1.407  0.3522 -0.0337 -0.4667
10255TIP3    H152256   5.038   2.151   1.496  0.0405 -2.2537  0.2517
10255TIP3    H252257   5.071   2.178   1.351  0.7183  1.2229  0.9517
10256TIP3   OH252258   4.723   6.753  16.524  0.1830 -0.1506  0.0716
10256TIP3    H152259   4.657   6.787  16.584  1.0827  0.4584  0.7341
10256TIP3    H252260   4.704   6.795  16.441 -1.5496 -1.5696 -0.3260
10257TIP3   OH252261   2.580   0.300  16.810 -0.4940 -0.5207  0.5131
10257TIP3    H152262   2.664   0.318  16.767 -0.0246 -0.1537  1.5619
10257TIP3    H252263   2.587   0.342  16.896 -1.2838 -1.5420  1.0990
10258TIP3   OH252264   4.674   0.649   1.603  0.3007  0.3005  0.3738
10258TIP3    H152265   4.764   0.680   1.596  0.4651 -0.4521 -1.5932
10258TIP3    H252266   4.660   0.598   1.523 -1.6938 -0.0845  0.9083
10259TIP3   OH252267   1.794   1.883   1.678  0.1984 -0.2643  0.5625
10259TIP3    H152268   1.802   1.901   1.771 -1.1242  1.6398  0.3483
10259TIP3    H252269   1.701   1.888   1.659  0.3789 -1.2155 -0.7715
10260TIP3   OH252270   4.461   0.684  16.423 -0.3443  0.6548 -0.9710
10260TIP3    H152271   4.375   0.724  16.410 -0.6713 -0.0491 -1.0106
10260TIP3    H252272   4.442   0.595  16.454  0.3944  1.1241  0.9252
10261TIP3   OH252273   0.613   3.089   4.876  0.3290  0.3751 -0.4029
10261TIP3    H152274   0.620   3.147   4.953  1.1550 -0.2121 -0.0238
10261TIP3    H252275   0.695   3.040   4.875  0.1640  0.0992 -1.4521
10262TIP3   OH252276   1.417   5.838  12.296 -0.3284  0.3511 -0.1083
10262TIP3    H152277   1.336   5.786  12.300  0.5878 -1.0683  2.7998
10262TIP3    H252278   1.417   5.888  12.377  0.4677  2.4137 -1.3175
10263TIP3   OH252279   1.726   4.801  12.167  0.3189 -0.2020 -0.2291
10263TIP3    H152280   1.738   4.724  12.111 -2.3308  0.0069 -1.2244
10263TIP3    H252281   1.636   4.794  12.199  0.5716  1.6226  1.0409
10264TIP3   OH252282   0.739   5.269  11.748 -0.1654 -0.0508 -0.5425
10264TIP3    H152283   0.700   5.311  11.671  0.7751 -1.1414 -1.6661
10264TIP3    H252284   0.683   5.295  11.821 -0.3266  2.1027 -1.3560
10265TIP3   OH252285   4.787   0.593  16.753  0.2676  0.0415 -0.8091
10265TIP3    H152286   4.721   0.523  16.747 -1.2324  1.2621  0.5502
10265TIP3    H252287   4.743   0.670  16.718 -0.6986  1.8944  3.8389
10266TIP3   OH252288   3.227   0.264   1.072 -0.0902  0.2319  0.5691
10266TIP3    H152289   3.212   0.269   0.978 -2.0308  2.8175  0.8956
10266TIP3    H252290   3.306   0.211   1.081 -0.0054 -0.3437 -2.4630
10267TIP3   OH252291   0.431   0.106   1.423  0.3866  0.1437  0.3000
10267TIP3    H152292   0.335   0.101   1.428  0.3150 -0.7106 -1.1106
10267TIP3    H252293   0.454   0.041   1.356  2.0901 -0.8550  1.7553
10268TIP3   OH252294   0.401   0.806  15.041  0.2249 -0.4415  0.1491
10268TIP3    H152295   0.456   0.746  15.091 -0.0264 -1.2027 -0.4589
10268TIP3    H252296   0.464   0.858  14.989  0.3936 -1.3954 -0.6411
10269TIP3   OH252297   2.772   0.318  13.946 -0.4827 -0.1970  0.0831
10269TIP3    H152298   2.831   0.377  13.898 -0.6295 -0.0601  0.0706
10269TIP3    H252299   2.759   0.361  14.030 -1.7255  0.5052 -0.4494
10270TIP3   OH252300   2.184   0.374  12.434  0.1652  0.2206  0.3333
10270TIP3    H152301   2.162   0.378  12.341 -0.6848 -2.0585  0.3718
10270TIP3    H252302   2.102   0.347  12.476  0.7800  0.3191  1.6321
10271TIP3   OH252303   3.287   5.120  14.125  0.7378  0.2044  0.0324
10271TIP3    H152304   3.233   5.160  14.193 -0.9477  0.3333 -1.3104
10271TIP3    H252305   3.286   5.026  14.146  0.2429  0.2461  0.2125
10272TIP3   OH252306   5.317   5.738  11.386 -0.0799 -0.3315  0.5791
10272TIP3    H152307   5.240   5.793  11.372  0.5729  0.5723  0.5064
10272TIP3    H252308   5.283   5.648  11.379 -1.2272  0.0411  1.1135
10273TIP3   OH252309   6.273   3.121  16.165 -1.2072 -0.3393  0.8334
10273TIP3    H152310   6.289   3.203  16.211 -1.7842  0.4850 -0.3666
10273TIP3    H252311   6.308   3.136  16.077 -1.5871 -1.2751  0.5081
10274TIP3   OH252312   4.861   2.561  16.070  0.7808  0.4109  0.1560
10274TIP3    H152313   4.860   2.532  15.979  0.4507  2.1033 -0.4177
10274TIP3    H252314   4.780   2.526  16.108  1.1194 -0.6354 -0.0731
10275TIP3   OH252315   4.188   6.648   3.983  0.7504  0.3054 -0.4740
10275TIP3    H152316   4.216   6.686   3.900  1.7337  1.3027  0.2810
10275TIP3    H252317   4.267   6.648   4.038 -0.2042  1.1324  0.9807
10276TIP3   OH252318   3.829   4.178  15.950 -0.0241  0.4935 -0.2001
10276TIP3    H152319   3.762   4.232  15.991  1.1927  2.2794 -0.4847
10276TIP3    H252320   3.785   4.141  15.873 -1.1611  0.2574  0.5277
10277TIP3   OH252321   3.998   0.160  11.200  0.3219  0.0971  0.3102
10277TIP3    H152322   4.087   0.165  11.167  0.4506 -1.6528  0.2889
10277TIP3    H252323   3.968   0.251  11.205  1.8377  0.6530 -0.3778
10278TIP3   OH252324   6.540   2.321  11.030 -0.4911  0.4000 -0.3416
10278TIP3    H152325   6.532   2.369  11.112  0.0919 -0.1417  0.0387
10278TIP3    H252326   6.628   2.342  10.999  1.4384 -3.5041  1.8537
10279TIP3   OH252327   6.641   1.299   3.699  0.1259  0.0368  0.1790
10279TIP3    H152328   6.664   1.213   3.733  0.2522  0.5076  1.3484
10279TIP3    H252329   6.595   1.281   3.617  1.5584 -1.0616 -0.4201
10280TIP3   OH252330   4.424   0.436   5.506 -0.0879  0.0400  0.6915
10280TIP3    H152331   4.442   0.440   5.412  0.4030  1.1933  0.8191
10280TIP3    H252332   4.498   0.480   5.546 -1.2735  1.4204  1.4769
10281TIP3   OH252333   5.428   4.928  11.028 -0.3687 -0.1443 -0.2849
10281TIP3    H152334   5.437   4.880  10.945  2.6780 -2.8271  1.3322
10281TIP3    H252335   5.481   5.006  11.016 -0.9027  0.0873 -1.2175
10282TIP3   OH252336   0.092   5.923   6.828  0.3197 -0.3173  0.5239
10282TIP3    H152337   0.089   5.991   6.760  3.0217  0.3606  0.9687
10282TIP3    H252338   0.116   5.843   6.781  1.2139 -0.0520  0.5006
10283TIP3   OH252339   3.551   0.493   1.646 -0.7326  0.5235  0.5250
10283TIP3    H152340   3.636   0.524   1.615 -0.3104  0.0548  1.1856
10283TIP3    H252341   3.504   0.573   1.670 -1.0639  0.8971 -1.2457
10284TIP3   OH252342   3.601   4.168  14.201  0.1972 -0.7899  0.3882
10284TIP3    H152343   3.616   4.130  14.287 -0.6335  1.7132  1.7534
10284TIP3    H252344   3.664   4.240  14.196 -2.0446  1.3243  0.4980
10285TIP3   OH252345   3.102   2.634  16.191  0.6888  0.1952 -0.2774
10285TIP3    H152346   3.160   2.707  16.211  0.0089  1.1846 -1.6854
10285TIP3    H252347   3.157   2.572  16.142  0.6765  1.0000 -1.3675
10286TIP3   OH252348   2.257   3.542  11.657  0.2498  1.2829  0.0523
10286TIP3    H152349   2.242   3.465  11.602 -0.9784  0.5991  1.2692
10286TIP3    H252350   2.214   3.613  11.610 -2.4825  0.3563  0.8969
10287TIP3   OH252351   5.599   6.515   6.337 -0.4558  0.0995 -0.5540
10287TIP3    H152352   5.605   6.420   6.328  0.3683 -0.0300  1.0018
10287TIP3    H252353   5.515   6.530   6.380 -0.3716  0.0356 -0.3675
10288TIP3   OH252354   0.598   5.939   4.809 -0.2813 -1.0623  0.0369
10288TIP3    H152355   0.555   5.859   4.778 -1.0331 -0.2970 -0.9225
10288TIP3    H252356   0.532   5.983   4.863 -0.2071 -0.6103 -0.2346
10289TIP3   OH252357   3.809   2.411   2.847 -0.1215 -0.0881 -0.1041
10289TIP3    H152358   3.858   2.330   2.860 -1.9232 -1.4342 -1.2501
10289TIP3    H252359   3.754   2.395   2.770  0.0854  2.5536 -0.9146
10290TIP3   OH252360   6.480   0.476   2.833 -0.4628  0.1915 -0.7033
10290TIP3    H152361   6.438   0.558   2.809 -1.8254  0.2616  1.5839
10290TIP3    H252362   6.548   0.463   2.767 -2.0289  1.6975 -2.7563
10291TIP3   OH252363   6.142   1.878  11.434 -0.8672 -0.7814  0.0608
10291TIP3    H152364   6.210   1.902  11.372 -1.7997 -0.6593 -0.9404
10291TIP3    H252365   6.134   1.783  11.425 -0.8258 -0.7964  0.1799
10292TIP3   OH252366   2.619   4.476   0.969 -0.1504  0.1150 -0.2686
10292TIP3    H152367   2.628   4.428   0.887 -1.9789 -0.0787 -0.4105
10292TIP3    H252368   2.545   4.536   0.953 -1.6802 -1.1254  1.7399
10293TIP3   OH252369   4.544   3.968  16.398  0.2040 -0.4207  1.0617
10293TIP3    H152370   4.530   4.051  16.443 -1.6695  0.2173 -0.5650
10293TIP3    H252371   4.639   3.965  16.384  0.3466  1.3137  1.4103
10294TIP3   OH252372   2.270   0.323  14.686 -0.3552  0.1731  0.7097
10294TIP3    H152373   2.317   0.252  14.730  0.1865  0.9718  1.4536
10294TIP3    H252374   2.212   0.358  14.753 -3.3453 -1.8379 -0.5959
10295TIP3   OH252375   5.409   0.539   1.695 -0.0667  0.0773  0.6442
10295TIP3    H152376   5.457   0.607   1.648 -0.7996 -0.8904 -1.6682
10295TIP3    H252377   5.324   0.579   1.714 -1.0209 -0.5411 -1.9655
10296TIP3   OH252378   4.021   4.942   2.466 -0.2668  0.2378 -0.1276
10296TIP3    H152379   4.010   4.996   2.388 -2.4917 -0.4390 -0.3463
10296TIP3    H252380   3.945   4.962   2.520  0.4257 -0.4757  1.1714
10297TIP3   OH252381   0.240   4.177  14.886  0.2215 -0.3048 -0.2043
10297TIP3    H152382   0.237   4.086  14.855  1.7732  0.1706 -1.9157
10297TIP3    H252383   0.314   4.179  14.947 -0.0403 -0.2641  0.1140
10298TIP3   OH252384   0.982   6.524   5.235  0.2495  0.1054 -0.3318
10298TIP3    H152385   1.066   6.521   5.281  0.1401  0.2746 -0.1149
10298TIP3    H252386   0.937   6.445   5.262  1.0476 -0.9063 -1.8482
10299TIP3   OH252387   6.623   2.240   3.512 -0.6697  0.1770 -0.6958
10299TIP3    H152388   6.687   2.258   3.443 -1.4412 -2.4495 -2.2433
10299TIP3    H252389   6.539   2.241   3.467 -1.2936 -0.6073  0.4099
10300TIP3   OH252390   2.588   0.192  16.531  0.4745  0.4649  0.3978
10300TIP3    H152391   2.516   0.138  16.497  0.8198 -0.8652  1.6847
10300TIP3    H252392   2.545   0.274  16.557 -0.7585 -0.5113  1.6835
10301TIP3   OH252393   1.224   0.906  14.253 -0.3547  0.1067  0.2439
10301TIP3    H152394   1.205   0.844  14.323  0.0262 -0.9939 -0.6068
10301TIP3    H252395   1.170   0.878  14.180  0.2825  0.3955 -0.3499
10302TIP3   OH252396   4.896   1.915  12.032  0.3101  0.1366  0.1957
10302TIP3    H152397   4.823   1.854  12.022  0.0356  0.2376  1.3674
10302TIP3    H252398   4.951   1.874  12.099  1.3627  0.0351 -0.7145
10303TIP3   OH252399   6.725   2.476   1.698 -0.0640 -0.0403 -0.4120
10303TIP3    H152400   6.714   2.483   1.793 -0.2101 -0.9018 -0.3629
10303TIP3    H252401   6.807   2.523   1.680 -0.1903  0.3850  0.0940
10304TIP3   OH252402   3.572   4.679  15.201  0.0713 -0.4230  0.0205
10304TIP3    H152403   3.576   4.764  15.245  1.0703 -0.8546  0.8268
10304TIP3    H252404   3.547   4.618  15.270 -1.1926 -0.7180 -0.6783
10305TIP3   OH252405   2.034   5.355  11.897  0.1134  0.2824  0.1726
10305TIP3    H152406   2.051   5.373  11.804  1.9867 -0.9294  0.2339
10305TIP3    H252407   1.959   5.295  11.896  0.4005 -0.0774 -0.5958
10306TIP3   OH252408   6.725   5.558  16.455  0.5662  0.0152  0.4080
10306TIP3    H152409   6.667   5.494  16.415  0.7807 -0.1862  0.4220
10306TIP3    H252410   6.672   5.638  16.461  0.3095 -0.1534  0.3704
10307TIP3   OH252411   1.352   3.447   5.087 -0.0558  0.3779  0.4866
10307TIP3    H152412   1.269   3.488   5.113 -0.4663 -0.7725  1.0286
10307TIP3    H252413   1.396   3.427   5.169  0.9185  1.2528  0.2004
10308TIP3   OH252414   5.709   5.648  15.345 -0.3128 -0.1630 -0.1350
10308TIP3    H152415   5.743   5.595  15.273 -0.5148  0.5835 -0.7873
10308TIP3    H252416   5.686   5.584  15.413  4.8752 -0.6514  1.5625
10309TIP3   OH252417   2.408   5.277  12.416  0.3772 -0.2264  0.2893
10309TIP3    H152418   2.337   5.289  12.479  0.5204  1.3993  0.1842
10309TIP3    H252419   2.404   5.184  12.393  0.1381 -0.8055  2.4502
10310TIP3   OH252420   0.991   5.023   0.960  0.0289 -0.1336 -0.2024
10310TIP3    H152421   0.976   5.035   1.054 -2.7115  1.2538 -0.7151
10310TIP3    H252422   0.986   4.929   0.946  0.3630 -0.3403  0.9959
10311TIP3   OH252423   3.151   5.694   5.363 -0.1637  0.1102 -0.3654
10311TIP3    H152424   3.246   5.690   5.356 -0.1551 -0.1149 -0.1482
10311TIP3    H252425   3.120   5.610   5.330  0.0258 -2.1501  4.3278
10312TIP3   OH252426   4.473   5.052   4.749 -0.9503 -0.0019 -0.4037
10312TIP3    H152427   4.413   5.035   4.677 -3.3906  1.2225  1.2188
10312TIP3    H252428   4.494   4.965   4.784 -0.7536 -0.5201 -1.7452
10313TIP3   OH252429   6.682   0.383   2.015  0.0331  0.1747  0.0314
10313TIP3    H152430   6.697   0.362   1.923 -1.0211 -0.0506 -0.1061
10313TIP3    H252431   6.593   0.419   2.017 -1.1896 -2.5774  1.3350
10314TIP3   OH252432   4.211   2.809   4.375 -0.3210  0.2779 -0.0093
10314TIP3    H152433   4.250   2.826   4.460  0.4536 -0.4926 -0.1978
10314TIP3    H252434   4.135   2.867   4.371 -1.8948 -1.4567  2.2488
10315TIP3   OH252435   4.996   3.140   0.748 -0.2748 -0.0912 -0.1870
10315TIP3    H152436   5.059   3.070   0.763  0.0236 -0.6290 -3.2754
10315TIP3    H252437   4.933   3.133   0.820  2.4154 -0.3187  2.3277
10316TIP3   OH252438   4.063   4.830  11.296 -0.0427  0.3672  0.2964
10316TIP3    H152439   4.071   4.903  11.235 -2.0934  0.8158  0.4883
10316TIP3    H252440   3.969   4.825  11.315  0.3391 -0.8156  2.1248
10317TIP3   OH252441   1.346   2.267   4.291  0.2360  0.1670  0.0115
10317TIP3    H152442   1.319   2.349   4.333  0.3598 -0.1835  0.7867
10317TIP3    H252443   1.352   2.204   4.363  0.5597 -0.4156 -0.5197
10318TIP3   OH252444   3.936   4.156  13.305  0.1284 -0.0028 -0.5864
10318TIP3    H152445   3.873   4.133  13.374 -1.6950  0.5313 -2.0118
10318TIP3    H252446   3.967   4.071  13.272  0.3641 -0.2675  0.2795
10319TIP3   OH252447   0.903   6.280  15.079 -0.8895  0.5541  0.0051
10319TIP3    H152448   0.832   6.267  15.017 -1.5983  0.6299  0.7875
10319TIP3    H252449   0.860   6.293  15.163  0.0713 -0.1053  0.6233
10320TIP3   OH252450   4.412   5.898   3.891  0.1530  0.2066  0.0735
10320TIP3    H152451   4.356   5.886   3.968  1.3138  0.2859  0.9523
10320TIP3    H252452   4.499   5.874   3.921  0.5504 -0.2623 -1.3701
10321TIP3   OH252453   0.710   1.353  12.140 -0.2908  0.1841 -0.2154
10321TIP3    H152454   0.704   1.424  12.204  1.1281  0.2929 -0.1872
10321TIP3    H252455   0.801   1.326  12.142 -0.4041 -0.3853 -1.5930
10322TIP3   OH252456   2.803   5.658   2.896  0.2031 -0.1553 -0.3574
10322TIP3    H152457   2.778   5.600   2.825  0.9629  0.6258 -1.2956
10322TIP3    H252458   2.814   5.744   2.854 -1.0700  0.7247  1.0111
10323TIP3   OH252459   1.965   5.800   4.870 -0.0529 -0.3789 -0.2815
10323TIP3    H152460   1.991   5.819   4.780  2.5640  0.6649  0.5996
10323TIP3    H252461   1.910   5.874   4.896 -2.3666 -1.5714 -1.5150
10324TIP3   OH252462   2.941   1.536  15.672  0.1099  0.1456  0.4658
10324TIP3    H152463   2.971   1.625  15.692 -0.9009  0.2648  1.5322
10324TIP3    H252464   2.861   1.549  15.621  1.0446 -0.1813 -1.1848
10325TIP3   OH252465   4.524   5.623   0.216  0.1486  0.0214  0.5956
10325TIP3    H152466   4.500   5.598   0.305  0.4277  0.8836  0.9282
10325TIP3    H252467   4.557   5.713   0.224  1.3185 -0.3075 -0.1867
10326TIP3   OH252468   4.921   5.732  17.042 -0.2736 -0.3757 -1.1247
10326TIP3    H152469   5.010   5.699  17.030  0.3546  0.5975  0.6208
10326TIP3    H252470   4.910   5.797  16.972  0.4445 -0.3828 -1.2520
10327TIP3   OH252471   2.021   1.439   3.181 -0.0975  0.4581 -0.3618
10327TIP3    H152472   2.060   1.524   3.161 -1.6052  1.4836  0.8164
10327TIP3    H252473   2.072   1.377   3.129  0.6407  2.1377 -1.7697
10328TIP3   OH252474   0.956   3.880  11.312  0.1414  0.2578  0.0129
10328TIP3    H152475   0.974   3.925  11.229  1.4249 -0.3818 -0.0768
10328TIP3    H252476   0.955   3.949  11.377  2.4518  0.4450 -0.0655
10329TIP3   OH252477   6.780   2.828  12.314  0.2020  0.3600 -0.0596
10329TIP3    H152478   6.769   2.905  12.259 -1.5857  0.4852  0.4099
10329TIP3    H252479   6.811   2.862  12.398  1.0480  0.3728 -0.3696
10330TIP3   OH252480   2.607   6.044   4.772  0.6818  0.2593  0.1553
10330TIP3    H152481   2.572   5.971   4.721 -0.4251  2.0794 -1.8588
10330TIP3    H252482   2.674   6.083   4.716  0.8899  1.0979  0.9642
10331TIP3   OH252483   2.656   3.646  15.624  0.2695 -0.4985  0.4748
10331TIP3    H152484   2.710   3.567  15.619  2.8991  1.1954 -0.5539
10331TIP3    H252485   2.691   3.703  15.555 -1.1649  1.7619  1.4809
10332TIP3   OH252486   1.825   6.762  15.483  0.4441  0.7936 -0.1649
10332TIP3    H152487   1.878   6.827  15.437 -0.2680  1.4346 -0.0960
10332TIP3    H252488   1.741   6.805  15.497 -0.0020 -0.1027 -0.0152
10333TIP3   OH252489   1.320   3.861  15.589 -0.4874 -0.2190  0.0814
10333TIP3    H152490   1.356   3.941  15.552 -0.2564 -0.9639 -1.3813
10333TIP3    H252491   1.296   3.808  15.513 -2.6501 -0.6651  0.9990
10334TIP3   OH252492   0.316   2.505   6.893 -0.3275  0.0074  0.4980
10334TIP3    H152493   0.247   2.559   6.933  0.7808 -0.6960  3.6741
10334TIP3    H252494   0.393   2.561   6.891 -0.1942 -0.1916 -0.0414
10335TIP3   OH252495   5.565   6.115  12.962  0.2920 -0.2336 -0.0083
10335TIP3    H152496   5.601   6.183  12.906  1.9108 -1.1576 -0.1700
10335TIP3    H252497   5.589   6.141  13.050 -1.6052  0.8370  0.2374
10336TIP3   OH252498   2.440   3.259  14.511 -0.1453  0.1919 -0.1578
10336TIP3    H152499   2.481   3.198  14.450  1.7594  0.2412  0.9721
10336TIP3    H252500   2.513   3.294  14.561 -1.4279  1.7519  0.7152
10337TIP3   OH252501   0.629   6.456   1.242  0.4560 -0.7974 -0.1102
10337TIP3    H152502   0.717   6.491   1.232  0.6851 -1.1535  0.5955
10337TIP3    H252503   0.572   6.526   1.210  1.0179 -0.9523 -1.5225
10338TIP3   OH252504   5.305   3.546   5.473 -0.9263  0.1507 -0.3264
10338TIP3    H152505   5.250   3.624   5.485  0.4874  1.2270 -0.4678
10338TIP3    H252506   5.327   3.518   5.561 -0.7725  0.4200 -0.2769
10339TIP3   OH252507   6.326   4.353  11.097 -0.0052 -0.1659 -0.0626
10339TIP3    H152508   6.300   4.387  11.012 -0.7285  1.6978  0.8478
10339TIP3    H252509   6.340   4.259  11.083  1.8677  0.4033 -2.6610
10340TIP3   OH252510   4.426   5.317   0.309 -0.0465 -0.7476  0.5841
10340TIP3    H152511   4.422   5.240   0.365  1.2561 -0.5202  1.0345
10340TIP3    H252512   4.368   5.297   0.236  0.2240 -2.1347  0.7225
10341TIP3   OH252513   4.918   1.359  12.788  0.2208  0.6623 -0.1750
10341TIP3    H152514   4.995   1.330  12.740 -0.0090  0.9677 -0.7398
10341TIP3    H252515   4.941   1.447  12.819  1.0239 -0.1805  1.7704
10342TIP3   OH252516   2.090   5.838   1.777  0.4360  0.2598 -0.2329
10342TIP3    H152517   2.089   5.744   1.758 -1.9844  0.1561  0.1254
10342TIP3    H252518   2.173   5.851   1.823  0.8454 -1.7023 -0.2957
10343TIP3   OH252519   0.781   5.572  11.568  0.0628  0.2219 -0.3885
10343TIP3    H152520   0.796   5.625  11.489 -1.4841 -1.4957 -1.9409
10343TIP3    H252521   0.869   5.554  11.602  0.8022  0.7089 -1.9340
10344TIP3   OH252522   0.012   0.251   0.623 -0.3466  0.0739 -0.1224
10344TIP3    H152523  -0.042   0.173   0.612  1.3476 -1.1913  0.1607
10344TIP3    H252524   0.036   0.252   0.716 -1.0430  1.4523  0.0807
10345TIP3   OH252525   2.035   2.293  13.670 -0.2039  0.1357 -0.2229
10345TIP3    H152526   2.093   2.368  13.680  0.0895 -0.0853 -0.2389
10345TIP3    H252527   2.078   2.223  13.719 -0.6806  0.0889  0.1303
10346TIP3   OH252528   0.653   2.948  15.242 -0.0690 -0.2898  0.9485
10346TIP3    H152529   0.571   2.914  15.279 -0.0020 -0.2354  1.1481
10346TIP3    H252530   0.659   3.038  15.275 -1.3482  0.7107 -1.3079
10347TIP3   OH252531   3.838   1.121  11.377  0.0571 -0.4497  0.0300
10347TIP3    H152532   3.856   1.210  11.408  1.8337 -0.3159 -1.2427
10347TIP3    H252533   3.798   1.133  11.291  0.3769 -0.8678 -0.1820
10348TIP3   OH252534   5.791   0.808   6.012  0.3377  0.4202 -0.7815
10348TIP3    H152535   5.857   0.844   6.071  1.4760  1.7615 -2.7563
10348TIP3    H252536   5.714   0.863   6.026 -0.2589 -0.8064  1.1358
10349TIP3   OH252537   6.604   1.360   5.837  0.3520 -0.2746 -0.2646
10349TIP3    H152538   6.548   1.288   5.866  1.4331 -1.3139 -0.6845
10349TIP3    H252539   6.556   1.398   5.763  0.0270 -0.9210 -0.3973
10350TIP3   OH252540   1.422   5.009   0.751  0.3309 -0.8082 -0.1176
10350TIP3    H152541   1.468   4.945   0.696  0.4943 -1.5055  0.8143
10350TIP3    H252542   1.413   4.966   0.836  1.7452  0.9478  0.9926
10351TIP3   OH252543   6.254   1.038  14.636 -0.0874  0.4120  0.4778
10351TIP3    H152544   6.159   1.041  14.629 -0.1894 -1.0865  0.9547
10351TIP3    H252545   6.278   0.949  14.612  1.4427  1.3764 -1.9679
10352TIP3   OH252546   1.887   6.407  13.157 -0.3688  0.1694  0.0613
10352TIP3    H152547   1.912   6.439  13.070  0.1105  2.1461  0.8627
10352TIP3    H252548   1.810   6.353  13.142 -1.0199  1.4495 -1.4839
10353TIP3   OH252549   5.994   4.574  12.092  0.0435 -0.3397 -0.0961
10353TIP3    H152550   6.033   4.608  12.172 -1.1278 -0.2002  0.4394
10353TIP3    H252551   5.990   4.480  12.105 -1.7153 -0.1836  0.7807
10354TIP3   OH252552   0.716   0.910  14.457 -0.5281 -0.4936 -0.0460
10354TIP3    H152553   0.699   1.001  14.481  0.8948 -0.5563  1.3939
10354TIP3    H252554   0.770   0.915  14.378  1.0501  0.0256  1.0140
10355TIP3   OH252555   6.042   3.649   1.837 -0.5170 -0.1569 -0.2685
10355TIP3    H152556   5.971   3.623   1.896 -1.3037  2.1485 -0.1053
10355TIP3    H252557   6.122   3.626   1.885 -1.0644 -2.6665 -0.3930
10356TIP3   OH252558   3.716   5.472   1.246  0.1802 -0.5979  0.3552
10356TIP3    H152559   3.795   5.434   1.285  0.3338 -0.9609 -0.2825
10356TIP3    H252560   3.644   5.421   1.284  0.1476  0.4897  1.8179
10357TIP3   OH252561   3.799   6.751  12.591 -0.5032  0.5102  0.0779
10357TIP3    H152562   3.856   6.792  12.657  0.2439 -1.7396  0.9097
10357TIP3    H252563   3.822   6.797  12.509  1.4579  0.6865  0.6576
10358TIP3   OH252564   0.966   0.782   2.381 -0.5749 -0.4846 -0.4102
10358TIP3    H152565   0.987   0.818   2.294 -1.4074 -1.0658 -0.8680
10358TIP3    H252566   0.883   0.824   2.405  0.4548  0.9360  0.8764
10359TIP3   OH252567   3.718   4.298  17.148 -0.3471  0.2497  0.2703
10359TIP3    H152568   3.660   4.241  17.198 -1.1250  0.0787 -0.7949
10359TIP3    H252569   3.763   4.350  17.215 -1.1033 -0.2003  1.1640
10360TIP3   OH252570   2.994   6.058  16.928 -0.4023  0.2522 -0.0593
10360TIP3    H152571   2.965   6.139  16.972  0.6798  1.1037 -0.8686
10360TIP3    H252572   3.073   6.032  16.975 -0.2086  0.1986 -0.4135
10361TIP3   OH252573   5.906   2.833  11.735  0.5633 -0.5875 -0.7570
10361TIP3    H152574   5.965   2.907  11.722  0.1891 -0.3792 -1.3066
10361TIP3    H252575   5.875   2.843  11.825  0.2757  0.1070 -0.9291
10362TIP3   OH252576   6.696   3.005  12.788  0.1358 -0.2500  0.4438
10362TIP3    H152577   6.670   3.095  12.810  0.4823 -0.3769  1.3891
10362TIP3    H252578   6.613   2.961  12.767 -0.5941 -0.7990  3.9315
10363TIP3   OH252579   3.088   2.713   0.420 -0.8764  0.0880 -0.4913
10363TIP3    H152580   3.109   2.702   0.512 -0.9833 -2.0566 -0.6694
10363TIP3    H252581   3.028   2.788   0.417  1.0518  1.7883  0.8311
10364TIP3   OH252582   3.842   5.937  15.506  0.1128  0.1366 -0.1466
10364TIP3    H152583   3.794   6.016  15.533  1.2824  0.4742  1.0802
10364TIP3    H252584   3.786   5.865  15.533 -0.3740  0.5344 -0.0642
10365TIP3   OH252585   4.951   2.870  13.575 -0.2981 -0.6096 -0.3193
10365TIP3    H152586   4.949   2.794  13.633  0.5173  0.2250  0.8299
10365TIP3    H252587   5.041   2.873  13.543  0.4406  1.3350  1.6924
10366TIP3   OH252588   3.880   1.880  12.052 -0.1772 -0.3105 -0.0362
10366TIP3    H152589   3.870   1.965  12.009 -0.4350 -1.4875 -2.4460
10366TIP3    H252590   3.974   1.873  12.069 -0.1854  0.5534  0.4124
10367TIP3   OH252591   2.521   3.949  12.413  0.4787  0.4237  0.0120
10367TIP3    H152592   2.553   3.926  12.325  1.1510 -0.6421  0.5155
10367TIP3    H252593   2.501   4.043  12.407  1.2591  0.5453 -1.0606
10368TIP3   OH252594   2.572   5.673  14.384  0.3859  0.4728 -0.2969
10368TIP3    H152595   2.479   5.684  14.404  0.0914 -0.2950 -1.1804
10368TIP3    H252596   2.599   5.597  14.436  0.7085  1.1246  0.5069
10369TIP3   OH252597   0.991   0.733   5.119  0.7347 -0.3681 -0.2614
10369TIP3    H152598   1.041   0.814   5.109 -0.7366  0.6233  0.0565
10369TIP3    H252599   0.938   0.747   5.197 -2.4647  0.0070 -2.3120
10370TIP3   OH252600   3.043   3.294   4.392  0.2439 -0.6980 -0.1183
10370TIP3    H152601   3.063   3.205   4.420  1.3880 -0.4510 -0.0922
10370TIP3    H252602   3.083   3.350   4.459  2.0890 -0.1213 -1.6084
10371TIP3   OH252603   2.742   3.809   6.278 -0.1323  0.3748 -0.7112
10371TIP3    H152604   2.649   3.819   6.297 -0.1251 -0.0157 -0.4430
10371TIP3    H252605   2.770   3.738   6.336  0.4766  0.9206 -0.3241
10372TIP3   OH252606   0.017   1.153  15.832  0.2897  0.5315 -0.0303
10372TIP3    H152607   0.091   1.142  15.890  0.0276  0.3570  0.2735
10372TIP3    H252608   0.054   1.149  15.744  0.2582 -2.6819  0.0020
10373TIP3   OH252609   0.833   1.437   1.563 -0.0864  0.0808 -0.3689
10373TIP3    H152610   0.913   1.486   1.583  1.3130 -1.9117 -0.6989
10373TIP3    H252611   0.808   1.467   1.476  1.1634 -0.2651 -0.8760
10374TIP3   OH252612   5.242   1.358  15.964  0.3172  0.2528 -0.1270
10374TIP3    H152613   5.246   1.304  16.043  0.2335  0.1804 -0.1718
10374TIP3    H252614   5.247   1.296  15.892 -2.6293  0.0025 -0.2323
10375TIP3   OH252615   2.507   4.281   4.556  0.0760 -0.3422 -0.1678
10375TIP3    H152616   2.580   4.224   4.530  0.6961  0.5188 -0.3616
10375TIP3    H252617   2.546   4.344   4.617 -0.5087  0.0933 -0.2330
10376TIP3   OH252618   6.311   1.421  14.714 -0.8330 -0.2826 -0.8603
10376TIP3    H152619   6.281   1.498  14.761 -1.2023 -0.0546 -1.4566
10376TIP3    H252620   6.310   1.351  14.779  0.3535  0.3857 -0.0833
10377TIP3   OH252621   4.375   0.110   4.080 -0.0393 -0.6702  0.1227
10377TIP3    H152622   4.456   0.060   4.090  0.9950  1.3483  3.2763
10377TIP3    H252623   4.318   0.078   4.150  0.9094  2.6942  2.7104
10378TIP3   OH252624   2.302   2.215   0.961 -0.3745 -0.3251 -0.1996
10378TIP3    H152625   2.224   2.171   0.995 -0.9521  0.4577 -0.4667
10378TIP3    H252626   2.345   2.150   0.905 -0.5204 -0.9490  0.4036
10379TIP3   OH252627   6.794   3.632   0.555 -0.4312 -0.0770  0.5652
10379TIP3    H152628   6.887   3.629   0.533 -1.0447 -0.6571 -2.3325
10379TIP3    H252629   6.780   3.555   0.609  0.6386 -0.3795  0.4506
10380TIP3   OH252630   0.239   2.830  11.271  0.1433 -0.2661  0.2177
10380TIP3    H152631   0.273   2.906  11.224 -1.5460  1.6920  1.9555
10380TIP3    H252632   0.284   2.832  11.356  1.5144 -2.4328 -0.3558
10381TIP3   OH252633   1.243   0.679   3.173  0.5839  0.4042  0.1246
10381TIP3    H152634   1.307   0.725   3.119  0.5368  0.1006 -0.1939
10381TIP3    H252635   1.162   0.680   3.121  0.7219 -0.4865 -0.1081
10382TIP3   OH252636   4.100   1.184   5.077  0.2797 -0.0883  0.3657
10382TIP3    H152637   4.050   1.223   5.149  0.7931  0.2736  0.5334
10382TIP3    H252638   4.189   1.176   5.111  0.3039 -0.9002  0.1349
10383TIP3   OH252639   2.459   0.211   4.751 -0.0981 -0.2068  0.4997
10383TIP3    H152640   2.450   0.306   4.761  0.1319 -0.1838  0.5014
10383TIP3    H252641   2.533   0.188   4.807  1.8301  0.0684 -1.8160
10384TIP3   OH252642   4.210   3.726  13.128  0.5892  0.7141 -0.3321
10384TIP3    H152643   4.208   3.755  13.037  1.6616  0.5005 -0.4351
10384TIP3    H252644   4.301   3.703  13.144 -0.1092 -2.3363 -0.1699
10385TIP3   OH252645   3.239   6.669  11.505  0.4905 -0.3463 -0.0831
10385TIP3    H152646   3.152   6.647  11.472 -0.2506 -0.3115  1.7327
10385TIP3    H252647   3.250   6.762  11.485 -0.2674 -0.1403  0.4162
10386TIP3   OH252648   0.178   0.295   1.200 -0.0547  0.3683 -0.1773
10386TIP3    H152649   0.265   0.270   1.171  0.4020  0.8514  0.7366
10386TIP3    H252650   0.166   0.385   1.167  1.2364  1.6725  2.6067
10387TIP3   OH252651   0.914   6.348   3.195 -0.1934 -0.1413  0.1110
10387TIP3    H152652   0.969   6.288   3.246 -1.0605 -0.4675  0.6780
10387TIP3    H252653   0.973   6.382   3.127  0.4367 -1.2679  0.0683
10388TIP3   OH252654   0.189   4.158   3.487 -0.0226  0.5325  0.1937
10388TIP3    H152655   0.193   4.088   3.423  3.4116 -0.2006  0.9730
10388TIP3    H252656   0.234   4.232   3.445 -0.1463  0.9477  0.7692
10389TIP3   OH252657   3.844   4.284  16.317 -0.0886 -0.0051 -0.0417
10389TIP3    H152658   3.910   4.295  16.248 -0.0324 -0.3822 -0.0500
10389TIP3    H252659   3.839   4.189  16.331  1.9128  0.1375  2.3918
10390TIP3   OH252660   6.462   5.922  12.995  0.0467  0.3215 -0.1674
10390TIP3    H152661   6.512   5.841  12.995  0.1902  0.3993 -0.9205
10390TIP3    H252662   6.377   5.898  12.958 -0.5387  0.1629  1.2216
10391TIP3   OH252663   0.364   1.713  11.477 -0.1435 -0.3015  0.2485
10391TIP3    H152664   0.305   1.786  11.455  1.4575  1.3862  1.2381
10391TIP3    H252665   0.331   1.680  11.560 -1.2167 -1.1222 -0.4816
10392TIP3   OH252666   4.768   6.432  13.664  0.0836  0.3848 -0.4927
10392TIP3    H152667   4.784   6.358  13.606 -2.1261  0.1900 -0.9397
10392TIP3    H252668   4.792   6.401  13.751  1.2621 -0.0913 -0.9806
10393TIP3   OH252669   1.592   1.723   0.649 -0.1782  0.3884  0.2898
10393TIP3    H152670   1.637   1.660   0.705 -0.3702  0.3623  0.4148
10393TIP3    H252671   1.660   1.757   0.591 -0.1257 -0.1444  0.0329
10394TIP3   OH252672   1.142   5.813  16.643 -0.4300  0.5676 -0.1661
10394TIP3    H152673   1.134   5.899  16.601 -1.2031  1.0190  0.8713
10394TIP3    H252674   1.167   5.832  16.733 -0.1935 -0.3250 -0.0291
10395TIP3   OH252675   2.414   1.675   3.473 -0.5368 -0.3326  0.7996
10395TIP3    H152676   2.443   1.759   3.437  0.4488 -0.8776  0.2680
10395TIP3    H252677   2.329   1.661   3.433 -0.5579  0.2549  0.6186
10396TIP3   OH252678   3.688   2.864  15.956 -0.0725 -0.2420 -0.0546
10396TIP3    H152679   3.664   2.841  16.045  0.3705 -0.2683  0.0624
10396TIP3    H252680   3.688   2.960  15.954 -0.5041 -0.2450 -0.1438
10397TIP3   OH252681   1.363   0.160   3.685  0.0944  0.0335  0.2915
10397TIP3    H152682   1.297   0.092   3.669 -0.0946 -0.3523  2.3994
10397TIP3    H252683   1.445   0.112   3.692 -0.1352 -0.1250  2.4623
10398TIP3   OH252684   2.790   5.508  12.529 -0.4267  0.6308 -0.7007
10398TIP3    H152685   2.822   5.598  12.534 -2.0693  1.2379 -0.4213
10398TIP3    H252686   2.825   5.474  12.447  1.3517  1.0291 -0.1635
10399TIP3   OH252687   3.645   6.486   1.191  0.4086  0.1378 -0.0335
10399TIP3    H152688   3.685   6.565   1.154  0.8955  1.0187  2.2322
10399TIP3    H252689   3.707   6.457   1.258  1.1716 -3.2926 -1.9740
10400TIP3   OH252690   6.762   3.818  11.964  0.5872  0.2345 -0.4594
10400TIP3    H152691   6.826   3.824  12.035 -0.0441 -0.8281  0.2320
10400TIP3    H252692   6.677   3.821  12.008  0.1467  0.9820 -1.3095
10401TIP3   OH252693   3.792   0.510  15.720 -0.3905  0.4202  0.2951
10401TIP3    H152694   3.751   0.427  15.747 -0.6032  0.9963  1.8679
10401TIP3    H252695   3.876   0.510  15.765  0.6010  0.0812 -1.4685
10402TIP3   OH252696   6.183   6.152   2.231  0.1664 -0.0108  0.3513
10402TIP3    H152697   6.122   6.085   2.263  0.0297  0.7250  1.7369
10402TIP3    H252698   6.248   6.104   2.180 -0.8009 -0.9853  0.0093
10403TIP3   OH252699   6.203   3.143  13.161 -0.1743  0.0207 -0.4249
10403TIP3    H152700   6.129   3.121  13.103 -0.2704  1.7177 -0.9895
10403TIP3    H252701   6.241   3.222  13.123  2.1197 -0.9301 -0.2872
10404TIP3   OH252702   1.021   1.178  12.824  0.1726  0.1860  0.4219
10404TIP3    H152703   1.102   1.132  12.802 -0.6893 -1.7973  1.2501
10404TIP3    H252704   0.980   1.197  12.740 -1.0912 -3.6505 -0.0055
10405TIP3   OH252705   3.970   2.976   4.282  0.2372  0.1526  0.2315
10405TIP3    H152706   3.979   3.050   4.341 -0.0706  1.5637 -1.4150
10405TIP3    H252707   3.876   2.960   4.277  0.2958 -0.3062  0.5069
10406TIP3   OH252708   4.442   0.115   4.516  0.0964  0.1933  0.1190
10406TIP3    H152709   4.448   0.022   4.491 -0.9488  0.3569 -0.7933
10406TIP3    H252710   4.348   0.131   4.527  0.3405  0.8675  1.4204
10407TIP3   OH252711   5.696   1.233  12.561 -0.4570  0.0495 -0.1835
10407TIP3    H152712   5.675   1.210  12.470 -1.5590  2.0086 -0.4913
10407TIP3    H252713   5.653   1.318  12.574  2.8960  1.7178  0.9436
10408TIP3   OH252714   0.223   0.572   1.129 -0.6403  0.3621  0.8129
10408TIP3    H152715   0.318   0.567   1.144 -0.7062 -1.5824  0.9167
10408TIP3    H252716   0.213   0.564   1.034 -0.7039  0.1632  0.8350
10409TIP3   OH252717   2.647   4.497   5.357  0.0956  0.0604 -0.2580
10409TIP3    H152718   2.655   4.404   5.339 -0.8972 -0.5151  1.9199
10409TIP3    H252719   2.711   4.513   5.427 -0.0192  0.9159 -0.3394
10410TIP3   OH252720   6.778   5.865  12.077 -0.8329  0.2115  0.4775
10410TIP3    H152721   6.712   5.932  12.062 -1.1268 -0.0270  0.6877
10410TIP3    H252722   6.735   5.783  12.054 -0.4029  0.1153  0.0078
10411TIP3   OH252723   2.304   3.861   1.300  0.4258 -0.3337  0.1825
10411TIP3    H152724   2.218   3.832   1.330  0.7972 -0.8996  0.7190
10411TIP3    H252725   2.327   3.798   1.231 -0.2526  0.7285 -1.0796
10412TIP3   OH252726   0.857   0.415   1.354  0.3359 -0.3031  0.6952
10412TIP3    H152727   0.830   0.324   1.364  0.6789 -0.3245  1.5418
10412TIP3    H252728   0.950   0.415   1.377  0.0808  0.4349  1.8186
10413TIP3   OH252729   4.844   1.334   0.014  0.3169 -0.1684 -0.1976
10413TIP3    H152730   4.749   1.330  -0.002  0.1535 -2.1128  0.9688
10413TIP3    H252731   4.872   1.413  -0.033 -1.8257  0.3328 -0.7811
10414TIP3   OH252732   0.966   1.751  10.452 -0.1803 -0.2579 -0.1028
10414TIP3    H152733   0.974   1.776  10.360  1.7643  0.0194  0.0934
10414TIP3    H252734   1.054   1.723  10.476 -0.9883 -1.7412  1.2905
10415TIP3   OH252735   4.552   4.718  15.009 -0.5249 -0.0669 -0.4618
10415TIP3    H152736   4.528   4.783  14.942 -0.3481  0.3845 -0.0955
10415TIP3    H252737   4.503   4.744  15.086  2.2581  1.8892  0.8261
10416TIP3   OH252738   1.656   3.900   1.010 -0.0536  0.1690  0.1340
10416TIP3    H152739   1.624   3.967   1.070 -0.0044  0.8548 -0.5851
10416TIP3    H252740   1.728   3.858   1.057  2.5633  3.2437 -0.8262
10417TIP3   OH252741   5.663   1.865   2.558 -0.6715  0.0324 -0.2941
10417TIP3    H152742   5.645   1.771   2.551  1.9095 -0.7090  1.7083
10417TIP3    H252743   5.729   1.882   2.491  0.0549  0.0324  0.4073
10418TIP3   OH252744   0.088   6.428   3.362  0.0298  0.1022  0.1787
10418TIP3    H152745   0.002   6.387   3.363  0.2236 -0.4125 -1.3817
10418TIP3    H252746   0.139   6.375   3.302  2.0989 -0.8330  2.5851
10419TIP3   OH252747   5.529   0.138  16.882 -0.1339 -0.1775 -0.1845
10419TIP3    H152748   5.571   0.053  16.874 -1.1200 -0.7058  0.0402
10419TIP3    H252749   5.447   0.129  16.833 -0.9017  0.1826  0.9783
10420TIP3   OH252750   6.502   5.217   1.957 -0.5839 -0.6750  0.7483
10420TIP3    H152751   6.560   5.294   1.957 -3.3903  1.6200  1.1425
10420TIP3    H252752   6.447   5.229   1.879 -0.2088 -3.1162  0.0282
10421TIP3   OH252753   3.842   2.078   0.389 -0.2504  0.3763  0.0542
10421TIP3    H152754   3.834   2.056   0.482 -0.6766  0.3898  0.0216
10421TIP3    H252755   3.866   1.995   0.347  1.4376  0.6639  0.3623
10422TIP3   OH252756   4.787   6.717   1.433 -0.6698  0.2718  0.1610
10422TIP3    H152757   4.742   6.705   1.349  3.7482  1.2686 -2.7369
10422TIP3    H252758   4.809   6.810   1.435  1.6856 -0.2242  0.9629
10423TIP3   OH252759   2.949   6.104  15.667  0.3694 -0.2088  0.0317
10423TIP3    H152760   3.022   6.091  15.729  0.7833 -0.6662 -0.5440
10423TIP3    H252761   2.927   6.197  15.676 -0.7014 -0.5921  2.0964
10424TIP3   OH252762   6.104   5.853  10.671  0.1901  0.3373 -0.1362
10424TIP3    H152763   6.150   5.808  10.742  0.0796  0.1451 -0.1863
10424TIP3    H252764   6.174   5.884  10.614  0.3458  1.5894  0.7066
10425TIP3   OH252765   1.397   1.139  11.773  0.1511 -0.6464  0.4375
10425TIP3    H152766   1.402   1.182  11.688  0.3033 -1.9765 -0.2490
10425TIP3    H252767   1.475   1.169  11.820 -0.6501  1.1924  0.6687
10426TIP3   OH252768   2.183   1.819  14.826  0.7991  0.2505  0.3853
10426TIP3    H152769   2.116   1.753  14.843  0.2984  1.0092  1.4819
10426TIP3    H252770   2.134   1.896  14.798  1.3578  0.2581 -0.6136
10427TIP3   OH252771   4.689   1.544  13.808 -0.1132 -0.1826 -0.1458
10427TIP3    H152772   4.652   1.497  13.734 -1.6783  0.2771  0.3168
10427TIP3    H252773   4.615   1.590  13.847  0.9506  0.7695  0.8240
10428TIP3   OH252774   0.238   5.326  14.107  0.2302 -0.3662  0.4546
10428TIP3    H152775   0.162   5.324  14.165  0.1599 -0.6639  0.3555
10428TIP3    H252776   0.313   5.311  14.164  0.1724 -0.5261  0.4907
10429TIP3   OH252777   3.983   6.408  12.515  0.0458  0.5398 -0.4452
10429TIP3    H152778   3.953   6.407  12.606 -0.2851 -0.4786 -0.5577
10429TIP3    H252779   3.902   6.405  12.463  0.2673 -1.4369 -0.7540
10430TIP3   OH252780   0.831   1.890  16.037 -0.3209 -0.5091  0.5361
10430TIP3    H152781   0.794   1.808  16.069 -2.5636  0.2484  0.1118
10430TIP3    H252782   0.754   1.945  16.019  1.1008  1.6682  0.7635
10431TIP3   OH252783   1.697   6.272  14.328 -0.4299 -0.1377  0.8966
10431TIP3    H152784   1.681   6.267  14.234  1.2372  0.1052  0.5729
10431TIP3    H252785   1.610   6.274  14.367 -1.1569  0.6658 -0.6863
10432TIP3   OH252786   2.050   3.459  14.199 -0.0459  0.2975  0.1836
10432TIP3    H152787   2.064   3.447  14.105  0.6015  1.7234  0.0724
10432TIP3    H252788   1.998   3.539  14.206  0.7073  0.7313  1.0658
10433TIP3   OH252789   0.350   0.426   1.888 -0.0603 -0.3874  0.3707
10433TIP3    H152790   0.315   0.340   1.863  0.2192 -0.9521  1.8362
10433TIP3    H252791   0.417   0.445   1.822  0.4129 -1.6625  0.4642
10434TIP3   OH252792   6.220   5.844  11.774  0.4134  0.9343 -0.4190
10434TIP3    H152793   6.229   5.766  11.829  2.3565  0.8312 -0.8311
10434TIP3    H252794   6.269   5.912  11.821 -0.2994  1.6199 -0.6381
10435TIP3   OH252795   2.252   5.786   0.754 -0.4039 -0.5175  0.1294
10435TIP3    H152796   2.160   5.810   0.759 -0.6039 -0.6051 -2.2991
10435TIP3    H252797   2.299   5.869   0.743 -0.4436 -0.6376 -1.0704
10436TIP3   OH252798   4.225   5.696  12.852 -0.2166 -0.2429  0.0000
10436TIP3    H152799   4.257   5.734  12.771  0.4473  2.0110  1.2506
10436TIP3    H252800   4.262   5.607  12.853  1.0060  0.2134 -1.4361
10437TIP3   OH252801   2.503   4.275   5.705 -0.2505  0.4906  0.0492
10437TIP3    H152802   2.526   4.324   5.784  0.7720  0.4860 -0.2307
10437TIP3    H252803   2.486   4.186   5.736  0.5452  0.3912  0.2241
10438TIP3   OH252804   2.079   5.307  16.560  0.7680 -0.1072  0.4739
10438TIP3    H152805   2.143   5.366  16.522  0.4496  0.5160  0.8825
10438TIP3    H252806   2.052   5.350  16.642 -0.3621 -0.2247  0.1811
10439TIP3   OH252807   5.593   2.778   5.886  0.0346 -0.2644  0.3351
10439TIP3    H152808   5.519   2.789   5.945  1.3300  0.4793  1.8961
10439TIP3    H252809   5.611   2.867   5.853  0.4637 -0.3732  0.2702
10440TIP3   OH252810   0.307   4.495  13.923  0.2465 -0.0813  0.3567
10440TIP3    H152811   0.287   4.582  13.887  0.8653  0.2394  0.7563
10440TIP3    H252812   0.266   4.496  14.010 -0.1739 -0.3804  0.1630
10441TIP3   OH252813   0.241   4.855  12.839  0.1081  0.3662  0.6308
10441TIP3    H152814   0.194   4.848  12.757  1.0190  0.0155  0.1248
10441TIP3    H252815   0.323   4.808  12.824 -0.4216 -1.2069  2.2855
10442TIP3   OH252816   5.432   6.255  16.501  0.1248  0.1229 -0.2688
10442TIP3    H152817   5.440   6.334  16.446 -1.3925  0.7375  0.3280
10442TIP3    H252818   5.364   6.278  16.565  0.2919 -1.3695  0.4716
10443TIP3   OH252819   4.281   6.400   1.041  0.0175 -0.2576  1.0366
10443TIP3    H152820   4.311   6.486   1.011  0.3194 -0.6834  0.0856
10443TIP3    H252821   4.231   6.419   1.121  2.2344  0.5413  2.3302
10444TIP3   OH252822   6.247   5.645   6.173  0.4058  0.2557  0.4444
10444TIP3    H152823   6.199   5.564   6.191 -1.4142  0.9164 -1.0646
10444TIP3    H252824   6.209   5.709   6.233 -2.4178  1.3340 -2.2155
10445TIP3   OH252825   3.956   1.336   1.725 -0.0455 -0.2951  1.0048
10445TIP3    H152826   3.915   1.288   1.653 -0.8108 -0.1333  1.3128
10445TIP3    H252827   3.882   1.369   1.776  0.4280 -1.9302  2.8952
10446TIP3   OH252828   0.220   4.601   3.630  0.2308 -0.2949 -0.3873
10446TIP3    H152829   0.159   4.641   3.692 -0.5309 -1.4081 -0.3841
10446TIP3    H252830   0.174   4.604   3.546  0.8826  0.3800 -0.7259
10447TIP3   OH252831   4.854   3.313  13.739  0.4543  0.7502  0.6273
10447TIP3    H152832   4.787   3.266  13.789  0.9359 -0.0177  0.5545
10447TIP3    H252833   4.904   3.245  13.695  1.8671  1.2595  1.3804
10448TIP3   OH252834   0.618   5.871  10.560  0.7403  0.1172 -0.5106
10448TIP3    H152835   0.540   5.908  10.601 -0.2414  0.6444 -2.7262
10448TIP3    H252836   0.689   5.931  10.583  0.4324 -0.1128  1.1329
10449TIP3   OH252837   4.437   2.508   3.551 -0.0254 -0.1968 -0.3651
10449TIP3    H152838   4.375   2.563   3.599  0.4412  0.4684 -0.5189
10449TIP3    H252839   4.432   2.540   3.460  0.5944 -0.0912 -0.3651
10450TIP3   OH252840   6.049   3.572  13.985  0.3590 -0.0059  0.4801
10450TIP3    H152841   6.028   3.617  13.903  0.0828  0.8748  1.0144
10450TIP3    H252842   6.037   3.639  14.052  0.4963 -0.7399  1.2503
10451TIP3   OH252843   1.082   0.210   1.571  0.1558  0.4007 -0.3132
10451TIP3    H152844   1.141   0.278   1.605  0.0084 -0.8457  2.8182
10451TIP3    H252845   0.999   0.228   1.614 -0.6372 -0.2357 -1.5410
10452TIP3   OH252846   0.714   0.725  12.960  0.0604 -0.2068  0.4765
10452TIP3    H152847   0.665   0.798  12.922 -1.5244 -0.7844  1.2904
10452TIP3    H252848   0.778   0.701  12.893  0.0594  1.3844 -0.1344
10453TIP3   OH252849   6.762   1.350  15.484  0.4566 -0.2864  0.0033
10453TIP3    H152850   6.776   1.438  15.518 -1.3398 -0.0625  0.2597
10453TIP3    H252851   6.700   1.362  15.412  1.3113 -1.1953 -0.9181
10454TIP3   OH252852   6.426   3.630   3.604  0.4727  0.2054  0.3378
10454TIP3    H152853   6.342   3.585   3.613  1.1987 -1.2588  0.1245
10454TIP3    H252854   6.479   3.597   3.677  0.7488  1.4053  0.7018
10455TIP3   OH252855   0.729   2.333   6.195  0.8696 -0.0513 -0.2224
10455TIP3    H152856   0.649   2.384   6.210 -0.1358 -0.8434 -2.4911
10455TIP3    H252857   0.721   2.258   6.255 -0.4707 -0.5045 -0.9388
10456TIP3   OH252858   3.523   1.691   5.306  0.2548  0.4008 -0.5582
10456TIP3    H152859   3.477   1.665   5.227 -0.8798  1.7358 -0.3843
10456TIP3    H252860   3.496   1.782   5.320  3.2725  1.4304 -0.6828
10457TIP3   OH252861   6.196   3.929  15.471  0.3184  0.1496  0.4770
10457TIP3    H152862   6.252   3.929  15.549  0.2883 -0.7785  0.5181
10457TIP3    H252863   6.173   3.837  15.460  0.5974  0.2276 -0.8247
10458TIP3   OH252864   5.027   3.089   5.343 -0.7329 -0.0821 -0.0669
10458TIP3    H152865   4.931   3.082   5.342 -0.7037 -0.5766  0.2252
10458TIP3    H252866   5.044   3.183   5.349 -1.2074 -0.0316  0.5682
10459TIP3   OH252867   1.219   5.137   0.620 -0.1097  0.5273 -0.3067
10459TIP3    H152868   1.275   5.184   0.558  1.0502 -0.2859  0.0842
10459TIP3    H252869   1.280   5.101   0.685 -1.1918  0.4304  0.6877
10460TIP3   OH252870   2.461   1.774  14.724 -0.1351  0.0914 -0.6377
10460TIP3    H152871   2.457   1.784  14.629 -1.2486  0.4171 -0.5760
10460TIP3    H252872   2.370   1.758  14.750  0.2837 -1.0008  0.2703
10461TIP3   OH252873   1.879   2.427   3.452 -0.3064  0.2032  0.1742
10461TIP3    H152874   1.930   2.501   3.421 -1.8474  0.7949 -1.0757
10461TIP3    H252875   1.922   2.350   3.415  0.3597  0.5847  0.1434
10462TIP3   OH252876   2.954   6.082  16.247 -0.1715 -0.4007  0.0515
10462TIP3    H152877   3.024   6.114  16.304  0.3321 -2.0031  0.4069
10462TIP3    H252878   2.873   6.108  16.290  0.1925  0.8416  0.0155
10463TIP3   OH252879   6.697   4.416   4.890  0.1291 -0.9418  0.2680
10463TIP3    H152880   6.731   4.504   4.902 -0.2102 -0.8096  0.2760
10463TIP3    H252881   6.719   4.370   4.971 -0.6848 -0.5338  0.7382
10464TIP3   OH252882   5.218   2.087  15.613 -0.2812 -0.4370 -0.0258
10464TIP3    H152883   5.307   2.118  15.628 -0.0798 -1.1256  0.2140
10464TIP3    H252884   5.172   2.107  15.694 -0.9349  1.8661 -0.8674
10465TIP3   OH252885   5.380   3.617  16.179  0.4966 -0.1535 -0.2129
10465TIP3    H152886   5.301   3.583  16.137 -1.5320  1.5083  1.9629
10465TIP3    H252887   5.388   3.566  16.259  0.1590  1.2895  0.7731
10466TIP3   OH252888   1.098   1.476   0.852 -0.0692  0.0411  0.0084
10466TIP3    H152889   1.055   1.536   0.913 -0.7894  0.7152 -1.1049
10466TIP3    H252890   1.047   1.485   0.771  1.3138 -0.2288 -0.9241
10467TIP3   OH252891   1.803   5.764  15.361 -0.1821 -0.0828  0.6231
10467TIP3    H152892   1.764   5.677  15.360  0.6587 -0.4643 -0.3534
10467TIP3    H252893   1.889   5.752  15.400 -0.6300  0.5920  1.8846
10468TIP3   OH252894   6.182   4.202   2.879  0.5342  0.1932  0.6351
10468TIP3    H152895   6.251   4.248   2.927 -0.7922  0.7075  2.1707
10468TIP3    H252896   6.160   4.128   2.935  0.6608 -0.6702 -0.4281
10469TIP3   OH252897   6.616   0.200  11.415 -0.0475 -0.7157  0.2958
10469TIP3    H152898   6.618   0.133  11.483 -1.5507 -1.2367 -0.1431
10469TIP3    H252899   6.525   0.201  11.385 -0.0774  1.5201  0.2882
10470TIP3   OH252900   3.136   2.023  14.928  0.2013 -0.8036 -0.0472
10470TIP3    H152901   3.078   1.949  14.914  0.2046 -0.8184  0.0171
10470TIP3    H252902   3.086   2.083  14.983 -1.1979  0.8553 -2.9036
10471TIP3   OH252903   3.600   4.826   1.503  0.4741 -0.5932 -0.2006
10471TIP3    H152904   3.518   4.803   1.546  0.2959  0.3479 -0.0094
10471TIP3    H252905   3.600   4.775   1.422 -0.1016 -0.9149 -0.0050
10472TIP3   OH252906   3.425   5.350  16.844  0.8982  0.0303  0.7125
10472TIP3    H152907   3.452   5.352  16.752  1.1317 -2.7853  0.6475
10472TIP3    H252908   3.506   5.332  16.892  0.5842  0.4025  1.3996
10473TIP3   OH252909   2.999   1.350   1.727 -0.8862  0.4450 -0.1842
10473TIP3    H152910   3.084   1.328   1.763 -1.2965  0.3767  0.7648
10473TIP3    H252911   3.008   1.335   1.633  1.3351  4.0699 -0.7637
10474TIP3   OH252912   2.293   1.076   0.362 -0.5717  0.4693  0.3535
10474TIP3    H152913   2.339   0.998   0.392 -1.9366 -0.0995  1.0480
10474TIP3    H252914   2.202   1.063   0.390 -1.3817  1.1335 -1.7668
10475TIP3   OH252915   4.790   5.866  11.158  0.1576 -0.4810 -0.4466
10475TIP3    H152916   4.731   5.886  11.230  0.2278 -1.8772  0.0327
10475TIP3    H252917   4.808   5.951  11.117 -0.1733  0.2865  0.9393
10476TIP3   OH252918   3.958   0.034   2.737  1.0248 -0.5172  0.4262
10476TIP3    H152919   3.952   0.027   2.642  0.5837  2.4079  0.1479
10476TIP3    H252920   4.051   0.033   2.755  1.1710  0.5020 -0.2223
10477TIP3   OH252921   3.004   4.791  14.549  0.1063 -0.4278  0.3276
10477TIP3    H152922   2.992   4.886  14.556  0.2161 -0.2905 -1.0586
10477TIP3    H252923   2.924   4.754  14.586  0.2041  0.1925  1.1731
10478TIP3   OH252924   0.918   2.212  13.297  0.1355  0.5869  0.5426
10478TIP3    H152925   0.927   2.229  13.390 -1.6705  3.4293  0.3122
10478TIP3    H252926   0.983   2.269  13.255  1.0766 -0.8124 -0.0082
10479TIP3   OH252927   3.920   4.050  14.688  0.2477  1.1589  0.0565
10479TIP3    H152928   3.991   3.996  14.653  0.4059  1.4894 -0.1420
10479TIP3    H252929   3.899   4.111  14.617  0.9750  2.2255  0.7228
10480TIP3   OH252930   0.586   2.322   5.607 -0.8155  0.0663  0.4752
10480TIP3    H152931   0.581   2.268   5.528 -2.8598  0.1876  0.4759
10480TIP3    H252932   0.675   2.308   5.640  0.1169  0.0708 -1.8598
10481TIP3   OH252933   2.983   4.577  16.901  0.5349 -0.1254  0.7198
10481TIP3    H152934   2.998   4.522  16.978  0.5149 -0.8118  0.2476
10481TIP3    H252935   3.035   4.655  16.917  3.3003 -1.6580 -0.0275
10482TIP3   OH252936   2.834   5.458  14.140  0.1625  0.7376 -0.5523
10482TIP3    H152937   2.870   5.543  14.168 -0.5525  0.9162 -0.1528
10482TIP3    H252938   2.813   5.471  14.048  1.6103  0.4582 -0.9484
10483TIP3   OH252939   3.382   1.265  13.325 -0.2015  0.8492 -0.3619
10483TIP3    H152940   3.325   1.238  13.397  0.2777  1.6189  0.3174
10483TIP3    H252941   3.328   1.253  13.247 -0.9794  0.6873  0.1843
10484TIP3   OH252942   4.672   5.559   6.192 -0.3673 -0.3254 -0.4778
10484TIP3    H152943   4.609   5.575   6.262 -1.3800  1.4081 -1.7078
10484TIP3    H252944   4.757   5.556   6.237 -0.6640  3.3713  0.6812
10485TIP3   OH252945   6.671   2.163   1.911  0.0720  0.3059  0.7291
10485TIP3    H152946   6.703   2.148   1.822 -1.8647  1.1462 -0.1847
10485TIP3    H252947   6.741   2.131   1.968  1.3960 -0.1986 -1.0851
10486TIP3   OH252948   2.095   0.543   4.695  1.2728 -0.1747  0.1025
10486TIP3    H152949   2.039   0.466   4.707 -0.0795  0.6857 -0.3326
10486TIP3    H252950   2.176   0.508   4.659  1.4821 -1.6006  1.8162
10487TIP3   OH252951   2.963   6.126  16.681 -0.1915  0.4072  0.3679
10487TIP3    H152952   2.869   6.118  16.663 -0.1014 -0.9050  0.4166
10487TIP3    H252953   2.973   6.088  16.768  0.2322  1.5484  0.8340
10488TIP3   OH252954   5.316   3.914   5.111 -0.5062 -0.5503 -0.2938
10488TIP3    H152955   5.362   3.893   5.030 -1.0953  1.7576 -1.3090
10488TIP3    H252956   5.380   3.897   5.180  0.5701 -1.0068 -1.3694
10489TIP3   OH252957   4.733   3.717  13.466 -0.2761  0.4994  0.0300
10489TIP3    H152958   4.706   3.757  13.384  2.3394  0.7814 -0.8065
10489TIP3    H252959   4.740   3.623  13.446 -0.7109  0.4188  0.2554
10490TIP3   OH252960   0.800   4.615  14.309 -0.0609 -0.7760 -0.2846
10490TIP3    H152961   0.848   4.613  14.392  0.0422 -0.5306 -0.3359
10490TIP3    H252962   0.836   4.691  14.263  0.2809 -1.2477 -0.7983
10491TIP3   OH252963   1.962   3.544  16.640  0.3514 -0.0908  0.7577
10491TIP3    H152964   2.003   3.460  16.621 -0.7666 -1.2972  3.1886
10491TIP3    H252965   1.995   3.568  16.726 -2.8832 -0.4961  2.2642
10492TIP3   OH252966   4.611   4.211  16.534  0.4003 -0.1590  0.3503
10492TIP3    H152967   4.638   4.303  16.534  2.0326 -0.6002  0.9094
10492TIP3    H252968   4.686   4.164  16.571  0.0227 -1.8440 -0.8965
10493TIP3   OH252969   1.866   2.884  14.481  0.3400 -0.5949  0.4522
10493TIP3    H152970   1.948   2.911  14.441  0.0107 -1.1573 -0.6397
10493TIP3    H252971   1.855   2.943  14.555  0.0655  1.6870 -1.3091
10494TIP3   OH252972   3.114   0.585  12.152  0.1654 -0.5754  0.3045
10494TIP3    H152973   3.053   0.647  12.111  0.7824  0.5009  0.9461
10494TIP3    H252974   3.137   0.626  12.235  0.7685 -1.5793  0.6503
10495TIP3   OH252975   2.329   3.010  11.224  0.4325  0.3116 -0.7766
10495TIP3    H152976   2.262   3.022  11.291  1.4869  2.1958  0.0456
10495TIP3    H252977   2.396   3.075  11.246  1.9254 -0.6291 -2.3041
10496TIP3   OH252978   6.657   1.797  15.217  0.4436 -0.1529 -0.1815
10496TIP3    H152979   6.697   1.814  15.302  2.0268 -0.7878 -0.7675
10496TIP3    H252980   6.563   1.798  15.235  0.7379 -1.4022  1.8057
10497TIP3   OH252981   3.448   6.589   5.128 -0.3098 -0.2421  0.1173
10497TIP3    H152982   3.536   6.626   5.141 -1.0118  0.7717  2.4572
10497TIP3    H252983   3.435   6.531   5.203 -2.7479  1.9651  1.5515
10498TIP3   OH252984   5.351   3.144   4.358  0.5486  0.4624  0.4644
10498TIP3    H152985   5.380   3.083   4.426 -1.1470  0.8370  1.5860
10498TIP3    H252986   5.372   3.100   4.276  0.9087 -0.8734  1.2360
10499TIP3   OH252987   0.616   1.997  11.636  0.0532  0.7686  0.0466
10499TIP3    H152988   0.648   2.085  11.655 -1.0532  0.9822  1.0584
10499TIP3    H252989   0.588   2.001  11.545 -1.2287  1.8905  0.4485
10500TIP3   OH252990   6.322   2.024   0.012  0.3353  0.1426 -0.1860
10500TIP3    H152991   6.390   1.956   0.012  0.0755 -0.1223 -0.7809
10500TIP3    H252992   6.257   1.993   0.074  1.3652  1.0338  1.4163
10501TIP3   OH252993   1.606   2.525  15.343  0.0488 -0.0688 -0.3262
10501TIP3    H152994   1.536   2.589  15.348  0.7607  0.9405 -2.1039
10501TIP3    H252995   1.605   2.496  15.252  0.4455 -1.7881  0.1854
10502TIP3   OH252996   4.940   4.469   3.947  0.1823 -0.2766  0.4953
10502TIP3    H152997   4.889   4.465   3.866 -0.0817  2.1311  0.4667
10502TIP3    H252998   5.028   4.494   3.919  0.8587 -2.1919  0.7539
10503TIP3   OH252999   2.764   5.755   1.931 -0.0656  0.1967 -0.1683
10503TIP3    H153000   2.718   5.703   1.998  0.9153 -0.7181 -0.1683
10503TIP3    H253001   2.822   5.692   1.889 -0.7946  0.7110 -2.0378
10504TIP3   OH253002   3.319   4.207   5.747  0.2797 -0.3099 -0.0295
10504TIP3    H153003   3.303   4.163   5.830  1.3338 -0.8647 -0.1026
10504TIP3    H253004   3.246   4.180   5.691 -1.5562  1.6499  1.2673
10505TIP3   OH253005   3.434   2.803  14.740  0.6768  0.5496  0.1783
10505TIP3    H153006   3.384   2.862  14.796 -0.6083  1.8611 -2.1786
10505TIP3    H253007   3.369   2.765  14.682  2.0643  0.1771 -1.2015
10506TIP3   OH253008   1.423   2.616   3.884  0.4100 -0.2033  0.0583
10506TIP3    H153009   1.465   2.683   3.830  0.5469 -0.2792  0.0711
10506TIP3    H253010   1.488   2.546   3.891  0.5465 -0.0200  0.6498
10507TIP3   OH253011   2.465   5.646  16.366 -0.2082  0.2637 -0.0241
10507TIP3    H153012   2.495   5.736  16.367  2.5598 -0.5373  2.0636
10507TIP3    H253013   2.541   5.596  16.337 -0.1992 -1.6957  2.9332
10508TIP3   OH253014   5.248   2.603   2.239  0.3546 -0.1576 -0.1647
10508TIP3    H153015   5.205   2.642   2.163  0.5312  1.1294  0.3537
10508TIP3    H253016   5.321   2.553   2.203  0.2266  0.1556 -0.8610
10509TIP3   OH253017   5.577   2.868   5.462  0.1767 -0.1024 -0.4790
10509TIP3    H153018   5.520   2.931   5.504  2.6874  0.7569  1.9266
10509TIP3    H253019   5.587   2.900   5.372 -0.0757  1.8860  0.1609
10510TIP3   OH253020   4.407   4.441   0.104  0.6793  0.2451 -0.4061
10510TIP3    H153021   4.495   4.443   0.143  0.4965  1.4811 -0.0316
10510TIP3    H253022   4.410   4.366   0.045  1.8654  0.0274 -0.1107
10511TIP3   OH253023   5.427   1.528  11.291  0.1743  0.2541 -0.7285
10511TIP3    H153024   5.460   1.453  11.341 -2.2655 -0.2340  0.2809
10511TIP3    H253025   5.426   1.497  11.201  0.3200 -0.5001 -0.4798
10512TIP3   OH253026   0.531   5.678  13.284  0.4407 -0.3808  0.2778
10512TIP3    H153027   0.513   5.642  13.197 -1.6310 -0.7833  0.8153
10512TIP3    H253028   0.464   5.746  13.296  1.6146  0.6993  1.0079
10513TIP3   OH253029   2.142   3.349  13.981 -0.2573  0.0123  0.5527
10513TIP3    H153030   2.181   3.278  14.031  0.4383 -0.2615 -0.3747
10513TIP3    H253031   2.199   3.360  13.905 -2.7208 -1.3773 -1.6493
10514TIP3   OH253032   3.778   0.589  16.843  0.2354  0.6406  0.4050
10514TIP3    H153033   3.818   0.675  16.835 -1.8839  1.6369  0.0580
10514TIP3    H253034   3.753   0.582  16.935  1.1518  0.0153  0.6243
10515TIP3   OH253035   0.100   4.297   4.613  0.2230  0.0779  0.0855
10515TIP3    H153036   0.124   4.211   4.579 -0.5876  0.0241 -0.3636
10515TIP3    H253037   0.136   4.298   4.702  1.5324 -0.1430 -0.4182
10516TIP3   OH253038   1.277   3.546  14.956 -0.1315  0.2055  0.2457
10516TIP3    H153039   1.307   3.636  14.964  1.7916  0.1280 -3.7505
10516TIP3    H253040   1.199   3.551  14.900 -0.4480 -0.5634  0.6020
10517TIP3   OH253041   6.053   1.262   0.339 -0.1199 -0.1496 -0.4540
10517TIP3    H153042   6.007   1.331   0.291 -1.3117 -0.0138  0.8119
10517TIP3    H253043   6.005   1.182   0.318  1.3984 -0.7081 -2.1058
10518TIP3   OH253044   0.101   5.091   0.446  0.0051 -0.2135  0.5979
10518TIP3    H153045   0.085   4.997   0.458  0.1929 -0.3928 -0.4592
10518TIP3    H253046   0.196   5.098   0.436  0.1210  0.2470  1.8925
10519TIP3   OH253047   3.415   4.587  13.168 -1.0271 -0.3610 -0.1664
10519TIP3    H153048   3.331   4.553  13.138 -0.8117 -0.8201 -0.2512
10519TIP3    H253049   3.408   4.682  13.157 -0.9675 -0.5051 -1.6376
10520TIP3   OH253050   5.860   5.688  13.563 -0.7755 -0.0428 -0.1435
10520TIP3    H153051   5.772   5.695  13.528 -0.8342 -0.8262 -0.1779
10520TIP3    H253052   5.853   5.622  13.632 -0.4533  0.7309  0.6511
10521TIP3   OH253053   5.147   2.110  12.690  0.6903 -1.0987 -0.0782
10521TIP3    H153054   5.073   2.117  12.750  1.0107 -2.5058  0.5010
10521TIP3    H253055   5.217   2.158  12.734  0.2075  0.1292 -0.5703
10522TIP3   OH253056   4.758   0.031   5.592  0.2450  0.2454 -0.6043
10522TIP3    H153057   4.827   0.087   5.626 -0.5412 -0.2347  1.9932
10522TIP3    H253058   4.773  -0.054   5.633 -1.6768  0.0572 -0.1832
10523TIP3   OH253059   0.713   0.720   3.508 -0.2174  1.1719  0.4590
10523TIP3    H153060   0.732   0.751   3.419  0.0490  1.0057  0.4571
10523TIP3    H253061   0.790   0.745   3.559 -1.3427  3.3949  1.1923
10524TIP3   OH253062   5.163   0.726   3.294 -0.2497  0.0627 -0.2103
10524TIP3    H153063   5.226   0.771   3.350 -0.6282 -1.5405  1.5934
10524TIP3    H253064   5.111   0.672   3.354 -3.1819  1.0701 -1.6296
10525TIP3   OH253065   5.602   3.812   4.542 -0.1199 -0.4348  0.2465
10525TIP3    H153066   5.673   3.877   4.544  0.2255 -0.8277  1.1783
10525TIP3    H253067   5.606   3.770   4.627 -2.1676  0.2765  0.7516
10526TIP3   OH253068   6.474   4.314  13.866  1.0160 -0.1632  0.4766
10526TIP3    H153069   6.384   4.286  13.849  0.2546  2.7198 -0.8336
10526TIP3    H253070   6.527   4.267  13.801 -0.3232  1.8611 -2.2799
10527TIP3   OH253071   3.383   4.623  15.633 -0.1753  0.3729  0.0018
10527TIP3    H153072   3.297   4.641  15.597 -0.1624 -0.4902 -0.4999
10527TIP3    H253073   3.399   4.693  15.696 -0.4461  1.6074 -1.2563
10528TIP3   OH253074   5.785   0.755   2.131 -0.1205  0.6925  0.1676
10528TIP3    H153075   5.800   0.671   2.088 -1.5921 -0.2367  1.3736
10528TIP3    H253076   5.839   0.752   2.211  0.2279  1.1243 -0.0448
10529TIP3   OH253077   6.348   6.175   4.008 -0.0789  0.0045  0.0955
10529TIP3    H153078   6.357   6.188   3.913 -0.9046  3.1712  0.3628
10529TIP3    H253079   6.434   6.198   4.044  0.4151 -1.7376  0.1705
10530TIP3   OH253080   1.177   3.602  14.122 -0.1353 -0.5845 -0.4520
10530TIP3    H153081   1.215   3.660  14.188  1.4692 -0.7148 -1.1937
10530TIP3    H253082   1.191   3.648  14.039 -2.3241 -0.3191 -0.7190
10531TIP3   OH253083   0.400   5.668   0.633  0.0424  0.0804  0.1881
10531TIP3    H153084   0.439   5.583   0.650  0.6168  0.2628 -0.1821
10531TIP3    H253085   0.414   5.718   0.713 -1.2140 -0.4985  0.7916
10532TIP3   OH253086   4.741   1.767  14.450 -0.3199 -0.7150  0.1113
10532TIP3    H153087   4.747   1.861  14.463 -0.2479 -0.6908 -0.0839
10532TIP3    H253088   4.831   1.739  14.433 -0.6204 -0.3904 -2.5889
10533TIP3   OH253089   3.514   6.271   1.333  0.2058  0.0518  0.0121
10533TIP3    H153090   3.586   6.210   1.315 -1.3827 -1.9797  0.2225
10533TIP3    H253091   3.556   6.343   1.380  1.9804 -1.5088  1.0078
10534TIP3   OH253092   6.289   3.660   2.008  0.0219  0.1022 -0.5362
10534TIP3    H153093   6.355   3.638   2.074  1.4798  1.4738 -1.4618
10534TIP3    H253094   6.277   3.755   2.017  0.0904  0.2800 -2.0744
10535TIP3   OH253095   2.404   1.051  11.400  0.1107 -0.1322 -0.3420
10535TIP3    H153096   2.493   1.085  11.390  0.0750  0.5051  1.1413
10535TIP3    H253097   2.358   1.082  11.322  0.1718  3.0584  0.7254
10536TIP3   OH253098   1.338   3.181   4.990 -0.2582 -0.8028 -0.1477
10536TIP3    H153099   1.417   3.127   4.996  1.4346  1.3346 -1.7494
10536TIP3    H253100   1.366   3.267   5.022 -2.4835 -0.4435  0.9996
10537TIP3   OH253101   5.084   4.195  16.320 -0.0337  0.0993  0.2630
10537TIP3    H153102   5.105   4.219  16.411 -0.2513  1.4453 -0.0222
10537TIP3    H253103   5.169   4.181  16.279  0.0460 -2.3500  1.0998
10538TIP3   OH253104   1.243   1.734  10.678 -0.1332  0.5017  0.1380
10538TIP3    H153105   1.315   1.691  10.724 -0.8379 -1.9572 -0.9249
10538TIP3    H253106   1.166   1.716  10.732 -0.5220 -0.0810 -0.5978
10539TIP3   OH253107   0.959   4.452  11.277  0.4762  0.2076  0.1284
10539TIP3    H153108   0.970   4.462  11.183 -0.7752 -1.7182 -0.2819
10539TIP3    H253109   1.045   4.427  11.309  0.5288 -0.8589 -0.7935
10540TIP3   OH253110   1.100   5.645  14.912  0.6890 -0.2856 -0.5857
10540TIP3    H153111   1.156   5.640  14.989  0.3086  0.8924 -0.2171
10540TIP3    H253112   1.150   5.699  14.850 -0.0896  0.9739 -0.1671
10541TIP3   OH253113   4.973   0.442  11.447 -0.1109 -0.0855  0.3288
10541TIP3    H153114   5.056   0.434  11.495 -0.7191 -0.4829  1.3277
10541TIP3    H253115   4.929   0.359  11.462 -0.8531  0.2616  0.0964
10542TIP3   OH253116   3.438   6.266   0.317 -0.2599 -0.0529  0.0498
10542TIP3    H153117   3.496   6.192   0.336  0.2081  0.0629 -0.8775
10542TIP3    H253118   3.440   6.319   0.396  0.2817 -0.4574  0.3109
10543TIP3   OH253119   5.376   4.325   3.429 -0.4496 -0.1875  0.7232
10543TIP3    H153120   5.414   4.259   3.486  0.5489  2.0735  2.8347
10543TIP3    H253121   5.281   4.314   3.439 -0.2911 -1.1608  1.1982
10544TIP3   OH253122   5.423   2.945   1.671 -0.1678  0.6274  0.1030
10544TIP3    H153123   5.453   3.022   1.719 -0.2003  1.3797 -1.0505
10544TIP3    H253124   5.358   2.905   1.729  0.2156  1.1791  0.9366
10545TIP3   OH253125   1.701   3.534   5.800  0.2035 -0.0245 -0.1814
10545TIP3    H153126   1.671   3.476   5.730 -0.7826  1.5295 -1.1086
10545TIP3    H253127   1.786   3.566   5.771  0.4006 -0.4096 -0.0300
10546TIP3   OH253128   5.796   6.056   4.674 -0.3563  0.3328 -0.0797
10546TIP3    H153129   5.861   6.037   4.607 -2.4210 -1.8487 -1.6423
10546TIP3    H253130   5.748   6.131   4.640 -1.8387 -1.1883 -1.4932
10547TIP3   OH253131   3.343   3.026   4.352  0.3973  0.2012  0.1666
10547TIP3    H153132   3.325   2.960   4.419 -0.4520  0.5642  0.3164
10547TIP3    H253133   3.400   3.090   4.396  0.3867  0.0934  0.3380
10548TIP3   OH253134   4.446   1.754   5.527 -0.8102 -0.1210 -0.0002
10548TIP3    H153135   4.417   1.666   5.551  2.3402 -1.2209  0.3302
10548TIP3    H253136   4.499   1.741   5.448  1.5402  1.0319  1.2584
10549TIP3   OH253137   5.355   4.060  11.155  0.5269  0.0454  0.1533
10549TIP3    H153138   5.362   3.972  11.192 -0.8887  0.1847  0.8362
10549TIP3    H253139   5.444   4.082  11.128  1.1442 -1.0802  1.1753
10550TIP3   OH253140   3.679   0.392   2.943  0.1148  0.4859  0.0076
10550TIP3    H153141   3.759   0.404   2.994  1.2051 -3.1656 -0.5498
10550TIP3    H253142   3.710   0.356   2.860 -2.1170 -2.1282  0.2002
10551TIP3   OH253143   0.824   0.909   0.177 -0.6321  0.6014 -0.2306
10551TIP3    H153144   0.887   0.852   0.133 -1.5110  0.0031 -0.7272
10551TIP3    H253145   0.819   0.875   0.266  0.0771  0.9280 -0.0620
10552TIP3   OH253146   0.958   2.506  15.771  0.4322  0.1335 -0.0385
10552TIP3    H153147   0.982   2.496  15.679 -0.7600  0.2265 -0.3865
10552TIP3    H253148   0.991   2.592  15.795  1.2447 -0.1263 -0.2128
10553TIP3   OH253149   3.706   4.718   0.021  0.5719 -0.1291 -0.0308
10553TIP3    H153150   3.691   4.665   0.099  0.8884 -1.6095 -0.9350
10553TIP3    H253151   3.798   4.700  -0.002  0.1640 -0.5933 -1.3645
10554TIP3   OH253152   1.099   1.721   2.769 -0.0342  0.7061 -0.2600
10554TIP3    H153153   1.189   1.722   2.736  0.2090 -0.2393  0.3302
10554TIP3    H253154   1.045   1.740   2.693  0.5964  0.1016 -0.8759
10555TIP3   OH253155   2.531   1.285  15.628 -0.0209 -0.3481  0.2883
10555TIP3    H153156   2.476   1.271  15.705  0.0135  0.2129  0.4215
10555TIP3    H253157   2.616   1.309  15.665  0.1015 -0.4480  0.0738
10556TIP3   OH253158   6.340   6.776  12.632  0.3124 -0.0723  0.4285
10556TIP3    H153159   6.259   6.760  12.584 -0.7991  2.8717  1.0456
10556TIP3    H253160   6.376   6.855  12.592  1.7193 -0.1024  1.5603
10557TIP3   OH253161   0.930   5.543   0.093  0.3317 -0.1943 -0.0527
10557TIP3    H153162   0.924   5.514   0.184  1.3206  0.3824  0.2103
10557TIP3    H253163   0.928   5.639   0.099  1.2298 -0.1378 -0.5664
10558TIP3   OH253164   5.641   6.267   0.974 -0.1819  0.4092 -1.0543
10558TIP3    H153165   5.687   6.209   1.035 -0.2316 -0.0043 -1.4093
10558TIP3    H253166   5.554   6.228   0.965 -0.5658  1.1137 -0.4937
10559TIP3   OH253167   4.697   6.325   5.660  0.1990 -0.3548 -1.0815
10559TIP3    H153168   4.638   6.274   5.715  0.4631 -0.8116 -1.2214
10559TIP3    H253169   4.652   6.331   5.576 -0.5441  0.9610 -0.6288
10560TIP3   OH253170   1.268   6.402  13.038  0.3305 -0.4393  0.2347
10560TIP3    H153171   1.351   6.431  13.000  0.0992 -0.7688 -0.5326
10560TIP3    H253172   1.233   6.339  12.975 -1.2886  0.8892 -0.2889
10561TIP3   OH253173   3.200   1.769   0.153  0.1654 -0.3896 -0.7549
10561TIP3    H153174   3.170   1.749   0.064 -1.1293 -1.6406 -0.0664
10561TIP3    H253175   3.121   1.793   0.201  0.2440 -3.0000  0.8995
10562TIP3   OH253176   5.119   5.083  15.503 -0.0854 -0.4835  0.4049
10562TIP3    H153177   5.165   5.058  15.423 -0.1671  0.6934 -0.0327
10562TIP3    H253178   5.156   5.026  15.571  1.3875 -0.1798 -0.0952
10563TIP3   OH253179   3.684   3.477   1.232 -0.3899  0.0317  0.2503
10563TIP3    H153180   3.593   3.486   1.261 -0.1127 -1.7058  1.8663
10563TIP3    H253181   3.734   3.473   1.313  0.9068 -0.9922 -0.5662
10564TIP3   OH253182   3.599   1.902  12.148  0.2756  0.1425 -0.2284
10564TIP3    H153183   3.692   1.881  12.151  0.1897 -0.5699 -1.6897
10564TIP3    H253184   3.555   1.817  12.147 -0.4725  0.4636  1.6497
10565TIP3   OH253185   6.584   2.307   1.528 -0.3329  0.2640 -0.2717
10565TIP3    H153186   6.635   2.369   1.581  0.3256 -0.5659  0.1001
10565TIP3    H253187   6.502   2.297   1.576  0.1450 -0.2581  0.4613
10566TIP3   OH253188   2.339   3.152   5.588 -0.3595  0.1777 -0.7836
10566TIP3    H153189   2.419   3.204   5.592 -0.4638  0.3407 -0.7622
10566TIP3    H253190   2.324   3.125   5.679 -1.6302  2.1799 -0.3247
10567TIP3   OH253191   0.755   6.181   0.081  0.4289  0.7869 -0.3744
10567TIP3    H153192   0.759   6.135  -0.002 -0.9846  1.0070 -0.5789
10567TIP3    H253193   0.764   6.274   0.057 -1.5088  0.9847 -0.4744
10568TIP3   OH253194   2.354   4.024  15.914  0.7706  0.2181 -0.2016
10568TIP3    H153195   2.328   3.979  15.834  1.1482 -0.8521  0.2594
10568TIP3    H253196   2.444   3.995  15.930  0.8328  0.7187  0.4097
10569TIP3   OH253197   0.083   5.835  11.596  0.2642 -0.2561 -0.6034
10569TIP3    H153198   0.105   5.926  11.617 -1.6983  0.4396 -1.3781
10569TIP3    H253199   0.160   5.802  11.549  0.2985  1.6032 -1.9695
10570TIP3   OH253200   5.019   5.492  12.498  0.0908 -0.4145 -0.4816
10570TIP3    H153201   4.948   5.523  12.442 -1.1148 -1.5875  0.3436
10570TIP3    H253202   5.084   5.457  12.438  0.0523  0.7992 -1.2572
10571TIP3   OH253203   6.417   1.198  16.216 -0.2165  0.0751  0.0312
10571TIP3    H153204   6.344   1.147  16.250 -0.7993  1.7328  1.4130
10571TIP3    H253205   6.495   1.157  16.254 -0.3506 -1.7498 -1.5144
10572TIP3   OH253206   4.313   6.082   2.509  0.1270  0.4407  0.2360
10572TIP3    H153207   4.340   6.156   2.562 -0.1247  1.8253 -1.4731
10572TIP3    H253208   4.378   6.077   2.439  0.9055 -1.8273  1.0488
10573TIP3   OH253209   5.269   0.926   5.144  0.2976 -0.4452 -0.0594
10573TIP3    H153210   5.263   0.908   5.050 -0.4916 -0.5971  0.0126
10573TIP3    H253211   5.363   0.937   5.160  0.7666 -3.3810 -0.3052
10574TIP3   OH253212   4.237   5.706   3.338  0.0260  0.0715  0.3702
10574TIP3    H153213   4.256   5.628   3.389  0.0809 -0.7903 -0.9233
10574TIP3    H253214   4.222   5.775   3.403 -0.8068 -1.1794  1.5567
10575TIP3   OH253215   1.574   0.637  15.485  0.1941  0.0658 -0.4976
10575TIP3    H153216   1.644   0.580  15.517  0.8912  1.2466  0.1680
10575TIP3    H253217   1.528   0.585  15.419  1.3236 -0.9474 -0.5151
10576TIP3   OH253218   4.278   0.786  15.335 -0.1566 -0.4689 -0.1721
10576TIP3    H153219   4.247   0.744  15.255 -0.2706 -1.8182  0.5578
10576TIP3    H253220   4.335   0.857  15.304 -1.4664  0.0705 -1.4681
10577TIP3   OH253221   4.760   3.566   2.148 -0.6774 -0.4224 -0.0826
10577TIP3    H153222   4.687   3.575   2.088  0.6525 -1.3888 -1.9517
10577TIP3    H253223   4.791   3.655   2.162 -0.8333 -0.2011 -1.0785
10578TIP3   OH253224   4.997   3.649  10.513 -0.2663 -0.0013  0.2226
10578TIP3    H153225   4.970   3.677  10.601  0.6624  0.2676  0.4345
10578TIP3    H253226   4.980   3.724  10.457 -0.5487 -0.0570  0.2311
10579TIP3   OH253227   4.642   4.073  11.104 -0.1048 -0.8884 -0.6767
10579TIP3    H153228   4.715   4.011  11.111 -0.6084 -1.3445  1.5700
10579TIP3    H253229   4.683   4.159  11.113  0.5457 -0.8386 -3.3543
10580TIP3   OH253230   0.819   5.600   3.214  0.1873 -1.0433  1.1161
10580TIP3    H153231   0.783   5.617   3.301 -0.6374  0.2892  0.5404
10580TIP3    H253232   0.902   5.648   3.212  0.5607 -1.6643  1.4026
10581TIP3   OH253233   2.602   6.391  10.544  0.4015  0.1722 -0.2460
10581TIP3    H153234   2.554   6.348  10.473  1.0485  0.0168 -0.5982
10581TIP3    H253235   2.689   6.408  10.507  1.1541 -1.0146  0.9011
10582TIP3   OH253236   4.195   4.776   3.970 -0.1447 -0.1427  0.0082
10582TIP3    H153237   4.181   4.827   4.050  0.0637 -0.6931  0.4025
10582TIP3    H253238   4.274   4.813   3.932  0.7357 -0.9860  0.9637
10583TIP3   OH253239   3.345   3.561  12.791 -0.2927  0.0862 -0.5331
10583TIP3    H153240   3.349   3.619  12.715  0.1208 -0.4856 -0.9565
10583TIP3    H253241   3.427   3.512  12.788 -0.4476 -0.2202  0.0604
10584TIP3   OH253242   5.572   6.423  10.586  0.1663  0.5825  0.0054
10584TIP3    H153243   5.521   6.472  10.650  1.1273 -0.5371  1.7193
10584TIP3    H253244   5.655   6.405  10.630  0.5713 -0.9119 -1.2679
10585TIP3   OH253245   6.523   1.598   1.649  0.0206  0.0757 -0.3030
10585TIP3    H153246   6.502   1.644   1.730 -1.2808  1.8188 -1.5740
10585TIP3    H253247   6.478   1.514   1.657  0.8926 -0.2918  1.2467
10586TIP3   OH253248   3.441   3.450  16.357  0.3939 -0.6072 -0.0002
10586TIP3    H153249   3.466   3.439  16.448  2.2667 -1.2451 -0.5420
10586TIP3    H253250   3.510   3.506  16.320 -0.4589 -0.1729 -0.9710
10587TIP3   OH253251   1.087   2.254  16.291  0.2585  0.0070 -0.0842
10587TIP3    H153252   1.119   2.341  16.316  0.8229 -0.3450  0.4297
10587TIP3    H253253   1.100   2.200  16.369  0.2365 -0.6288 -0.5134
10588TIP3   OH253254   3.506   4.582   3.090 -0.2107  0.0521 -0.6781
10588TIP3    H153255   3.428   4.547   3.133  0.6281 -0.5507  0.4228
10588TIP3    H253256   3.543   4.508   3.043  1.1400 -0.4324  1.0198
10589TIP3   OH253257   5.841   4.940  11.222  0.4799  0.5882  0.6727
10589TIP3    H153258   5.762   4.969  11.266 -1.0573 -0.7543 -1.0553
10589TIP3    H253259   5.841   4.987  11.139 -0.4824 -1.9815 -0.8889
10590TIP3   OH253260   6.226   1.931   0.665 -0.3622 -0.3883 -0.0563
10590TIP3    H153261   6.234   2.020   0.700  0.9671 -0.1449 -0.8765
10590TIP3    H253262   6.132   1.912   0.668 -0.8386  1.5218 -0.9655
10591TIP3   OH253263   0.215   6.246   5.659 -0.2049 -0.0193  0.4513
10591TIP3    H153264   0.153   6.308   5.699  1.2382  2.4275 -0.8809
10591TIP3    H253265   0.300   6.288   5.668  0.8594 -1.8251 -0.5720
10592TIP3   OH253266   5.443   5.058   2.639  0.3689  0.1778 -0.8409
10592TIP3    H153267   5.456   5.101   2.554 -3.9155 -0.4664 -2.0871
10592TIP3    H253268   5.410   5.128   2.696  1.6548  0.2513 -0.1543
10593TIP3   OH253269   0.791   4.384  15.527  0.8835 -0.0138  0.0856
10593TIP3    H153270   0.797   4.289  15.536 -2.3121 -0.2156  1.3559
10593TIP3    H253271   0.780   4.416  15.617 -1.6949  1.1126 -0.5177
10594TIP3   OH253272   3.374   3.294  15.512  0.4934 -0.2571 -0.6663
10594TIP3    H153273   3.288   3.258  15.493 -0.9724  2.3840  0.3460
10594TIP3    H253274   3.399   3.341  15.432 -0.9061  2.2123  0.2313
10595TIP3   OH253275   6.108   4.661  14.366  0.9698 -0.1016  0.2959
10595TIP3    H153276   6.141   4.749  14.353 -0.1225  0.6676  2.2491
10595TIP3    H253277   6.179   4.614  14.410  1.4131 -0.1210 -0.4174
10596TIP3   OH253278   6.803   3.887   6.293  0.0359  0.0427  0.4001
10596TIP3    H153279   6.734   3.841   6.342 -0.7237 -0.6212 -1.2164
10596TIP3    H253280   6.859   3.817   6.260  1.6766  0.5783  1.8400
10597TIP3   OH253281   0.888   4.763   0.530  0.0729 -0.1843  0.7473
10597TIP3    H153282   0.957   4.817   0.568  0.4588  0.0887 -0.3255
10597TIP3    H253283   0.925   4.675   0.524  1.3462  0.4386 -2.2281
10598TIP3   OH253284   0.681   5.822  16.051  0.1240 -0.3619 -0.0506
10598TIP3    H153285   0.761   5.814  15.999 -0.6994  0.6202 -1.5313
10598TIP3    H253286   0.682   5.912  16.082 -0.7074 -0.1528 -0.6112
10599TIP3   OH253287   4.183   2.132  12.205 -0.3604  0.1604  0.3223
10599TIP3    H153288   4.204   2.082  12.126  3.1677  1.6657  0.1164
10599TIP3    H253289   4.118   2.196  12.177  0.7779  0.6219 -1.4009
10600TIP3   OH253290   2.474   2.371  12.313  0.7193 -0.4083  0.4102
10600TIP3    H153291   2.506   2.285  12.286 -0.1176 -0.5297 -0.2092
10600TIP3    H253292   2.501   2.430  12.243  1.1897 -0.1687  0.7787
10601TIP3   OH253293   1.698   2.492   5.314 -1.2042 -0.8279 -0.5505
10601TIP3    H153294   1.632   2.481   5.382  0.0370 -0.9848  0.6995
10601TIP3    H253295   1.743   2.408   5.310 -1.6958 -1.0520 -2.1031
10602TIP3   OH253296   3.260   6.554  14.400 -0.1702 -0.2645  0.9183
10602TIP3    H153297   3.176   6.511  14.415  0.0458 -0.8874  0.4051
10602TIP3    H253298   3.239   6.634  14.352 -0.4424 -0.5932  0.4855
10603TIP3   OH253299   0.449   0.224   6.090 -0.1349  0.1883 -0.2423
10603TIP3    H153300   0.365   0.210   6.134 -1.0702 -1.8096 -2.4338
10603TIP3    H253301   0.486   0.301   6.133 -2.1930  0.0214  2.0743
10604TIP3   OH253302   3.530   4.082   0.670  0.3926 -1.2403  0.0239
10604TIP3    H153303   3.543   4.154   0.732 -1.1614 -0.3684 -0.5737
10604TIP3    H253304   3.543   4.003   0.721  1.9168 -0.5460  0.7663
10605TIP3   OH253305   6.291   5.256  15.336  0.1670  0.3805 -0.1106
10605TIP3    H153306   6.328   5.171  15.361  2.0274  0.8234 -1.2437
10605TIP3    H253307   6.197   5.238  15.325  0.5407 -1.5708 -0.5027
10606TIP3   OH253308   0.965   3.110  12.971  0.0413  0.2594  0.3513
10606TIP3    H153309   0.974   3.132  13.064 -3.3269 -0.1236  0.9106
10606TIP3    H253310   0.958   3.194  12.927  2.0305  0.4540  0.3176
10607TIP3   OH253311   1.759   5.434  16.149  0.5230 -0.1436  0.6777
10607TIP3    H153312   1.716   5.518  16.165  0.0279 -0.6038  1.8062
10607TIP3    H253313   1.783   5.402  16.236  2.0306 -0.4979  0.1763
10608TIP3   OH253314   1.716   6.656  17.052 -0.2370 -0.2316 -0.1069
10608TIP3    H153315   1.784   6.637  17.116 -0.4474 -0.1059  0.1520
10608TIP3    H253316   1.718   6.751  17.040 -2.7930  0.3203  2.6591
10609TIP3   OH253317   0.874   0.333   0.081 -0.3529  0.2675 -0.4521
10609TIP3    H153318   0.811   0.362   0.148  1.4230 -3.3564  3.3126
10609TIP3    H253319   0.829   0.260   0.037 -0.1342  0.0892 -0.3825
10610TIP3   OH253320   1.360   6.784   0.924 -0.4845  0.2018  0.5700
10610TIP3    H153321   1.409   6.702   0.930 -1.3401 -0.4369 -0.7731
10610TIP3    H253322   1.282   6.762   0.874  0.7417  2.4570 -2.6998
10611TIP3   OH253323   2.685   3.179   2.344 -0.0004  0.2022  0.1405
10611TIP3    H153324   2.590   3.176   2.338  0.0636 -1.7144 -0.4835
10611TIP3    H253325   2.705   3.271   2.359 -1.8971  0.7913 -0.6526
10612TIP3   OH253326   5.530   2.886   3.440  0.3290  0.2288  0.1859
10612TIP3    H153327   5.492   2.838   3.513  1.3929  1.7172  1.8110
10612TIP3    H253328   5.578   2.820   3.390 -0.2354 -0.7905  0.9601
10613TIP3   OH253329   0.773   0.293   0.696 -0.3769  0.5523  0.3981
10613TIP3    H153330   0.791   0.387   0.690 -1.5153  0.6935 -2.6073
10613TIP3    H253331   0.693   0.281   0.645  0.2220 -2.1719 -0.0439
10614TIP3   OH253332   0.305   2.905   1.564 -0.0893 -0.0531  0.2727
10614TIP3    H153333   0.269   2.839   1.505 -2.1806  2.3272 -1.3554
10614TIP3    H253334   0.314   2.983   1.509  0.1993  1.6269  2.5617
10615TIP3   OH253335   1.304   3.289   2.109  0.1362 -0.0692  0.2999
10615TIP3    H153336   1.332   3.204   2.142  1.4893 -0.3817 -1.4958
10615TIP3    H253337   1.386   3.336   2.093 -0.5147  0.6561 -0.9877
10616TIP3   OH253338   2.495   5.836   2.834  0.3349 -0.0838  0.4279
10616TIP3    H153339   2.508   5.746   2.805 -0.3426  0.0332 -0.2515
10616TIP3    H253340   2.475   5.884   2.754  0.0773  0.5567  0.8739
10617TIP3   OH253341   1.487   2.263  16.201  0.2470 -0.3374 -0.3093
10617TIP3    H153342   1.501   2.269  16.106  1.3233 -1.7568 -0.2807
10617TIP3    H253343   1.469   2.171  16.217  2.5499 -0.6215  1.1273
10618TIP3   OH253344   1.115   0.425  13.116  0.7521 -0.0612 -0.6206
10618TIP3    H153345   1.141   0.486  13.185  0.6604 -0.1473 -0.5098
10618TIP3    H253346   1.128   0.474  13.034  0.0036  0.3624 -0.4970
10619TIP3   OH253347   2.638   2.539   5.405 -0.2514  0.1610 -0.0397
10619TIP3    H153348   2.658   2.609   5.343 -1.8410  0.2300 -0.5187
10619TIP3    H253349   2.585   2.477   5.355  0.0020 -0.7205  0.7456
10620TIP3   OH253350   3.574   4.600   0.516  0.1491 -0.2960  0.0968
10620TIP3    H153351   3.485   4.624   0.493  1.0435  1.8951 -1.4956
10620TIP3    H253352   3.567   4.557   0.601 -2.4892 -1.1802 -0.4790
10621TIP3   OH253353   3.181   0.768  11.477 -0.0150 -0.0184 -0.0960
10621TIP3    H153354   3.158   0.684  11.436 -1.5177  0.1360  0.3789
10621TIP3    H253355   3.263   0.793  11.434  0.1748 -1.4505 -0.6434
10622TIP3   OH253356   1.280   2.282  14.531  0.4454  0.0820  0.7024
10622TIP3    H153357   1.198   2.298  14.484  0.2370 -0.1718  0.9748
10622TIP3    H253358   1.269   2.196  14.570  0.8923 -0.0023  0.6461
10623TIP3   OH253359   2.683   2.771   2.174  0.3869  0.1315  0.4065
10623TIP3    H153360   2.643   2.781   2.261  0.1175  0.8043  0.2102
10623TIP3    H253361   2.634   2.699   2.134 -0.8968  1.1772  0.0327
10624TIP3   OH253362   1.977   1.730  15.470 -0.2267  0.0532 -0.0890
10624TIP3    H153363   2.009   1.644  15.497  0.1410 -0.5550 -2.2169
10624TIP3    H253364   2.056   1.784  15.466 -0.4435  0.4831  1.1455
10625TIP3   OH253365   6.242   2.517  13.620  0.4360 -0.4367 -0.2055
10625TIP3    H153366   6.237   2.532  13.525  1.1996 -1.2448 -0.3875
10625TIP3    H253367   6.186   2.441  13.635 -0.1038  0.0124  0.0790
10626TIP3   OH253368   4.697   1.932   4.731  0.3539 -0.2151  0.6467
10626TIP3    H153369   4.731   1.852   4.691  0.5311 -0.2644  0.8999
10626TIP3    H253370   4.774   1.987   4.744  0.1103  0.3978 -0.4339
10627TIP3   OH253371   3.182   5.682   1.129 -0.1940  0.1903 -0.1936
10627TIP3    H153372   3.120   5.611   1.141  0.0468 -0.0389 -0.2903
10627TIP3    H253373   3.235   5.655   1.054  0.3778  0.1303  0.2298
10628TIP3   OH253374   4.142   2.566  11.771  0.6966  0.5034  0.5690
10628TIP3    H153375   4.075   2.545  11.837 -2.1671 -0.5854 -2.4179
10628TIP3    H253376   4.119   2.654  11.741  1.0394  0.3921 -0.0128
10629TIP3   OH253377   3.280   5.603   2.965  0.1089  0.0712 -0.3176
10629TIP3    H153378   3.322   5.662   3.028 -1.6559  0.6215  0.4065
10629TIP3    H253379   3.349   5.584   2.901  2.0392 -0.6836  1.8438
10630TIP3   OH253380   4.671   1.065   2.328 -0.4614 -0.1382  0.1197
10630TIP3    H153381   4.612   1.123   2.280  0.2874 -0.4096 -1.1880
10630TIP3    H253382   4.731   1.124   2.373  0.5397  0.1752 -1.5088
10631TIP3   OH253383   3.462   3.985   0.172  0.2960 -0.0390  0.1824
10631TIP3    H153384   3.513   4.051   0.125 -0.0001  2.0366  2.5967
10631TIP3    H253385   3.528   3.928   0.212  0.5616 -0.8638 -1.3469
10632TIP3   OH253386   5.331   3.916  12.298 -0.2079  0.0803  0.1813
10632TIP3    H153387   5.283   3.986  12.252 -0.6013 -0.6178 -0.4874
10632TIP3    H253388   5.266   3.847  12.311 -0.6862  0.9699  3.5919
10633TIP3   OH253389   3.123   4.153  12.414 -0.1000  0.2925  0.1459
10633TIP3    H153390   3.117   4.069  12.368 -0.2526 -0.3989  1.3741
10633TIP3    H253391   3.054   4.207  12.374  0.3265  0.0159 -0.9932
10634TIP3   OH253392   1.718   5.504   0.875 -0.1295  0.2805 -0.2012
10634TIP3    H153393   1.769   5.535   0.800  0.1702 -1.4895 -0.7646
10634TIP3    H253394   1.783   5.471   0.937 -0.3354  2.2120  1.1441
10635TIP3   OH253395   2.697   4.028  14.996  0.1968 -0.0231  0.4055
10635TIP3    H153396   2.762   4.098  14.981  0.1301  0.0004  0.2248
10635TIP3    H253397   2.669   4.041  15.086 -2.0548  2.0908 -0.4813
10636TIP3   OH253398   0.988   5.041   0.317 -0.0616  0.1289  0.2381
10636TIP3    H153399   0.977   5.119   0.262  0.9167 -0.5165 -0.9116
10636TIP3    H253400   0.937   5.060   0.395 -1.3624  1.1566 -0.8109
10637TIP3   OH253401   4.824   3.884   2.868  0.5619 -0.1542 -0.1334
10637TIP3    H153402   4.826   3.817   2.799 -0.2125  0.3172 -0.6229
10637TIP3    H253403   4.807   3.966   2.821 -0.2448  0.1369  0.6460
10638TIP3   OH253404   3.600   6.272   4.408  0.0282  0.1682 -0.0846
10638TIP3    H153405   3.515   6.290   4.448  0.2531 -0.7208  0.8271
10638TIP3    H253406   3.644   6.214   4.470  0.1918 -1.6858 -1.8482
10639TIP3   OH253407   5.537   1.703  11.698  0.0461 -0.4561  0.1740
10639TIP3    H153408   5.442   1.700  11.685  0.3805 -1.1189 -2.7123
10639TIP3    H253409   5.566   1.614  11.678  1.3912 -0.0123  0.0853
10640TIP3   OH253410   1.083   4.060   4.111 -0.3799  0.2650  0.1540
10640TIP3    H153411   1.000   4.088   4.152 -1.1231 -0.1594 -1.0079
10640TIP3    H253412   1.056   4.007   4.037  0.7622  3.4835 -2.8369
10641TIP3   OH253413   5.358   2.336  17.255  0.3504 -0.5894 -0.1143
10641TIP3    H153414   5.313   2.334  17.170 -2.6031 -1.7993  1.3406
10641TIP3    H253415   5.450   2.323  17.233 -0.1747  0.0523 -3.1786
10642TIP3   OH253416   0.939   5.837  15.885  0.6098  0.2150  0.1442
10642TIP3    H153417   0.964   5.922  15.920  0.1091  1.1986 -1.7967
10642TIP3    H253418   0.912   5.854  15.795 -0.5173 -1.8355  0.0234
10643TIP3   OH253419   5.769   3.635   2.174 -0.1823  0.2814  0.0421
10643TIP3    H153420   5.769   3.539   2.179  0.0731  0.1386 -1.8519
10643TIP3    H253421   5.690   3.662   2.219 -1.5607 -1.0057 -1.4745
10644TIP3   OH253422   3.221   5.566   4.931 -0.0689  0.4998  0.0908
10644TIP3    H153423   3.230   5.644   4.986  0.0043  0.0112  0.7821
10644TIP3    H253424   3.183   5.598   4.849 -1.3341  1.0441  0.8745
10645TIP3   OH253425   0.013   5.563   4.283  0.4840 -0.5357 -0.2713
10645TIP3    H153426   0.050   5.617   4.354 -2.1961  1.4308 -0.2293
10645TIP3    H253427  -0.049   5.505   4.326  0.5678 -0.9927 -0.7592
10646TIP3   OH253428   3.057   2.934   1.261 -0.4802  0.3095  0.1037
10646TIP3    H153429   3.063   2.967   1.351 -0.9297  0.7290 -0.0190
10646TIP3    H253430   2.996   2.860   1.266  1.6958 -1.5714  0.6686
10647TIP3   OH253431   3.259   1.095   2.475  0.4377  0.2225  0.4290
10647TIP3    H153432   3.253   1.032   2.403 -0.3572  0.4324  0.3050
10647TIP3    H253433   3.352   1.097   2.496  0.9099  1.1139 -1.4622
10648TIP3   OH253434   2.889   2.691   1.263 -0.2929  0.3786  0.1367
10648TIP3    H153435   2.938   2.612   1.240 -1.3029 -0.2994  0.2509
10648TIP3    H253436   2.842   2.668   1.344 -0.7259  1.0378  0.0817
10649TIP3   OH253437   2.543   3.126  15.419 -0.0528  0.2772 -0.2741
10649TIP3    H153438   2.535   3.210  15.463 -1.7702  0.2837 -0.5131
10649TIP3    H253439   2.566   3.148  15.329 -0.2986  0.4818 -0.2882
10650TIP3   OH253440   2.954   5.023   3.353 -0.7502  0.0788 -0.5461
10650TIP3    H153441   2.969   5.116   3.339 -1.5858  0.8035  2.6285
10650TIP3    H253442   3.040   4.982   3.340  0.4761  1.8356  1.4576
10651TIP3   OH253443   0.488   0.147  13.322 -0.0935 -0.0715  0.1753
10651TIP3    H153444   0.424   0.185  13.262  0.3007 -1.3160 -1.0926
10651TIP3    H253445   0.561   0.121  13.265  0.2782 -1.3325  1.1845
10652TIP3   OH253446   1.481   3.230  11.889  0.1681  0.5103 -0.6649
10652TIP3    H153447   1.459   3.177  11.965 -1.6432  0.7135 -1.0087
10652TIP3    H253448   1.551   3.288  11.920  0.0844 -0.0154  0.5743
10653TIP3   OH253449   3.861   0.500  11.661 -0.1584  0.1927  0.1612
10653TIP3    H153450   3.791   0.564  11.643 -0.6182 -0.7675 -1.6849
10653TIP3    H253451   3.815   0.420  11.685  0.2605 -0.5685 -1.4683
10654TIP3   OH253452   3.639   5.608  14.348 -0.0394  0.0623  0.1639
10654TIP3    H153453   3.582   5.554  14.294 -1.0884  1.1067  0.2045
10654TIP3    H253454   3.692   5.658  14.285  0.7188 -0.7550  0.1276
10655TIP3   OH253455   1.366   1.831   0.458  1.3115  0.3861  0.2357
10655TIP3    H153456   1.424   1.817   0.533  1.1648  0.5519  0.3817
10655TIP3    H253457   1.313   1.907   0.482  1.6942  0.8342 -0.2974
10656TIP3   OH253458   1.677   2.076  10.833  0.6447  0.2220 -0.3531
10656TIP3    H153459   1.771   2.055  10.832  1.0088  1.7040 -0.7420
10656TIP3    H253460   1.634   1.997  10.800  1.9033  0.0935 -1.8260
10657TIP3   OH253461   2.999   2.139  15.391  0.1399 -0.0429  0.1508
10657TIP3    H153462   2.973   2.047  15.389  0.7298 -0.2342  0.6921
10657TIP3    H253463   2.930   2.182  15.442  0.5306 -0.4284  1.0265
10658TIP3   OH253464   6.181   0.605   2.641 -0.2031 -0.3478  0.3085
10658TIP3    H153465   6.172   0.616   2.736  0.0385 -0.9716  0.4085
10658TIP3    H253466   6.243   0.672   2.614 -0.4476 -0.0191  0.5545
10659TIP3   OH253467   5.888   1.515  16.194  0.2831 -0.8462  0.0220
10659TIP3    H153468   5.800   1.551  16.188 -0.5073 -2.9122 -2.4447
10659TIP3    H253469   5.941   1.586  16.230 -2.3636  0.4002  1.7215
10660TIP3   OH253470   4.942   1.355   1.425 -0.1223 -0.2336 -0.4548
10660TIP3    H153471   4.935   1.450   1.439  0.4899 -0.3790  0.9561
10660TIP3    H253472   4.886   1.317   1.492 -0.1440 -0.8882 -0.8378
10661TIP3   OH253473   3.240   0.184   5.749 -0.1320 -0.5031  0.0712
10661TIP3    H153474   3.250   0.263   5.695 -2.9675 -0.4378 -0.5320
10661TIP3    H253475   3.314   0.129   5.724 -1.0467 -0.3196 -3.7192
10662TIP3   OH253476   2.558   2.779  13.973 -0.6040  0.6221  0.2067
10662TIP3    H153477   2.559   2.688  14.003 -0.7722  0.0293 -1.4557
10662TIP3    H253478   2.478   2.816  14.011 -0.5031  0.0933  0.9506
10663TIP3   OH253479   2.131   3.628   0.401 -0.5778 -0.2039  0.0823
10663TIP3    H153480   2.167   3.653   0.315 -0.6547 -1.8450 -0.4621
10663TIP3    H253481   2.197   3.571   0.439 -0.5091  0.5769  1.1844
10664TIP3   OH253482   3.191   3.077   2.852 -0.3065 -0.3777  0.3005
10664TIP3    H153483   3.161   3.093   2.941 -0.5469 -0.6942  0.2788
10664TIP3    H253484   3.186   3.162   2.809 -0.6737 -0.3273  0.4453
10665TIP3   OH253485   2.706   3.788  14.016 -0.0040 -0.2178  0.7303
10665TIP3    H153486   2.674   3.708  13.974 -1.5664  0.1308  1.2131
10665TIP3    H253487   2.783   3.812  13.965 -0.1941 -1.3768 -0.1489
10666TIP3   OH253488   2.884   6.073   0.503  0.0790 -0.3768 -0.0540
10666TIP3    H153489   2.885   6.119   0.587 -0.1055 -2.2457  1.0425
10666TIP3    H253490   2.906   5.982   0.525 -2.4704 -1.5168 -1.6234
10667TIP3   OH253491   4.689   0.905  10.554  0.0982 -0.5642 -0.4542
10667TIP3    H153492   4.738   0.835  10.598  0.3352  0.7360  1.4682
10667TIP3    H253493   4.752   0.975  10.541 -0.2010 -0.5539 -2.1154
10668TIP3   OH253494   0.751   3.372  10.916  0.6644 -0.0913 -0.1294
10668TIP3    H153495   0.771   3.381  10.823  0.3470  1.7853 -0.0662
10668TIP3    H253496   0.659   3.400  10.924  0.9619  0.6704  0.8493
10669TIP3   OH253497   2.235   0.064  15.577 -0.0707 -0.3611 -0.3361
10669TIP3    H153498   2.270   0.000  15.514 -0.0497 -0.1655 -0.5245
10669TIP3    H253499   2.167   0.110  15.528 -0.0711 -0.2236 -0.2060
10670TIP3   OH253500   0.391   2.332  10.876 -0.4703 -0.1774  0.3891
10670TIP3    H153501   0.470   2.384  10.891 -0.0573 -1.0573  1.2931
10670TIP3    H253502   0.412   2.279  10.799 -0.4146  0.0456  0.2492
10671TIP3   OH253503   6.621   3.750  16.722 -0.2651  0.4469 -0.0494
10671TIP3    H153504   6.685   3.700  16.671 -0.9401  1.8612 -2.4092
10671TIP3    H253505   6.663   3.765  16.806  2.7963  1.7997 -1.6829
10672TIP3   OH253506   6.503   0.723   1.025 -0.3226 -0.2508  0.2348
10672TIP3    H153507   6.564   0.740   1.097  0.8352 -1.1788 -0.4711
10672TIP3    H253508   6.432   0.673   1.064 -0.4052  0.4284  0.9824
10673TIP3   OH253509   0.067   2.082   5.476  0.0725  0.0757  0.4931
10673TIP3    H153510   0.111   2.111   5.397 -1.6296  1.1275 -0.1245
10673TIP3    H253511   0.043   2.163   5.521  0.7536 -0.5027  1.9664
10674TIP3   OH253512   1.372   2.604   6.159  0.3640  0.5698 -0.0802
10674TIP3    H153513   1.300   2.623   6.098  0.6742  0.5830 -0.4480
10674TIP3    H253514   1.333   2.548   6.226 -0.0951  0.9360 -0.0390
10675TIP3   OH253515   4.881   2.666   5.391  0.3555  0.1658 -0.0075
10675TIP3    H153516   4.812   2.610   5.358  0.8201 -0.0975 -0.5532
10675TIP3    H253517   4.916   2.620   5.467 -0.1016  0.3280  0.3028
10676TIP3   OH253518   3.374   3.968  10.933  0.2799  0.4427  0.5467
10676TIP3    H153519   3.466   3.960  10.958  0.6979  1.6779 -0.4611
10676TIP3    H253520   3.366   3.918  10.852 -0.0474 -0.0530  0.8852
10677TIP3   OH253521   4.563   0.831  10.313  0.3921 -0.0064  0.3606
10677TIP3    H153522   4.610   0.872  10.385  2.7550 -0.2886 -0.9307
10677TIP3    H253523   4.577   0.737  10.326  1.4863 -0.0384 -0.8073
10678TIP3   OH253524   1.393   5.938  14.889 -0.3236 -0.2737 -0.0662
10678TIP3    H153525   1.441   6.001  14.835 -0.6767 -0.2895 -0.4008
10678TIP3    H253526   1.366   5.870  14.827  0.1056 -0.7881  0.3004
10679TIP3   OH253527   5.621   2.955  13.191  0.5968 -0.2950  0.7634
10679TIP3    H153528   5.566   2.982  13.118 -1.7663 -1.3084  2.0847
10679TIP3    H253529   5.626   3.033  13.247  0.5033 -0.2046  0.6454
10680TIP3   OH253530   1.390   0.568  14.180 -0.0219 -0.3303  0.5745
10680TIP3    H153531   1.367   0.593  14.270  0.8287 -0.5788  0.8757
10680TIP3    H253532   1.387   0.650  14.131  1.5242  0.1957  1.2847
10681TIP3   OH253533   0.380   5.123   0.208 -0.1659  0.9810 -0.4603
10681TIP3    H153534   0.296   5.100   0.168 -1.2018  1.2186  1.4368
10681TIP3    H253535   0.357   5.150   0.297  2.1535 -1.4530  1.0200
10682TIP3   OH253536   1.228   1.847  14.097  0.3480 -0.0349  0.2932
10682TIP3    H153537   1.194   1.777  14.040  2.3018  0.1436 -1.1713
10682TIP3    H253538   1.296   1.805  14.149  0.0536  0.3063  0.9665
10683TIP3   OH253539   5.445   6.573   5.239 -0.8934  0.0412 -0.1023
10683TIP3    H153540   5.512   6.508   5.217  0.0299  0.6660  0.7818
10683TIP3    H253541   5.373   6.521   5.275  0.1256 -0.4818  1.2896
10684TIP3   OH253542   2.916   3.442  11.758 -0.8219  0.2890  0.0241
10684TIP3    H153543   2.857   3.381  11.715  0.3563  0.9501 -2.8070
10684TIP3    H253544   2.952   3.494  11.686  3.9479 -0.7442  1.2999
10685TIP3   OH253545   2.288   5.718  14.304  0.2017 -0.7213  0.3768
10685TIP3    H153546   2.197   5.744  14.317  0.1258 -0.1116 -1.1688
10685TIP3    H253547   2.296   5.704  14.209  1.4935 -1.6395  0.5853
10686TIP3   OH253548   0.019   0.737   0.456 -0.1764 -0.0054  0.6252
10686TIP3    H153549   0.030   0.679   0.381  2.1778 -0.7559  1.4602
10686TIP3    H253550   0.010   0.824   0.417 -0.6137 -0.5599 -0.5648
10687TIP3   OH253551   2.098   1.968  17.047  0.4456 -0.0663  0.2782
10687TIP3    H153552   2.123   1.948  16.957  0.9013  0.9250  0.1752
10687TIP3    H253553   2.092   2.064  17.049 -1.1773 -0.1551  0.8717
10688TIP3   OH253554   1.697   2.276   0.884  0.3773  0.0669 -0.3059
10688TIP3    H153555   1.685   2.262   0.978 -1.8506 -2.7121 -0.8703
10688TIP3    H253556   1.788   2.252   0.868  0.1234 -1.9269  0.8491
10689TIP3   OH253557   0.903   0.458  15.589 -0.5355 -0.0480  0.2094
10689TIP3    H153558   0.849   0.416  15.523  0.6329 -0.7691 -0.3197
10689TIP3    H253559   0.841   0.494  15.652 -1.6318 -0.3255 -0.6873
10690TIP3   OH253560   6.280   2.341  11.754 -0.2727  0.2848  0.2912
10690TIP3    H153561   6.301   2.257  11.714  0.6503 -0.2769  1.8981
10690TIP3    H253562   6.273   2.402  11.680  0.5333 -0.8841 -0.7768
10691TIP3   OH253563   4.004   3.167  13.930  0.3638  0.2543  0.2358
10691TIP3    H153564   4.037   3.215  13.854 -0.7124 -0.3865 -0.6621
10691TIP3    H253565   3.911   3.156  13.913  0.2281 -0.4816  1.3436
10692TIP3   OH253566   5.885   6.451   2.884  0.4138  0.2273 -0.3526
10692TIP3    H153567   5.976   6.481   2.893  0.5825 -0.3288 -0.1265
10692TIP3    H253568   5.893   6.360   2.856 -0.0151 -0.6904  2.1944
10693TIP3   OH253569   6.261   2.117  13.413 -0.3941 -0.8622  0.1996
10693TIP3    H153570   6.313   2.155  13.342 -0.5180 -0.4130  0.3469
10693TIP3    H253571   6.184   2.174  13.419 -0.2943 -0.7949  0.8162
10694TIP3   OH253572   0.449   6.193  13.511 -0.0136  0.5517  0.0287
10694TIP3    H153573   0.450   6.284  13.541 -0.4114  0.3587  0.6387
10694TIP3    H253574   0.451   6.199  13.416 -0.5059  1.2065  0.0572
10695TIP3   OH253575   4.950   5.764  15.353  0.9697 -0.0600 -0.2337
10695TIP3    H153576   5.022   5.713  15.391 -0.5113 -1.6260  0.6398
10695TIP3    H253577   4.902   5.701  15.300 -1.2728  0.2208  1.3399
10696TIP3   OH253578   5.720   6.694  13.802 -0.6010  0.0779  0.3307
10696TIP3    H153579   5.682   6.705  13.714 -0.8249  0.3580  0.4592
10696TIP3    H253580   5.719   6.600  13.817  0.2722 -0.0540 -0.3313
10697TIP3   OH253581   3.510   6.460  15.069 -0.1091  0.3487  0.2844
10697TIP3    H153582   3.505   6.381  15.122 -0.2254  1.6073  2.2333
10697TIP3    H253583   3.595   6.455  15.025  1.5022  0.7703  3.1468
10698TIP3   OH253584   4.472   2.582   0.577  0.0969 -0.2962 -0.0814
10698TIP3    H153585   4.491   2.666   0.535  0.6518 -0.7479 -0.7729
10698TIP3    H253586   4.529   2.580   0.654 -1.1848  0.6928  0.9212
10699TIP3   OH253587   3.148   5.235  16.847 -0.1698 -0.0555 -0.4264
10699TIP3    H153588   3.122   5.277  16.765 -1.5255 -0.1582 -0.0641
10699TIP3    H253589   3.234   5.273  16.866  0.1342  0.0452 -1.8311
10700TIP3   OH253590   4.051   2.944  11.024  0.6924 -0.7981 -0.2593
10700TIP3    H153591   4.112   2.912  10.957  1.7334 -2.4324  1.3520
10700TIP3    H253592   3.973   2.891  11.014  0.5722 -0.5506 -0.6280
10701TIP3   OH253593   5.878   3.604   4.901 -0.1615  0.2256 -0.1147
10701TIP3    H153594   5.922   3.519   4.904 -1.6606 -0.5894 -0.4555
10701TIP3    H253595   5.948   3.666   4.878  1.0783 -0.8048  0.7161
10702TIP3   OH253596   1.941   5.085  12.899  0.1628 -0.2233  0.2768
10702TIP3    H153597   2.006   5.155  12.893  0.2551 -0.3825 -0.9185
10702TIP3    H253598   1.858   5.130  12.917  0.6290 -0.0458  2.0913
10703TIP3   OH253599   0.577   2.832  16.783 -0.2079 -0.5279 -0.1473
10703TIP3    H153600   0.638   2.774  16.739  0.0755 -1.2456  1.1249
10703TIP3    H253601   0.616   2.920  16.774 -0.2741 -0.6257 -1.4641
10704TIP3   OH253602   2.378   2.154  15.752 -0.5440 -0.3856 -0.3763
10704TIP3    H153603   2.389   2.114  15.838 -0.1911 -0.9875 -0.6986
10704TIP3    H253604   2.463   2.191  15.731 -0.8194  0.3856 -0.1609
10705TIP3   OH253605   5.815   6.547   1.550  0.1073 -0.9695  0.0057
10705TIP3    H153606   5.757   6.568   1.477 -0.3516  2.0584  1.1285
10705TIP3    H253607   5.760   6.554   1.628  0.5596 -4.2389  0.7690
10706TIP3   OH253608   1.070   2.838  14.225  0.0581 -0.7382  0.0576
10706TIP3    H153609   1.127   2.844  14.148 -0.6017  1.7458 -0.3184
10706TIP3    H253610   1.113   2.774  14.282  2.9403  0.6027 -0.4312
10707TIP3   OH253611   1.683   2.011   2.100 -0.1727 -0.0593 -0.3298
10707TIP3    H153612   1.617   2.023   2.031 -0.3837 -1.4046 -0.3872
10707TIP3    H253613   1.633   2.009   2.181  0.0054  0.8005 -0.1882
10708TIP3   OH253614   0.891   5.649  16.745  0.2103  0.2713 -0.8232
10708TIP3    H153615   0.933   5.735  16.740 -0.9931  0.9791  0.6135
10708TIP3    H253616   0.804   5.662  16.707 -1.0622  0.4812  1.9303
10709TIP3   OH253617   4.866   1.892  13.809  0.0689 -0.5308 -0.2763
10709TIP3    H153618   4.943   1.950  13.806 -0.3130 -0.0539 -0.9724
10709TIP3    H253619   4.802   1.933  13.751 -0.7486 -0.8896  0.3507
10710TIP3   OH253620   3.226   6.240   1.389 -0.6185 -0.1828  0.2854
10710TIP3    H153621   3.322   6.237   1.385 -0.6513 -0.3575 -0.7557
10710TIP3    H253622   3.200   6.150   1.409 -0.6041 -0.4756 -0.9474
10711TIP3   OH253623   1.712   6.741   3.258 -0.1919  0.2615 -0.0599
10711TIP3    H153624   1.672   6.659   3.228 -0.4230  0.1702  0.4962
10711TIP3    H253625   1.806   6.726   3.248 -0.2553  0.1513 -0.5272
10712TIP3   OH253626   2.535   1.131   3.811 -0.3625 -0.0416 -0.3241
10712TIP3    H153627   2.450   1.174   3.796 -0.6643  0.0293  1.3341
10712TIP3    H253628   2.562   1.163   3.897  1.7001  0.4610 -1.1047
10713TIP3   OH253629   0.387   4.319   2.717  0.3096  0.3920 -0.3572
10713TIP3    H153630   0.459   4.365   2.674  1.5153  0.8428  1.9885
10713TIP3    H253631   0.427   4.240   2.754 -0.3140  0.7638  1.1676
10714TIP3   OH253632   5.949   0.914   4.209 -0.4066  0.4179  0.4688
10714TIP3    H153633   5.998   0.965   4.274  1.6872 -0.1849 -0.5704
10714TIP3    H253634   5.970   0.823   4.229 -0.8474  0.1632 -0.2047
10715TIP3   OH253635   4.386   3.365   2.136  0.1819 -0.0835 -0.1324
10715TIP3    H153636   4.359   3.294   2.078  0.3095 -0.3145  0.0905
10715TIP3    H253637   4.311   3.380   2.193 -0.4981  1.1146 -1.2726
10716TIP3   OH253638   3.979   0.687  11.882 -0.0207  0.7196  0.3527
10716TIP3    H153639   4.040   0.630  11.928  0.4131  0.5706 -0.3953
10716TIP3    H253640   3.936   0.631  11.818  1.0570  1.3939 -1.0084
10717TIP3   OH253641   6.731   2.820  11.029 -0.7867  0.2085  0.5193
10717TIP3    H153642   6.700   2.884  10.965 -0.9670 -0.1666  0.2281
10717TIP3    H253643   6.826   2.815  11.013 -0.9586 -0.5928 -0.3857
10718TIP3   OH253644   5.644   1.137   0.429  0.0536 -0.5286 -0.2051
10718TIP3    H153645   5.553   1.162   0.444  0.3351  0.4363 -0.0477
10718TIP3    H253646   5.679   1.120   0.517  0.5556  1.0401 -0.0783
10719TIP3   OH253647   4.217   3.630  14.139 -0.0853 -0.3348  0.3167
10719TIP3    H153648   4.223   3.655  14.047  1.3661 -1.6708  0.0068
10719TIP3    H253649   4.180   3.541  14.137  0.7936 -0.7310  0.9368
10720TIP3   OH253650   1.498   2.403   5.472 -0.3407 -0.4632 -0.3836
10720TIP3    H153651   1.515   2.449   5.555 -1.9687 -1.2258  0.4362
10720TIP3    H253652   1.429   2.341   5.494 -1.2534 -0.2679 -2.4692
10721TIP3   OH253653   2.391   3.054   2.721 -0.2980 -0.7880 -0.0220
10721TIP3    H153654   2.436   3.101   2.650  0.3227 -1.2972  0.0313
10721TIP3    H253655   2.423   3.096   2.801 -2.1048  0.7817 -0.0543
10722TIP3   OH253656   2.756   1.664   4.454  0.0747  0.1430 -0.0101
10722TIP3    H153657   2.775   1.575   4.423  1.2253  0.0081  1.0156
10722TIP3    H253658   2.705   1.703   4.383 -1.4064 -1.6788 -0.0386
10723TIP3   OH253659   5.176   3.590   0.774 -0.4666  0.0784  0.0299
10723TIP3    H153660   5.166   3.580   0.679  1.4274  0.8254 -0.2864
10723TIP3    H253661   5.095   3.634   0.801 -1.6884 -1.4432 -0.9705
10724TIP3   OH253662   1.488   0.959  12.055 -0.1902 -0.0892  0.4627
10724TIP3    H153663   1.440   0.973  12.136 -1.3230  1.0068 -0.3662
10724TIP3    H253664   1.469   0.868  12.031 -2.0951  0.3715  0.0417
10725TIP3   OH253665   6.127   2.961  11.678  0.0803  0.1754  0.2097
10725TIP3    H153666   6.155   2.936  11.590  0.2843 -1.3660  0.6983
10725TIP3    H253667   6.198   3.017  11.710  0.2891  0.2564 -0.3723
10726TIP3   OH253668   0.812   5.508  10.746 -0.5951  0.6065 -0.2128
10726TIP3    H153669   0.758   5.506  10.667 -1.0588  0.3337  0.1042
10726TIP3    H253670   0.768   5.448  10.806 -0.6275  1.3319  0.4993
10727TIP3   OH253671   3.431   5.067   2.367 -0.7029  0.2585  0.2154
10727TIP3    H153672   3.408   5.003   2.435  0.0028  0.4791  0.6700
10727TIP3    H253673   3.394   5.149   2.398 -0.1020  0.4272  0.5040
10728TIP3   OH253674   2.029   1.687  13.891 -0.1659 -1.3087 -0.1338
10728TIP3    H153675   2.120   1.695  13.861 -0.0670  1.1064  0.6108
10728TIP3    H253676   1.976   1.717  13.817 -0.0648  1.7911  0.9466
10729TIP3   OH253677   1.134   4.489  16.891  0.1708 -0.1751  0.0410
10729TIP3    H153678   1.124   4.582  16.913 -3.5926 -0.6355  1.0588
10729TIP3    H253679   1.086   4.480  16.808 -0.0887 -1.2978  0.3055
10730TIP3   OH253680   4.575   4.447  12.464 -0.4937 -0.5213 -0.3589
10730TIP3    H153681   4.583   4.541  12.449 -0.9598 -0.2500  0.9337
10730TIP3    H253682   4.606   4.407  12.383  1.7293  0.6962 -0.1774
10731TIP3   OH253683   2.325   5.347  15.526 -0.0732 -0.4546 -0.0770
10731TIP3    H153684   2.233   5.334  15.549 -0.5229 -0.7843 -1.8934
10731TIP3    H253685   2.333   5.442  15.512  0.1160 -0.3004  0.9903
10732TIP3   OH253686   2.849   5.452   2.593 -0.2618 -0.3856 -0.3873
10732TIP3    H153687   2.883   5.508   2.523 -0.8066  3.2750  2.0212
10732TIP3    H253688   2.924   5.399   2.620  0.7031  0.1833 -1.8016
10733TIP3   OH253689   6.244   1.972   4.645 -0.1412 -0.2995 -0.4012
10733TIP3    H153690   6.272   1.967   4.737 -2.3167  0.7574  0.3763
10733TIP3    H253691   6.148   1.967   4.649 -0.2660 -0.5990 -2.6652
10734TIP3   OH253692   6.026   4.814  15.902  0.1305 -0.0921  0.1724
10734TIP3    H153693   6.041   4.774  15.817  0.6337  1.7251 -0.6430
10734TIP3    H253694   6.107   4.863  15.920 -0.2736  0.1860  1.3310
10735TIP3   OH253695   0.165   2.230   3.809  0.0184 -0.0299 -0.3325
10735TIP3    H153696   0.113   2.183   3.744 -0.1155 -0.7470  0.2797
10735TIP3    H253697   0.247   2.250   3.764  1.1313 -3.1027  0.1162
10736TIP3   OH253698   4.503   4.065   4.584 -0.1801 -0.0444 -0.1534
10736TIP3    H153699   4.476   4.007   4.655 -0.2115  0.5770  0.3539
10736TIP3    H253700   4.428   4.123   4.571  1.0527  2.1452  1.7253
10737TIP3   OH253701   3.619   6.410  11.130  0.4851  0.2715 -0.1075
10737TIP3    H153702   3.579   6.381  11.048  0.6308  0.8675 -0.3917
10737TIP3    H253703   3.551   6.460  11.174 -0.3947 -1.9400  1.2275
10738TIP3   OH253704   0.628   4.739  16.611  0.2255 -0.1844 -1.0637
10738TIP3    H153705   0.586   4.824  16.603 -1.5879 -0.9416 -0.0597
10738TIP3    H253706   0.654   4.733  16.703 -0.9900 -1.2727 -0.7634
10739TIP3   OH253707   5.997   2.993   4.743  0.2509 -0.3858  0.3124
10739TIP3    H153708   6.029   2.946   4.666 -0.6384 -0.7661  0.1635
10739TIP3    H253709   6.067   2.983   4.808  0.6366 -0.7925 -0.1554
10740TIP3   OH253710   1.297   3.421  14.539 -0.3938 -0.2894  0.4942
10740TIP3    H153711   1.342   3.338  14.553 -0.9206 -0.7926 -0.6570
10740TIP3    H253712   1.362   3.488  14.560  0.5427 -1.0045 -0.0723
10741TIP3   OH253713   6.020   4.319  15.560  0.1627 -0.0291 -0.1569
10741TIP3    H153714   5.977   4.265  15.625  0.5804 -0.4714 -0.2437
10741TIP3    H253715   6.027   4.264  15.482 -1.8050  1.0234 -1.1408
10742TIP3   OH253716   5.764   4.695   4.912 -1.1079 -0.3098  0.1442
10742TIP3    H153717   5.761   4.664   5.003  1.2547 -1.0392  0.0482
10742TIP3    H253718   5.827   4.767   4.914 -1.1756 -0.2092 -0.8894
10743TIP3   OH253719   6.299   6.779  11.562 -0.8478  0.2247 -0.2362
10743TIP3    H153720   6.312   6.830  11.642 -2.1822  2.1426 -1.1597
10743TIP3    H253721   6.386   6.747  11.539 -0.5024 -0.7637  2.1874
10744TIP3   OH253722   5.905   4.608  16.089  0.0030  0.2266  0.3251
10744TIP3    H153723   5.896   4.523  16.047  1.1939 -0.3401  1.1578
10744TIP3    H253724   5.935   4.667  16.020 -1.1976  0.0841 -0.3412
10745TIP3   OH253725   5.465   4.074   0.176 -0.0370  0.4721 -0.7248
10745TIP3    H153726   5.552   4.084   0.216 -0.1346  0.4200 -0.4991
10745TIP3    H253727   5.462   3.983   0.147 -0.1883  0.3521 -0.3283
10746TIP3   OH253728   2.513   5.628   3.272  0.1011 -0.4050 -0.4012
10746TIP3    H153729   2.523   5.673   3.356 -1.4651 -1.1608  0.2313
10746TIP3    H253730   2.527   5.697   3.206 -3.7259  1.5346  0.5239
10747TIP3   OH253731   4.528   6.111   1.348  0.2230  0.1036  0.0106
10747TIP3    H153732   4.551   6.030   1.303  1.2100 -1.1769  2.6128
10747TIP3    H253733   4.589   6.176   1.312  1.2858 -0.9625 -0.1851
10748TIP3   OH253734   1.870   5.685   5.681 -0.3692  0.4424 -0.1964
10748TIP3    H153735   1.915   5.681   5.596 -1.0229  0.2030 -0.5369
10748TIP3    H253736   1.853   5.778   5.695  0.2476  0.5355 -0.0567
10749TIP3   OH253737   0.364   1.838   6.415  0.0832 -0.1420 -0.4011
10749TIP3    H153738   0.312   1.782   6.473  0.3549 -0.0039 -0.0230
10749TIP3    H253739   0.311   1.918   6.407 -1.0908 -1.0478 -2.2439
10750TIP3   OH253740   1.041   6.604   2.656  0.3618 -0.0734  0.1965
10750TIP3    H153741   0.993   6.629   2.577  2.6282  1.5943 -0.7709
10750TIP3    H253742   1.043   6.684   2.709  1.9281 -0.1216  0.2519
10751TIP3   OH253743   6.172   0.424   0.356 -0.0865 -0.0760  0.2653
10751TIP3    H153744   6.154   0.475   0.277  1.3478 -1.1229 -0.7854
10751TIP3    H253745   6.153   0.484   0.428 -4.5233 -0.0278 -0.6742
10752TIP3   OH253746   1.105   0.992   5.491 -0.3644 -0.2357  0.0264
10752TIP3    H153747   1.033   1.005   5.430 -0.6124 -0.2923  0.3018
10752TIP3    H253748   1.064   0.954   5.569  0.1963 -1.7978 -0.4002
10753TIP3   OH253749   1.326   6.126  13.379 -0.4877  0.4520  0.3811
10753TIP3    H153750   1.383   6.057  13.413 -1.3945 -0.6093 -0.2075
10753TIP3    H253751   1.305   6.099  13.290 -3.0841  0.0368  1.0553
10754TIP3   OH253752   2.793   4.189   2.077  0.1634  0.0031 -0.2856
10754TIP3    H153753   2.829   4.104   2.054  0.9701  0.0739  0.6355
10754TIP3    H253754   2.767   4.229   1.994  0.8324 -0.6673 -0.8198
10755TIP3   OH253755   3.918   5.756   4.132 -0.6141 -0.4896 -0.1316
10755TIP3    H153756   3.850   5.787   4.073 -0.9496 -0.3218  0.3395
10755TIP3    H253757   3.947   5.673   4.094 -0.9478 -0.4677 -0.4354
10756TIP3   OH253758   4.285   1.610  16.717 -0.1002  0.1595 -0.0196
10756TIP3    H153759   4.377   1.584  16.712 -0.7068 -2.5016  0.9266
10756TIP3    H253760   4.252   1.599  16.627 -0.2485 -2.3783  0.2676
10757TIP3   OH253761   3.867   4.239   1.434  0.6508  0.3732 -0.5280
10757TIP3    H153762   3.773   4.227   1.443  0.5005  0.1194 -2.1244
10757TIP3    H253763   3.900   4.153   1.408  1.1920  0.6779 -0.8748
10758TIP3   OH253764   1.423   3.820  12.807  1.0867 -0.1864 -0.5723
10758TIP3    H153765   1.479   3.813  12.884  0.3239 -0.6597 -0.0531
10758TIP3    H253766   1.480   3.858  12.740  1.9340 -0.3511  0.0358
10759TIP3   OH253767   1.955   3.126  15.911 -0.7480  0.0173 -0.1054
10759TIP3    H153768   1.888   3.098  15.972 -2.2405 -0.6033 -1.9583
10759TIP3    H253769   2.032   3.073  15.934 -2.9114 -4.7022 -2.3560
10760TIP3   OH253770   0.308   0.893   2.386  0.1225  0.5040 -0.0365
10760TIP3    H153771   0.257   0.858   2.459 -1.9177 -0.7242 -1.9301
10760TIP3    H253772   0.285   0.837   2.312  0.5936  2.8468 -2.0791
10761TIP3   OH253773   2.591   3.346   1.980 -0.6484 -0.4140  0.1929
10761TIP3    H153774   2.612   3.262   1.938  0.1840  0.2182 -0.6965
10761TIP3    H253775   2.676   3.383   2.003 -0.9064  0.8829 -0.8297
10762TIP3   OH253776   0.469   0.631   3.628 -0.3910  0.1586 -0.2417
10762TIP3    H153777   0.535   0.672   3.573 -2.1896  3.3234 -0.2611
10762TIP3    H253778   0.508   0.628   3.715  0.7586 -0.6082 -0.7656
10763TIP3   OH253779   3.358   5.237  13.854 -0.0755 -0.0306 -0.1675
10763TIP3    H153780   3.443   5.282  13.850 -0.3937  0.5921 -0.0160
10763TIP3    H253781   3.339   5.230  13.947 -0.2457 -0.0625 -0.2041
10764TIP3   OH253782   4.762   3.541   5.569 -0.1363 -0.2495  0.0251
10764TIP3    H153783   4.760   3.628   5.529 -2.1579 -0.4749 -0.4694
10764TIP3    H253784   4.748   3.481   5.495 -1.1860 -0.8320  0.6726
10765TIP3   OH253785   0.122   0.699  13.865  0.2992 -0.0245  0.3814
10765TIP3    H153786   0.157   0.638  13.800  0.5414  0.0500  0.4440
10765TIP3    H253787   0.084   0.770  13.813 -1.7624 -1.1665  0.2241
10766TIP3   OH253788   5.217   2.664   2.693 -0.1617  0.5351  0.2072
10766TIP3    H153789   5.182   2.615   2.618  0.1524 -3.6136  2.4541
10766TIP3    H253790   5.312   2.652   2.686  0.1804  3.0802 -0.4356
10767TIP3   OH253791   2.054   2.098   0.991  0.2148 -0.5820  0.2037
10767TIP3    H153792   1.995   2.036   1.034  0.5215  0.0172  1.5423
10767TIP3    H253793   2.002   2.133   0.917 -0.3763 -1.5224  0.1617
10768TIP3   OH253794   0.186   0.912  14.746  0.3896  0.3379 -0.0941
10768TIP3    H153795   0.275   0.930  14.716 -0.4900  1.7232 -2.1085
10768TIP3    H253796   0.148   0.999  14.761 -0.5268 -0.2426  1.1128
10769TIP3   OH253797   6.377   1.000   2.664 -0.4153  0.6919  0.4963
10769TIP3    H153798   6.385   1.010   2.570 -1.3538  0.3565  0.3774
10769TIP3    H253799   6.397   0.907   2.680  0.1754  0.8463  0.6805
10770TIP3   OH253800   0.761   3.403  10.591 -0.5409 -0.4779  0.6234
10770TIP3    H153801   0.804   3.323  10.622 -2.2279 -1.7800 -0.2594
10770TIP3    H253802   0.827   3.471  10.603  1.3392 -2.1635  0.4416
10771TIP3   OH253803   3.976   3.575   0.379  0.0218 -0.3177 -0.1421
10771TIP3    H153804   3.958   3.562   0.286 -0.3760  1.1668 -0.2974
10771TIP3    H253805   4.069   3.553   0.388  0.1849 -0.0294 -0.9888
10772TIP3   OH253806   3.690   5.680   1.463 -0.2904  0.3107  0.2386
10772TIP3    H153807   3.611   5.625   1.465 -0.1284  0.0757  0.2810
10772TIP3    H253808   3.727   5.665   1.377 -0.7124  1.0289 -0.0744
10773TIP3   OH253809   5.856   1.626   0.554  0.1980 -0.5101 -0.3627
10773TIP3    H153810   5.850   1.533   0.576 -1.9804 -0.6389 -1.1712
10773TIP3    H253811   5.764   1.653   0.544  0.8320  1.3611 -1.5802
10774TIP3   OH253812   6.161   4.723  15.140 -0.1223 -0.4049 -0.1610
10774TIP3    H153813   6.205   4.639  15.154  0.4875 -0.2562 -1.0450
10774TIP3    H253814   6.083   4.700  15.088 -0.1251 -0.4640 -0.1307
10775TIP3   OH253815   4.020   0.881  10.960  0.4157 -0.1997  0.0109
10775TIP3    H153816   4.027   0.844  10.872  0.4674 -0.3340  0.0716
10775TIP3    H253817   4.026   0.975  10.947  0.8165 -0.2381 -0.0895
10776TIP3   OH253818   0.206   1.018  15.296  0.3299 -0.7081  0.2935
10776TIP3    H153819   0.247   1.086  15.243 -0.0006 -0.0588  0.8495
10776TIP3    H253820   0.272   0.995  15.361  0.6003 -1.2367 -0.1650
10777TIP3   OH253821   0.403   6.204   1.990  0.1721  0.4509 -0.4486
10777TIP3    H153822   0.329   6.148   1.968  0.5951 -0.5522  0.5904
10777TIP3    H253823   0.471   6.179   1.927 -0.0901  0.7625 -0.8552
10778TIP3   OH253824   3.333   1.791   3.035  0.0478 -0.0636 -0.4257
10778TIP3    H153825   3.348   1.721   3.098 -1.9309 -0.2066 -0.0467
10778TIP3    H253826   3.281   1.751   2.966 -1.5777  1.1117  0.0611
10779TIP3   OH253827   3.885   0.983  16.634 -0.2008  0.5693 -0.2837
10779TIP3    H153828   3.849   0.986  16.545 -0.6159  2.8405 -0.1072
10779TIP3    H253829   3.855   1.064  16.674 -2.1193 -1.4982  2.7996
10780TIP3   OH253830   0.924   1.069  13.049 -0.2283  0.1399 -0.0292
10780TIP3    H153831   0.834   1.092  13.029 -0.4121 -0.2907  0.2865
10780TIP3    H253832   0.977   1.120  12.988 -0.7307 -0.3368 -0.8683
10781TIP3   OH253833   2.419   0.092   2.009  0.4128  0.4222  0.3463
10781TIP3    H153834   2.359   0.166   2.000 -1.5856 -1.0195  1.0039
10781TIP3    H253835   2.404   0.040   1.930  0.0374 -0.4476  0.9764
10782TIP3   OH253836   6.196   2.322  15.329 -0.6988  0.3636  0.4487
10782TIP3    H153837   6.165   2.295  15.243 -0.5899 -0.6521  0.7252
10782TIP3    H253838   6.116   2.341  15.378 -0.8095 -0.2643  0.5147
10783TIP3   OH253839   6.656   2.535   0.907  0.6109 -0.8869 -0.0286
10783TIP3    H153840   6.615   2.458   0.948  0.5225 -1.1332 -0.5784
10783TIP3    H253841   6.632   2.528   0.815  1.3457 -0.6737 -0.2357
10784TIP3   OH253842   4.260   5.036   0.064 -0.3295 -0.6374 -0.0956
10784TIP3    H153843   4.242   4.944   0.084 -0.7168 -0.0118  2.9568
10784TIP3    H253844   4.356   5.042   0.067 -0.1377 -1.3195 -2.6836
10785TIP3   OH253845   0.447   1.195  14.221 -0.3137 -0.0442  0.1129
10785TIP3    H153846   0.472   1.272  14.272 -0.3695  0.4287 -0.5650
10785TIP3    H253847   0.393   1.229  14.150  0.5200 -0.5777 -0.8083
10786TIP3   OH253848   0.381   5.062  13.252 -0.1274  0.3335  0.1524
10786TIP3    H153849   0.444   5.071  13.180 -1.0576  0.4262 -0.6822
10786TIP3    H253850   0.301   5.031  13.209 -1.2461  2.0783  0.8560
10787TIP3   OH253851   3.711   3.913   4.179 -0.5033  0.2175  0.0688
10787TIP3    H153852   3.782   3.967   4.145 -1.5842  2.1256  0.7016
10787TIP3    H253853   3.686   3.857   4.106 -1.2785  2.6630 -1.6797
10788TIP3   OH253854   0.990   6.687  16.719  0.2504  0.2051  0.0063
10788TIP3    H153855   1.003   6.664  16.811 -1.3721 -0.8460  0.0068
10788TIP3    H253856   1.058   6.752  16.701  1.3022 -0.3877  1.6317
10789TIP3   OH253857   2.895   6.820  13.473  0.5121 -0.0517 -0.0027
10789TIP3    H153858   2.858   6.733  13.488 -0.2815  0.1156 -0.9021
10789TIP3    H253859   2.941   6.841  13.554  1.9601 -1.9093 -0.2802
10790TIP3   OH253860   3.168   2.083  14.511  0.1396 -0.5555 -0.4686
10790TIP3    H153861   3.106   2.121  14.573  0.1540  0.4044 -1.0305
10790TIP3    H253862   3.130   2.100  14.425  0.9347 -0.3888 -0.7942
10791TIP3   OH253863   6.574   3.808   1.737  0.0440  0.3731 -0.0529
10791TIP3    H153864   6.582   3.822   1.831 -0.1754 -0.1986  0.0573
10791TIP3    H253865   6.654   3.846   1.700 -0.0927  1.0338  0.3100
10792TIP3   OH253866   1.520   6.011   1.222 -0.6361 -0.0591 -0.6018
10792TIP3    H153867   1.598   5.973   1.263 -0.8940 -0.9293 -0.8894
10792TIP3    H253868   1.541   6.104   1.212  0.4453 -0.3131 -0.8533
10793TIP3   OH253869   3.590   2.843  15.598 -0.2676 -0.0640  0.1027
10793TIP3    H153870   3.567   2.887  15.680  3.4206  2.0930  0.2234
10793TIP3    H253871   3.560   2.903  15.529 -1.0760 -0.6259 -0.0462
10794TIP3   OH253872   6.466   2.860  12.232 -0.4293  0.3124 -0.2051
10794TIP3    H153873   6.434   2.817  12.311 -1.2570 -1.0639 -1.2387
10794TIP3    H253874   6.420   2.944  12.231 -0.5024  0.2948  0.7049
10795TIP3   OH253875   0.770   3.190   2.504 -0.2217  0.1429 -0.0441
10795TIP3    H153876   0.825   3.138   2.446 -2.2156 -1.2980 -0.7634
10795TIP3    H253877   0.714   3.126   2.548 -2.2815  1.5719 -0.4264
10796TIP3   OH253878   4.715   5.001  10.652  0.6096 -0.4144  0.6462
10796TIP3    H153879   4.648   4.938  10.628 -0.7441  1.4766 -0.8303
10796TIP3    H253880   4.669   5.064  10.708  1.7972 -0.3844  1.6473
10797TIP3   OH253881   4.677   5.249  15.021 -0.2603  0.1166 -0.0461
10797TIP3    H153882   4.724   5.181  14.972  2.6704  1.4849  0.6448
10797TIP3    H253883   4.644   5.309  14.954 -2.2739 -1.5209 -0.6205
10798TIP3   OH253884   5.665   1.450  11.979  0.4319  0.7291  0.1829
10798TIP3    H153885   5.632   1.528  11.934 -1.4521 -0.2353 -0.2289
10798TIP3    H253886   5.603   1.437  12.052 -0.5583 -1.4921 -0.9530
10799TIP3   OH253887   0.755   1.243  15.637  0.4311 -0.6764  0.7116
10799TIP3    H153888   0.744   1.246  15.732  0.8529 -1.8235  0.8136
10799TIP3    H253889   0.733   1.331  15.608  1.2870  0.0007  1.9813
10800TIP3   OH253890   5.549   3.877  11.365  0.4347  0.0148  0.5081
10800TIP3    H153891   5.598   3.960  11.366 -0.0687  0.3254  0.0781
10800TIP3    H253892   5.498   3.879  11.446  1.5047 -0.5497  1.2202
10801TIP3   OH253893   5.000   1.144  15.012 -0.3587 -0.6043  0.0911
10801TIP3    H153894   4.934   1.075  15.008 -1.6375  0.6251 -2.5485
10801TIP3    H253895   4.965   1.207  15.075 -1.9176  0.1208 -1.4125
10802TIP3   OH253896   6.752   4.342   3.803  0.1142  0.5360  0.3994
10802TIP3    H153897   6.787   4.287   3.872 -0.0606 -0.2480 -0.1185
10802TIP3    H253898   6.740   4.282   3.729 -2.4448  0.7076  0.5819
10803TIP3   OH253899   5.087   0.325  16.646 -0.0283  0.1648  0.2093
10803TIP3    H153900   5.156   0.259  16.639 -0.5586 -0.2665 -1.1907
10803TIP3    H253901   5.129   0.400  16.689  0.8920 -0.6370  0.7493
10804TIP3   OH253902   2.792   1.751  14.595 -0.1095 -0.2162 -0.2059
10804TIP3    H153903   2.742   1.796  14.662 -0.4377  0.1081 -0.6598
10804TIP3    H253904   2.872   1.724  14.639 -0.0439  0.5405  0.1573
10805TIP3   OH253905   6.608   1.369  14.907  0.0091 -0.1702 -0.4796
10805TIP3    H153906   6.596   1.321  14.825  0.7164  0.3568 -0.9049
10805TIP3    H253907   6.693   1.338  14.940 -0.6038 -0.9361  0.4516
10806TIP3   OH253908   6.708   6.210  13.701  0.0965 -0.4224  0.1039
10806TIP3    H153909   6.701   6.284  13.642 -1.4975 -0.4147  0.2546
10806TIP3    H253910   6.779   6.156  13.665 -0.0449  0.1845 -1.1089
10807TIP3   OH253911   6.608   3.527  11.386  0.3170 -0.3939 -0.7280
10807TIP3    H153912   6.563   3.528  11.471  0.5362 -1.4470 -0.5888
10807TIP3    H253913   6.579   3.607  11.343  1.0906  0.7752  0.8018
10808TIP3   OH253914   3.029   3.017  15.752  1.3982  0.2674  0.1980
10808TIP3    H153915   3.090   2.947  15.732  0.0120 -0.7754 -0.5252
10808TIP3    H253916   2.950   2.997  15.702  0.2551  1.2889  1.4630
10809TIP3   OH253917   1.903   2.742   1.217 -0.0020 -0.4691 -0.0517
10809TIP3    H153918   1.926   2.835   1.208 -2.2091  0.2230  0.7136
10809TIP3    H253919   1.907   2.708   1.127 -0.4492  0.7271 -0.5487
10810TIP3   OH253920   5.721   6.646   0.766  0.1596 -0.5804  0.1175
10810TIP3    H153921   5.658   6.615   0.832 -0.5890 -0.4823 -0.5430
10810TIP3    H253922   5.805   6.609   0.795 -0.0541 -0.1179  1.4106
10811TIP3   OH253923   3.221   4.179  15.509 -0.4104  0.1489  0.0698
10811TIP3    H153924   3.207   4.145  15.421 -0.6965  0.7428 -0.1172
10811TIP3    H253925   3.316   4.180  15.520 -0.4040 -1.0811  0.2317
10812TIP3   OH253926   1.435   6.389   5.344 -0.5041  0.2133  0.8174
10812TIP3    H153927   1.519   6.425   5.317 -1.0448  1.4196  0.6570
10812TIP3    H253928   1.455   6.300   5.372  0.3337 -0.6358 -2.1332
10813TIP3   OH253929   2.649   1.538  15.754  0.3763  0.3237 -0.2204
10813TIP3    H153930   2.681   1.626  15.777 -2.1409  0.9676  1.2342
10813TIP3    H253931   2.581   1.554  15.688  2.3903 -0.9319 -2.7461
10814TIP3   OH253932   4.093   2.728   4.899 -0.5241  0.2972 -0.0867
10814TIP3    H153933   4.160   2.792   4.875 -1.7821  1.1963 -1.3286
10814TIP3    H253934   4.061   2.757   4.984  2.1934 -1.4665  1.7208
10815TIP3   OH253935   1.812   0.821   0.120  0.3242 -0.0045 -0.3296
10815TIP3    H153936   1.802   0.742   0.175  0.2747  0.3198  0.1370
10815TIP3    H253937   1.729   0.868   0.131  0.3623  0.1209 -0.5901
10816TIP3   OH253938   4.402   3.610  11.227 -0.1042  0.6157  0.0006
10816TIP3    H153939   4.361   3.573  11.148  0.6260  0.9854 -0.5603
10816TIP3    H253940   4.349   3.576  11.299  0.1759 -1.0420 -0.5387
10817TIP3   OH253941   0.579   5.631   0.436  0.5553  0.5105  0.2782
10817TIP3    H153942   0.500   5.652   0.486 -0.1975  0.7789 -0.9761
10817TIP3    H253943   0.632   5.711   0.440  0.1132  0.8263 -0.0407
10818TIP3   OH253944   0.799   0.828  14.719 -0.1464 -0.5137  0.6022
10818TIP3    H153945   0.800   0.746  14.768  0.5625 -0.7151  0.2759
10818TIP3    H253946   0.798   0.801  14.627  0.0700 -0.1595  0.4934
10819TIP3   OH253947   5.911   3.260   0.471  0.0051 -0.1316 -0.3654
10819TIP3    H153948   5.886   3.323   0.404 -0.3922 -0.2623 -0.3407
10819TIP3    H253949   5.854   3.184   0.456 -2.0062  0.8408  1.7758
10820TIP3   OH253950   1.921   2.035  12.300  0.2114  0.2445  0.4619
10820TIP3    H153951   1.917   2.067  12.390 -0.3408 -2.6370  1.5707
10820TIP3    H253952   2.002   1.985  12.296 -0.3359 -0.6157 -0.2610
10821TIP3   OH253953   3.442   3.960  17.112 -0.3682  0.5601 -0.2115
10821TIP3    H153954   3.360   3.912  17.109 -0.7158  1.0173  1.1707
10821TIP3    H253955   3.422   4.045  17.073 -0.4217  0.4899 -0.3353
10822TIP3   OH253956   2.937   4.892   3.008 -0.1522 -0.1416  0.6289
10822TIP3    H153957   2.859   4.937   3.041 -1.4182 -1.4313 -0.5098
10822TIP3    H253958   2.910   4.800   2.999  2.0462 -0.9732  1.8922
10823TIP3   OH253959   2.940   0.757  12.014  0.2382 -0.2754  0.3281
10823TIP3    H153960   2.945   0.847  11.981 -1.2303 -1.6080 -4.4552
10823TIP3    H253961   2.849   0.747  12.042 -0.3153 -0.7810 -1.4781
10824TIP3   OH253962   1.151   1.249   4.169  0.2154  0.1909  0.1377
10824TIP3    H153963   1.127   1.339   4.191  0.6879  0.6217 -0.9897
10824TIP3    H253964   1.074   1.197   4.191 -0.2769  0.9616  0.2592
10825TIP3   OH253965   6.470   3.452  12.736 -0.6935  0.0146  0.6124
10825TIP3    H153966   6.456   3.473  12.644 -1.5770 -0.8129  0.5486
10825TIP3    H253967   6.434   3.527  12.784 -0.2445  0.4370  0.2941
10826TIP3   OH253968   6.433   2.826   3.810 -0.1800  0.2600  0.6231
10826TIP3    H153969   6.429   2.734   3.782 -0.5534  1.2367 -3.0412
10826TIP3    H253970   6.520   2.835   3.850  0.0075 -1.5659  0.7414
10827TIP3   OH253971   5.427   4.379  14.388 -0.1958 -0.0594  0.3087
10827TIP3    H153972   5.436   4.288  14.357  1.2274  0.0478  0.3420
10827TIP3    H253973   5.333   4.390  14.401 -0.6893 -0.7549 -2.0649
10828TIP3   OH253974   5.250   5.385  12.365  0.0434  0.7199  0.0983
10828TIP3    H153975   5.192   5.309  12.363  0.4856  0.3863 -0.2153
10828TIP3    H253976   5.329   5.356  12.319  0.2280  1.3603  0.0065
10829TIP3   OH253977   6.487   3.977  15.229 -0.0231 -0.3767  0.0499
10829TIP3    H153978   6.450   3.969  15.141 -1.8410  1.4913  0.5800
10829TIP3    H253979   6.577   3.946  15.220 -0.6218 -1.6847 -2.1079
10830TIP3   OH253980   2.084   4.245   2.065 -0.3934 -0.1976  0.4566
10830TIP3    H153981   2.142   4.267   2.138  2.8320 -1.1729 -1.5749
10830TIP3    H253982   2.084   4.149   2.063 -2.1483 -0.2201  0.3851
10831TIP3   OH253983   3.107   5.360   2.085  0.6666  0.2090 -0.8124
10831TIP3    H153984   3.125   5.269   2.109 -2.2217 -0.8171 -2.1030
10831TIP3    H253985   3.026   5.382   2.131  0.5072  1.6072 -1.7081
10832TIP3   OH253986   1.404   4.021   3.776 -0.2433  0.1858 -0.1099
10832TIP3    H153987   1.355   3.939   3.763 -0.5945  0.5948 -1.4975
10832TIP3    H253988   1.346   4.074   3.831  0.5658 -0.9629  1.9891
10833TIP3   OH253989   6.131   3.165   2.634  0.2892  0.0134 -0.1934
10833TIP3    H153990   6.137   3.071   2.650  1.7405 -0.3380 -2.4282
10833TIP3    H253991   6.176   3.204   2.708  1.7388 -1.1889 -0.4020
10834TIP3   OH253992   6.508   2.736  12.753  0.3309  0.0115  0.5335
10834TIP3    H153993   6.554   2.653  12.739 -0.4685 -0.4660  0.6534
10834TIP3    H253994   6.490   2.739  12.847 -1.5544 -0.7454  0.2373
10835TIP3   OH253995   4.374   5.187   4.953 -0.0966 -0.4289 -0.3754
10835TIP3    H153996   4.432   5.129   4.904 -1.2788 -1.3188 -0.7716
10835TIP3    H253997   4.289   5.177   4.912 -0.6656  0.4299  0.5332
10836TIP3   OH253998   4.969   1.444  14.245  0.0248 -0.3070 -0.2054
10836TIP3    H153999   4.957   1.394  14.164 -0.9185 -0.8526  0.2469
10836TIP3    H254000   5.027   1.516  14.221 -0.5439 -0.2390 -1.4651
10837TIP3   OH254001   5.516   0.794   1.997 -0.4385 -0.4259 -0.0968
10837TIP3    H154002   5.505   0.719   2.056 -2.3540 -0.4686 -0.4393
10837TIP3    H254003   5.558   0.860   2.051 -2.9078 -0.1520  1.6896
10838TIP3   OH254004   1.874   2.966  12.467 -0.2260  0.1010 -0.6247
10838TIP3    H154005   1.933   2.924  12.529 -0.3439 -0.8304 -1.1364
10838TIP3    H254006   1.825   3.029  12.520  2.2985  2.1245 -0.4233
10839TIP3   OH254007   1.772   1.789   5.986 -0.6164 -0.8573 -0.2412
10839TIP3    H154008   1.689   1.763   6.027 -0.0317 -0.4675  1.2717
10839TIP3    H254009   1.793   1.874   6.025  1.2337 -1.6304  0.5695
10840TIP3   OH254010   5.300   3.499   3.373 -0.6665  0.0528 -0.8787
10840TIP3    H154011   5.307   3.589   3.402  0.7420  0.0936 -1.2521
10840TIP3    H254012   5.206   3.482   3.368 -0.9716  0.6144  1.8211
10841TIP3   OH254013   3.654   5.130   4.696 -0.7406 -0.5312  0.0545
10841TIP3    H154014   3.605   5.204   4.661 -0.0296 -0.3150 -0.5085
10841TIP3    H254015   3.615   5.113   4.782 -1.0290  0.3769  0.1047
10842TIP3   OH254016   2.447   6.542  14.707  0.7263  0.0060 -0.0606
10842TIP3    H154017   2.357   6.546  14.674 -0.0991  1.5675  2.1418
10842TIP3    H254018   2.499   6.516  14.631 -1.3635  0.6371 -1.8195
10843TIP3   OH254019   2.828   4.110  12.086 -0.5943 -0.5710  0.4087
10843TIP3    H154020   2.855   4.019  12.090 -0.2077 -0.5033 -0.4859
10843TIP3    H254021   2.774   4.117  12.008  0.0661  0.1325 -0.0062
10844TIP3   OH254022   3.438   3.109  15.194 -0.1710  0.2960  0.3293
10844TIP3    H154023   3.419   3.195  15.233 -1.8645 -0.0563  0.3181
10844TIP3    H254024   3.525   3.088  15.227 -0.1817  1.5167  1.2359
10845TIP3   OH254025   4.004   2.924  12.513 -0.0420  0.3861 -0.1505
10845TIP3    H154026   4.060   2.960  12.583 -0.8066  0.9769  0.1796
10845TIP3    H254027   4.065   2.889  12.449  0.7352  1.6147 -0.1178
10846TIP3   OH254028   1.522   5.017   6.251  0.0268  0.6391 -0.2336
10846TIP3    H154029   1.493   5.089   6.196 -1.3125 -0.6844 -1.3431
10846TIP3    H254030   1.474   5.029   6.333  0.9861  1.8392  0.1878
10847TIP3   OH254031   2.936   4.989   0.194 -0.6344  0.1195  0.1190
10847TIP3    H154032   2.901   5.050   0.259 -0.6065 -0.3133  0.5490
10847TIP3    H254033   2.893   5.013   0.112 -0.1020  1.1711  0.1281
10848TIP3   OH254034   0.337   0.295  11.117  0.4304 -0.3219  0.4754
10848TIP3    H154035   0.407   0.231  11.114  0.8517  0.1796 -1.6166
10848TIP3    H254036   0.272   0.264  11.054  0.0523  0.6518  0.3620
10849TIP3   OH254037   4.875   2.616  14.352 -0.1176  0.2080  0.2040
10849TIP3    H154038   4.954   2.590  14.304 -0.0276  1.9964 -0.6839
10849TIP3    H254039   4.807   2.619  14.286 -1.1005 -1.7248  1.0378
10850TIP3   OH254040   5.889   6.060   3.952 -0.1682 -0.2079 -0.3006
10850TIP3    H154041   5.859   6.079   4.041 -0.6689 -0.5705 -0.3861
10850TIP3    H254042   5.822   6.099   3.896  0.2239  0.1509 -0.5255
10851TIP3   OH254043   6.606   1.325  11.806  0.2658 -0.0583 -0.3032
10851TIP3    H154044   6.653   1.246  11.832  0.1418  0.2224  0.8020
10851TIP3    H254045   6.524   1.322  11.855  0.2220  0.7143 -0.3124
10852TIP3   OH254046   5.932   3.820   2.072  0.4582 -0.4244 -0.2609
10852TIP3    H154047   5.864   3.864   2.021 -0.5097 -0.9127  0.5758
10852TIP3    H254048   5.885   3.758   2.127  1.5116 -0.1856  0.9532
10853TIP3   OH254049   4.384   4.517   3.777  0.2233 -0.0010 -0.3905
10853TIP3    H154050   4.438   4.446   3.812  0.8528  0.5731 -0.1747
10853TIP3    H254051   4.295   4.493   3.802  0.7361  0.9601  2.7399
10854TIP3   OH254052   4.546   1.465  12.506  0.4082 -0.4259 -0.6385
10854TIP3    H154053   4.565   1.462  12.600  1.4406  1.5216 -0.7383
10854TIP3    H254054   4.569   1.378  12.474 -0.3194 -1.2408  0.9647
10855TIP3   OH254055   5.037   0.465   4.494  0.5477 -0.0956  0.4826
10855TIP3    H154056   5.043   0.370   4.505  0.6328 -0.1949 -0.3525
10855TIP3    H254057   5.018   0.477   4.401  0.7538  0.7150  0.5402
10856TIP3   OH254058   4.694   2.324  11.074  0.2089  0.8089  0.1952
10856TIP3    H154059   4.772   2.319  11.129 -0.5998 -1.5097  1.3204
10856TIP3    H254060   4.727   2.321  10.985  1.4550  1.7101  0.5958
10857TIP3   OH254061   5.535   5.362  16.553  0.5829  0.5367  0.2479
10857TIP3    H154062   5.470   5.325  16.613  1.5348 -0.8918  0.4526
10857TIP3    H254063   5.589   5.418  16.608  0.2468  0.7922  0.3205
10858TIP3   OH254064   3.379   4.182   3.572 -0.2243 -0.1143  0.0749
10858TIP3    H154065   3.344   4.241   3.638 -0.1591  1.9261 -1.6047
10858TIP3    H254066   3.474   4.186   3.584 -0.2583 -0.7642  0.6429
10859TIP3   OH254067   0.253   5.956  12.420 -0.2552  0.6318 -0.3792
10859TIP3    H154068   0.294   5.992  12.341  1.1738  1.4597  0.6910
10859TIP3    H254069   0.316   5.974  12.490  0.0242 -2.9360  0.4766
10860TIP3   OH254070   5.781   5.248   4.313  0.4410 -0.9869  0.1843
10860TIP3    H154071   5.870   5.216   4.298  1.2600  1.2011  0.1231
10860TIP3    H254072   5.782   5.284   4.402  0.4102  1.4110 -0.7157
10861TIP3   OH254073   4.882   1.257   5.108 -0.4823 -0.5196 -0.1226
10861TIP3    H154074   4.823   1.188   5.076 -0.6068 -0.6463  0.3696
10861TIP3    H254075   4.824   1.329   5.130 -0.7009 -1.3190  2.1971
10862TIP3   OH254076   5.094   3.617   0.244 -0.4666  0.5487  0.2877
10862TIP3    H154077   5.087   3.570   0.161  2.4947 -1.1756  0.8483
10862TIP3    H254078   5.006   3.617   0.279 -1.6450  0.5716 -2.4230
10863TIP3   OH254079   2.858   6.205  15.109 -0.6169 -0.3986  0.3121
10863TIP3    H154080   2.923   6.224  15.178  0.5235  1.9330 -1.2609
10863TIP3    H254081   2.902   6.143  15.051  0.0921  0.7938 -0.4778
10864TIP3   OH254082   6.757   0.968   3.182  0.2145  0.1530  0.2961
10864TIP3    H154083   6.844   1.005   3.194 -0.1915  1.4191 -0.5024
10864TIP3    H254084   6.702   1.013   3.247  0.2168 -0.9523  1.0973
10865TIP3   OH254085   3.860   4.698   2.461 -0.0561 -0.0190 -0.0734
10865TIP3    H154086   3.942   4.747   2.468 -0.8189  1.2671  0.1018
10865TIP3    H254087   3.849   4.682   2.367  0.1462  0.2446 -0.1419
10866TIP3   OH254088   4.984   3.940   3.580 -0.2579  0.2099  0.8201
10866TIP3    H154089   4.924   3.865   3.585  1.4491 -1.2741  0.3833
10866TIP3    H254090   4.987   3.961   3.486 -0.1738  0.3373  0.8516
10867TIP3   OH254091   3.667   5.830  16.755  0.4434  0.4298 -0.1235
10867TIP3    H154092   3.589   5.776  16.762  1.0385 -0.3150  1.1325
10867TIP3    H254093   3.680   5.843  16.661  1.3781 -3.2642 -0.6520
10868TIP3   OH254094   6.464   0.183  14.683  0.0265 -0.6597 -0.2706
10868TIP3    H154095   6.535   0.232  14.642 -1.5879  0.9210 -1.3293
10868TIP3    H254096   6.432   0.241  14.752 -1.3276 -0.5770 -0.9368
10869TIP3   OH254097   0.215   3.937  10.974 -0.1855 -0.3129  0.0978
10869TIP3    H154098   0.194   3.857  10.926  2.6658  0.0712 -2.0073
10869TIP3    H254099   0.264   3.990  10.912  1.2849  1.4581  2.6096
10870TIP3   OH254100   0.251   0.024  11.329  0.3081 -0.3662  0.0278
10870TIP3    H154101   0.195   0.101  11.318  1.8163  0.7660 -0.1002
10870TIP3    H254102   0.213  -0.024  11.403 -0.9880  0.1891 -0.2542
10871TIP3   OH254103   5.950   3.470   5.419  0.1102  0.4545  0.4157
10871TIP3    H154104   6.004   3.395   5.442 -0.5681  0.1842  1.1985
10871TIP3    H254105   5.941   3.466   5.324 -1.3024 -1.4660  0.5663
10872TIP3   OH254106   6.479   1.538  13.836  0.4654  0.1787 -0.0844
10872TIP3    H154107   6.436   1.477  13.896 -2.4207  1.0609 -1.0641
10872TIP3    H254108   6.572   1.515  13.840 -0.1736 -2.5922  1.4414
10873TIP3   OH254109   1.778   3.998   3.700 -0.2543 -0.2214 -0.9011
10873TIP3    H154110   1.777   4.087   3.733 -0.8665 -0.5872  0.0924
10873TIP3    H254111   1.689   3.965   3.714  0.1040 -1.1738 -0.7308
10874TIP3   OH254112   0.028   2.255  13.333 -0.0153  0.3094  0.3942
10874TIP3    H154113   0.057   2.342  13.359 -0.0570  0.2679  0.5833
10874TIP3    H254114  -0.067   2.259  13.341  0.0590 -0.1849  1.7975
10875TIP3   OH254115   4.023   6.290  11.302  0.0013  0.1505  0.1072
10875TIP3    H154116   4.061   6.244  11.377  0.8508 -0.1388 -0.4802
10875TIP3    H254117   4.044   6.382  11.317  0.2385  0.0843  0.1865
10876TIP3   OH254118   6.468   0.545   2.492  0.5112  0.1631 -0.0533
10876TIP3    H154119   6.560   0.524   2.503 -0.0376 -1.4148  2.2375
10876TIP3    H254120   6.422   0.465   2.515 -1.4530  0.4977 -2.3810
10877TIP3   OH254121   0.246   4.624   1.079 -0.2815 -0.4877 -0.0911
10877TIP3    H154122   0.310   4.647   1.146  0.7813 -0.0602 -1.2002
10877TIP3    H254123   0.165   4.610   1.127  0.1351  1.0320  1.1596
10878TIP3   OH254124   2.080   5.035   4.730  0.3536 -0.1883 -0.1336
10878TIP3    H154125   2.036   5.038   4.815  0.8989 -1.9764  0.2515
10878TIP3    H254126   2.016   4.996   4.670  0.6826 -0.8819 -0.0438
10879TIP3   OH254127   4.052   6.148   3.720  0.0402 -0.7940 -0.2510
10879TIP3    H154128   4.027   6.128   3.810  1.6707 -1.3537  0.1124
10879TIP3    H254129   4.133   6.198   3.728  0.2257 -0.8788 -1.4020
10880TIP3   OH254130   2.511   3.794   5.589 -0.0927  0.2264 -0.3133
10880TIP3    H154131   2.556   3.744   5.521 -0.0633  0.4174 -0.4353
10880TIP3    H254132   2.450   3.732   5.628 -1.7314  0.6569 -2.0129
10881TIP3   OH254133   6.755   2.236   4.497 -0.5448 -0.5542 -0.5476
10881TIP3    H154134   6.845   2.211   4.477 -0.0491 -0.3360  1.1963
10881TIP3    H254135   6.749   2.328   4.469  0.3610 -0.0134  0.9042
10882TIP3   OH254136   2.120   4.225   5.210 -0.0260 -0.0972 -0.5518
10882TIP3    H154137   2.149   4.230   5.301  1.5125  0.7745 -1.0452
10882TIP3    H254138   2.180   4.163   5.168 -0.8825 -0.6909 -0.9278
10883TIP3   OH254139   5.664   3.897   1.940  0.5852  0.7301 -0.2937
10883TIP3    H154140   5.634   3.964   2.002 -0.5555  1.2654 -1.3631
10883TIP3    H254141   5.710   3.946   1.872 -2.2538  0.8461 -2.3260
10884TIP3   OH254142   4.483   3.890   4.825 -0.2793  0.2551  0.0160
10884TIP3    H154143   4.395   3.928   4.827 -0.2449  0.3639 -0.5026
10884TIP3    H254144   4.524   3.922   4.906 -0.0603  1.7945 -0.6593
10885TIP3   OH254145   1.464   5.678   1.954 -0.6624 -0.1058  0.3898
10885TIP3    H154146   1.546   5.664   1.906  0.6678  1.8278  1.9335
10885TIP3    H254147   1.456   5.603   2.012  0.8596  0.3738  1.2832
10886TIP3   OH254148   5.992   5.313  15.263 -0.1074 -0.2646 -0.1928
10886TIP3    H154149   6.019   5.380  15.326  1.4558 -1.2777  0.2836
10886TIP3    H254150   5.897   5.309  15.272 -0.4230  2.7071 -1.1182
10887TIP3   OH254151   1.381   1.166   3.299  0.4460 -0.0171 -0.5897
10887TIP3    H154152   1.444   1.177   3.228  0.5474 -1.5144 -0.7696
10887TIP3    H254153   1.430   1.122   3.368 -0.0030  0.2163 -0.1177
10888TIP3   OH254154   5.572   3.445  13.920 -0.4412  0.0425 -0.3823
10888TIP3    H154155   5.601   3.454  14.011 -0.8827 -2.8057  0.1243
10888TIP3    H254156   5.645   3.478  13.868  0.3398  0.5213  0.9679
10889TIP3   OH254157   2.614   4.688   3.638  0.2625  0.5213 -0.5058
10889TIP3    H154158   2.584   4.778   3.651 -2.2776 -0.2742 -0.2049
10889TIP3    H254159   2.535   4.635   3.650  1.6633 -1.7529 -0.7550
10890TIP3   OH254160   3.846   1.729   5.934 -0.0106  0.0293 -0.6358
10890TIP3    H154161   3.933   1.689   5.942 -0.4109 -0.6804  0.4252
10890TIP3    H254162   3.801   1.676   5.868 -0.8456 -1.9543  1.3832
10891TIP3   OH254163   5.095   3.410   1.892 -0.2075  0.0496  0.6293
10891TIP3    H154164   5.016   3.367   1.923  0.0246 -1.5760 -0.8657
10891TIP3    H254165   5.091   3.498   1.930 -1.6804 -0.6509  2.2182
10892TIP3   OH254166   0.122   0.863  16.811  0.0126  0.6225 -0.4008
10892TIP3    H154167   0.180   0.802  16.764 -0.4147  0.0717 -0.2156
10892TIP3    H254168   0.079   0.809  16.878 -0.2573  1.1596 -0.1377
10893TIP3   OH254169   6.107   0.238  13.463  0.5856  0.0820  0.1691
10893TIP3    H154170   6.102   0.164  13.402  0.1087  0.6271 -0.4690
10893TIP3    H254171   6.044   0.216  13.531 -0.8358  0.6783 -0.9080
10894TIP3   OH254172   1.696   5.889   5.483  0.9088  0.2937 -0.4156
10894TIP3    H154173   1.755   5.897   5.558  0.8424  0.2720 -0.3604
10894TIP3    H254174   1.735   5.945   5.416  1.8434 -0.9213 -0.9185
10895TIP3   OH254175   6.679   1.162   5.053 -0.1299 -0.0362 -0.0733
10895TIP3    H154176   6.680   1.067   5.067  2.5373 -0.0277  0.2409
10895TIP3    H254177   6.736   1.176   4.978 -0.9945  1.3107 -0.5251
10896TIP3   OH254178   4.689   4.289  14.730 -0.4325  0.2899 -0.3323
10896TIP3    H154179   4.640   4.212  14.760  0.6899  0.4287  2.1618
10896TIP3    H254180   4.663   4.358  14.791  0.8785  1.0531 -0.6028
10897TIP3   OH254181   6.425   4.966  13.368 -0.5317 -0.3498  0.2401
10897TIP3    H154182   6.348   4.943  13.316  0.4886 -1.5621 -0.8186
10897TIP3    H254183   6.432   4.896  13.433 -0.0571 -0.5292  0.0041
10898TIP3   OH254184   6.689   5.724  11.487 -0.1601 -0.0963 -0.4847
10898TIP3    H154185   6.685   5.815  11.456 -1.5657  0.4516  1.1232
10898TIP3    H254186   6.771   5.719  11.536 -0.7082  0.7520  0.5756
10899TIP3   OH254187   0.500   2.949  15.510 -0.2716 -0.2383  0.4588
10899TIP3    H154188   0.464   2.896  15.581 -1.1622  0.5276  0.5965
10899TIP3    H254189   0.593   2.956  15.530  0.3412 -3.4457 -0.6455
10900TIP3   OH254190   6.018   6.335  17.253  0.2622  0.0807  0.3503
10900TIP3    H154191   6.107   6.300  17.258 -0.0563 -0.7601  0.3402
10900TIP3    H254192   5.963   6.269  17.296 -0.5750 -0.2515 -1.1415
10901TIP3   OH254193   4.011   1.348  14.961 -0.2940  0.1138 -0.1231
10901TIP3    H154194   3.938   1.288  14.978  0.0583 -0.4584 -0.6089
10901TIP3    H254195   4.019   1.350  14.866  0.5019 -0.0408 -0.0643
10902TIP3   OH254196   4.632   3.048   0.290 -0.0645 -0.0735 -0.0023
10902TIP3    H154197   4.701   3.047   0.357 -0.0013  0.8331 -0.0294
10902TIP3    H254198   4.653   3.125   0.237 -0.0751 -0.8288 -1.1216
10903TIP3   OH254199   3.144   2.620  16.888  0.0459  0.6992  0.4631
10903TIP3    H154200   3.219   2.569  16.857 -0.5780  0.1349 -0.1448
10903TIP3    H254201   3.183   2.697  16.929  0.9607  0.4087  0.1604
10904TIP3   OH254202   0.643   4.262  12.369 -0.2532 -0.2749  0.0654
10904TIP3    H154203   0.562   4.213  12.359 -0.2598 -0.2426 -0.0340
10904TIP3    H254204   0.621   4.352  12.345 -0.0661 -0.3653 -0.4480
10905TIP3   OH254205   5.566   0.917   5.121  0.5152 -0.2243  0.4438
10905TIP3    H154206   5.576   0.999   5.074 -0.1979 -1.0446 -1.2169
10905TIP3    H254207   5.648   0.870   5.105  0.9937  0.1910  1.5343
10906TIP3   OH254208   5.185   1.660   1.747  0.2749 -0.2204  0.3807
10906TIP3    H154209   5.155   1.574   1.716  0.3397 -0.4482  0.9349
10906TIP3    H254210   5.126   1.682   1.818  0.6267 -0.0814  0.6326
10907TIP3   OH254211   0.760   1.462   6.042  0.8251  0.1096  0.5318
10907TIP3    H154212   0.714   1.538   6.077 -0.6987 -1.4792  2.2678
10907TIP3    H254213   0.808   1.427   6.118 -1.1976 -2.4809  0.7740
10908TIP3   OH254214   6.410   3.595  16.655  0.4952  0.6735  0.0497
10908TIP3    H154215   6.479   3.642  16.702  2.3215 -0.9656 -0.8584
10908TIP3    H254216   6.351   3.663  16.624  1.5703  2.1202  1.0582
10909TIP3   OH254217   6.467   4.018  13.059 -0.2323  0.1924  0.0130
10909TIP3    H154218   6.446   4.052  12.972  2.1135  1.1227 -0.2423
10909TIP3    H254219   6.497   3.929  13.043  0.6505  0.5199 -0.2185
10910TIP3   OH254220   5.511   6.672  12.980 -0.1351  0.7265  0.0300
10910TIP3    H154221   5.548   6.648  13.064 -0.5862 -0.0212  0.0266
10910TIP3    H254222   5.416   6.677  12.996 -0.5460 -2.0444 -0.9837
10911TIP3   OH254223   1.488   4.950   3.533  0.2092  0.2970 -0.3288
10911TIP3    H154224   1.472   5.026   3.476 -0.7119 -0.6284 -1.3549
10911TIP3    H254225   1.412   4.894   3.520  1.5209 -1.4912 -0.7352
10912TIP3   OH254226   5.202   0.242  13.463  0.3713 -0.1751  0.6982
10912TIP3    H154227   5.198   0.248  13.559  1.0635  1.6517  0.6586
10912TIP3    H254228   5.114   0.263  13.434  0.6983  1.6797  0.9048
10913TIP3   OH254229   5.647   0.793  11.570 -0.2783  0.0096 -0.0301
10913TIP3    H154230   5.639   0.849  11.493  2.3962  1.2366  0.4823
10913TIP3    H254231   5.642   0.852  11.644  2.0730 -0.4274  0.5448
10914TIP3   OH254232   2.954   1.546   5.572  0.7932  0.1142  0.3233
10914TIP3    H154233   3.036   1.580   5.536  0.0890  1.2109 -0.3354
10914TIP3    H254234   2.907   1.511   5.497  0.1527  0.6105  0.4764
10915TIP3   OH254235   4.219   4.560  16.660 -0.1002  0.3207  0.4037
10915TIP3    H154236   4.262   4.507  16.593 -0.1277  0.4896  0.2509
10915TIP3    H254237   4.237   4.515  16.742 -0.2472 -0.0035  0.2573
10916TIP3   OH254238   4.867   5.923  16.474 -0.1151  0.1028 -0.7271
10916TIP3    H154239   4.895   5.842  16.517 -1.3983  0.0499  0.0747
10916TIP3    H254240   4.840   5.896  16.387 -2.6075 -0.7923  0.2190
10917TIP3   OH254241   2.565   4.054   4.188 -0.4070 -0.7036 -0.1026
10917TIP3    H154242   2.592   3.984   4.129 -2.3975 -0.1291 -1.8341
10917TIP3    H254243   2.470   4.056   4.181 -0.6301  0.3233  2.1305
10918TIP3   OH254244   2.316   4.100   1.826 -0.3218  0.0778 -0.0567
10918TIP3    H154245   2.390   4.085   1.886 -1.1236  1.9258  1.5041
10918TIP3    H254246   2.246   4.046   1.862 -0.4006  0.1215 -0.1465
10919TIP3   OH254247   6.324   0.258   2.588 -0.7747 -0.5936  0.7830
10919TIP3    H154248   6.383   0.208   2.532 -1.8845  1.0099 -2.0465
10919TIP3    H254249   6.237   0.242   2.552 -1.3088  2.2038  0.5691
10920TIP3   OH254250   2.878   0.427  11.627  0.1753 -0.7113  0.0666
10920TIP3    H154251   2.880   0.489  11.700  2.2082  2.7399 -2.5938
10920TIP3    H254252   2.788   0.396  11.625 -0.1784 -0.2972  3.4140
10921TIP3   OH254253   3.956   4.452   4.711 -0.2436 -0.3684 -0.3081
10921TIP3    H154254   4.023   4.441   4.644  2.2373  1.8550  1.5488
10921TIP3    H254255   3.976   4.386   4.777  0.1333  0.2368  0.2045
10922TIP3   OH254256   6.443   4.668  15.572 -0.1641  0.1861  0.5968
10922TIP3    H154257   6.367   4.708  15.530  0.1425  1.6955  1.4184
10922TIP3    H254258   6.448   4.709  15.658  1.2653 -0.2861  0.7764
10923TIP3   OH254259   1.124   3.195  11.125  0.0924  0.0596  0.0886
10923TIP3    H154260   1.173   3.277  11.110 -0.2124  0.0184 -1.2437
10923TIP3    H254261   1.189   3.126  11.113  0.6774  0.0909  2.5451
10924TIP3   OH254262   2.121   4.609  16.581 -0.5517 -0.0975 -0.4343
10924TIP3    H154263   2.096   4.517  16.570  0.7907 -0.4721 -0.5153
10924TIP3    H254264   2.112   4.625  16.675  1.3487 -1.0059 -0.0439
10925TIP3   OH254265   3.193   1.315   3.756  0.2806 -0.1552 -0.0783
10925TIP3    H154266   3.186   1.363   3.838  0.1627  0.5936 -0.5225
10925TIP3    H254267   3.104   1.286   3.737  0.7075 -3.0041  1.6032
10926TIP3   OH254268   1.042   0.773   2.988 -0.3141 -0.0544 -0.5110
10926TIP3    H154269   1.060   0.771   2.894  1.4592  0.2610 -0.2179
10926TIP3    H254270   1.034   0.866   3.009 -0.6205 -0.1196 -0.3335
10927TIP3   OH254271   0.294   1.544  15.436 -0.2256  0.0987  0.5564
10927TIP3    H154272   0.287   1.453  15.462  1.5827 -0.4443 -0.7323
10927TIP3    H254273   0.387   1.559  15.423 -0.5533  1.9340  0.0356
10928TIP3   OH254274   0.134   5.701  13.623  0.2385 -0.6881  0.2373
10928TIP3    H154275   0.044   5.728  13.608  0.0241 -1.2559  0.4802
10928TIP3    H254276   0.154   5.729  13.712  1.1416  1.6734 -0.6259
10929TIP3   OH254277   1.168   6.027   2.599 -0.1532 -0.7112  0.4923
10929TIP3    H154278   1.238   6.029   2.664 -0.6924 -0.1179  1.0581
10929TIP3    H254279   1.183   6.104   2.545 -1.1243  0.1527  1.4231
10930TIP3   OH254280   4.625   1.242  17.048 -0.0914 -0.6847  0.0315
10930TIP3    H154281   4.552   1.224  16.990  1.0277  2.2214 -2.5639
10930TIP3    H254282   4.703   1.216  16.998  0.8481  0.1323  1.0029
10931TIP3   OH254283   5.797   5.777  11.950 -0.0434  0.3221  0.0916
10931TIP3    H154284   5.738   5.770  11.875  0.0570  0.5369 -0.0105
10931TIP3    H254285   5.743   5.753  12.026 -0.4504  1.1319  0.0763
10932TIP3   OH254286   0.171   5.633  15.476 -0.6330 -0.3128 -0.1886
10932TIP3    H154287   0.112   5.571  15.520 -1.1800  0.3179 -0.0152
10932TIP3    H254288   0.257   5.593  15.483 -0.6035  0.0399  1.9919
10933TIP3   OH254289   6.177   2.489  16.524 -0.1823 -0.1440 -0.8219
10933TIP3    H154290   6.097   2.517  16.481  0.2918  1.7036 -0.5709
10933TIP3    H254291   6.154   2.405  16.564 -2.0797  0.4543 -0.5427
10934TIP3   OH254292   0.505   1.155   3.919  0.6246  0.1329 -0.2568
10934TIP3    H154293   0.552   1.141   4.001  0.0717  0.0441  0.0449
10934TIP3    H254294   0.547   1.095   3.857 -0.1704 -1.1758  0.4305
10935TIP3   OH254295   0.363   0.499   1.466 -0.4199 -0.3496  0.4136
10935TIP3    H154296   0.299   0.430   1.449 -0.5322 -0.1502  0.0197
10935TIP3    H254297   0.445   0.453   1.485  0.1863 -0.5942 -2.4099
10936TIP3   OH254298   2.608   3.688  17.059 -0.4340 -0.7719 -0.3000
10936TIP3    H154299   2.633   3.617  17.001  0.9837  1.1541 -2.2060
10936TIP3    H254300   2.681   3.697  17.120 -0.4984 -0.8197 -0.2163
10937TIP3   OH254301   0.856   2.943  12.356 -0.4395  0.1147 -0.2224
10937TIP3    H154302   0.796   2.971  12.287  0.3077 -2.0082 -1.8716
10937TIP3    H254303   0.857   2.847  12.348 -0.5579 -0.2499  2.9968
10938TIP3   OH254304   3.785   2.462  12.279  0.0837 -0.2095 -0.2651
10938TIP3    H154305   3.786   2.552  12.246  0.0138  1.2141  3.1924
10938TIP3    H254306   3.697   2.451  12.315  0.2670 -1.4966 -0.1849
10939TIP3   OH254307   4.139   6.442   1.440  0.6641  0.6230  0.1941
10939TIP3    H154308   4.077   6.380   1.401  2.2492 -0.8664 -0.1156
10939TIP3    H254309   4.200   6.387   1.490  2.0966  1.9266 -0.0322
10940TIP3   OH254310   5.727   3.656  14.640 -0.8078  0.1506 -0.4464
10940TIP3    H154311   5.686   3.725  14.693  0.4294  2.1360 -1.9352
10940TIP3    H254312   5.689   3.666  14.553 -2.6121 -2.8902 -0.1240
10941TIP3   OH254313   4.688   1.939   0.190 -0.0543  0.1102 -0.2741
10941TIP3    H154314   4.616   1.893   0.148 -0.9510  0.2216  1.0833
10941TIP3    H254315   4.695   1.899   0.277  0.8954  0.7514 -0.0343
10942TIP3   OH254316   5.994   1.565   2.081  0.1705 -0.1887 -0.3775
10942TIP3    H154317   5.994   1.595   2.172 -0.4747 -1.3016  0.0011
10942TIP3    H254318   5.987   1.646   2.030  0.7900  0.4674  0.5372
10943TIP3   OH254319   6.733   0.076  15.624 -0.2371 -0.1597 -0.2480
10943TIP3    H154320   6.645   0.062  15.659 -0.4403  0.3309 -0.5411
10943TIP3    H254321   6.736   0.170  15.604 -0.0868 -0.3903 -1.4084
10944TIP3   OH254322   2.509   5.346  13.528  1.1186  0.1087 -0.5179
10944TIP3    H154323   2.590   5.361  13.479  1.2656  1.8437  0.1978
10944TIP3    H254324   2.443   5.398  13.482  0.8773  0.3762  0.1223
10945TIP3   OH254325   4.129   4.387  15.089 -0.3896  0.7808 -0.6565
10945TIP3    H154326   4.181   4.423  15.161 -0.1298 -0.8122 -0.0110
10945TIP3    H254327   4.062   4.454  15.072  0.6454  1.9817 -0.1759
10946TIP3   OH254328   6.625   2.048  13.082 -0.6336  0.0196 -0.3267
10946TIP3    H154329   6.553   2.082  13.136  0.2062  1.9832 -0.3239
10946TIP3    H254330   6.665   1.980  13.136 -1.3555  0.1927  0.4536
10947TIP3   OH254331   2.247   1.276   3.484 -0.0744 -0.5982 -0.3924
10947TIP3    H154332   2.327   1.241   3.523  1.5460  2.8120 -0.2784
10947TIP3    H254333   2.183   1.277   3.556  0.2221 -2.0067 -0.0944
10948TIP3   OH254334   5.974   2.074  14.596  0.3692 -0.0705 -0.2602
10948TIP3    H154335   6.011   2.161  14.606 -0.5016  0.1991  0.9031
10948TIP3    H254336   5.882   2.089  14.572 -0.0040 -0.6272  0.7459
10949TIP3   OH254337   2.611   5.937  14.291  0.5755  0.1026  0.1151
10949TIP3    H154338   2.599   5.844  14.311  0.6959  0.2357  0.8254
10949TIP3    H254339   2.554   5.982  14.353  0.6550  0.5113 -0.1070
10950TIP3   OH254340   1.742   6.141  14.044  0.5743 -0.1364 -0.0989
10950TIP3    H154341   1.748   6.124  13.950 -1.5107  0.4336 -0.3781
10950TIP3    H254342   1.832   6.161  14.070  0.9433  1.4580 -2.3250
10951TIP3   OH254343   1.783   6.357   4.765  0.7775  0.0248  0.1883
10951TIP3    H154344   1.826   6.442   4.753  0.9872 -0.0919  0.0933
10951TIP3    H254345   1.690   6.378   4.775  0.9624  0.3508  1.3139
10952TIP3   OH254346   5.885   1.764   0.211  0.2108  0.0728 -0.1494
10952TIP3    H154347   5.909   1.752   0.303 -0.8307 -1.7613 -0.0624
10952TIP3    H254348   5.793   1.791   0.213  1.0874  3.5861 -0.5980
10953TIP3   OH254349   4.819   5.541  17.210 -0.3178  0.0085 -0.1138
10953TIP3    H154350   4.804   5.460  17.162 -1.9331  0.4745 -0.4681
10953TIP3    H254351   4.867   5.597  17.149 -0.1825 -0.2857 -0.2773
10954TIP3   OH254352   0.446   1.660  15.008 -0.3327  0.6822  0.1730
10954TIP3    H154353   0.393   1.739  15.017 -0.3416  0.7129 -0.1379
10954TIP3    H254354   0.491   1.652  15.092 -1.5520  0.1275  0.7937
10955TIP3   OH254355   1.324   4.396  14.481 -0.0072 -0.1225  0.1012
10955TIP3    H154356   1.254   4.337  14.507  0.1558 -0.2068  0.3472
10955TIP3    H254357   1.390   4.340  14.440  1.1440 -0.4470  2.2753
10956TIP3   OH254358   2.348   0.930   1.115  0.3696  0.6348  0.4988
10956TIP3    H154359   2.351   0.989   1.190  1.7081  1.6817 -0.3317
10956TIP3    H254360   2.429   0.880   1.121 -1.1613 -1.8986  1.7261
10957TIP3   OH254361   3.558   5.850   2.805  0.0493 -0.2535  1.3373
10957TIP3    H154362   3.604   5.776   2.764 -0.2356 -1.3394  2.8781
10957TIP3    H254363   3.623   5.921   2.805  1.4972 -1.4988  2.7057
10958TIP3   OH254364   4.596   3.159  13.265 -0.3657  0.3509  0.2598
10958TIP3    H154365   4.523   3.150  13.326  0.6325 -0.0699  1.4240
10958TIP3    H254366   4.554   3.175  13.180 -1.8008  0.1135  0.8924
10959TIP3   OH254367   4.615   2.052  12.192  0.5586 -0.1482 -0.4450
10959TIP3    H154368   4.695   2.103  12.206  0.4371 -0.0029 -0.2675
10959TIP3    H254369   4.639   1.962  12.214  0.2019  0.1738  1.3978
10960TIP3   OH254370   5.562   5.514   1.630  0.0576  0.1401 -0.2383
10960TIP3    H154371   5.565   5.532   1.724  0.6433 -1.1177  0.0082
10960TIP3    H254372   5.605   5.590   1.590  1.8668 -0.3215  0.6978
10961TIP3   OH254373   2.319   6.346   3.678  0.1122 -0.1944  0.2611
10961TIP3    H154374   2.228   6.335   3.708 -0.6886  0.0747 -1.9073
10961TIP3    H254375   2.348   6.257   3.659 -1.5045 -0.0582 -3.7705
10962TIP3   OH254376   6.766   3.514   5.931  0.0289 -0.1784  0.1187
10962TIP3    H154377   6.823   3.461   5.987  1.0152  1.1142  0.3833
10962TIP3    H254378   6.825   3.553   5.866 -0.5448  1.1217  0.3468
10963TIP3   OH254379   2.348   3.821   1.680  0.4262 -0.3234  0.6092
10963TIP3    H154380   2.356   3.902   1.731  2.0584 -0.9065  1.3574
10963TIP3    H254381   2.349   3.752   1.745 -0.6467 -0.9852 -0.0468
10964TIP3   OH254382   2.146   3.778  11.534  0.1688  0.9353 -0.1248
10964TIP3    H154383   2.201   3.837  11.585 -0.4895  2.2924 -0.9382
10964TIP3    H254384   2.149   3.812  11.445 -0.0238 -0.4253 -0.6844
10965TIP3   OH254385   0.710   1.942   5.190 -0.2665 -0.1881 -0.3061
10965TIP3    H154386   0.724   2.032   5.217 -2.0903 -0.3377  1.3226
10965TIP3    H254387   0.778   1.926   5.125 -0.0523  2.4158 -0.8339
10966TIP3   OH254388   6.690   0.338   1.762 -0.2162 -0.0631 -0.0985
10966TIP3    H154389   6.726   0.249   1.758 -0.4947 -0.1819  0.0034
10966TIP3    H254390   6.631   0.343   1.686  0.3100  0.2647 -0.4979
10967TIP3   OH254391   3.137   1.998  10.816 -0.2287  0.3789 -0.3673
10967TIP3    H154392   3.231   2.008  10.800 -0.3239  0.1384 -1.1069
10967TIP3    H254393   3.115   2.072  10.873  0.5322  0.0674  0.3514
10968TIP3   OH254394   0.169   1.088  11.869 -0.4682 -0.7328  0.1349
10968TIP3    H154395   0.080   1.118  11.887  0.1531  1.2581  0.1460
10968TIP3    H254396   0.196   1.140  11.793  1.0589 -0.4944  0.8096
10969TIP3   OH254397   3.803   2.904  14.422 -0.3597  0.2495 -0.2666
10969TIP3    H154398   3.719   2.899  14.469 -1.3318  0.0598 -1.9624
10969TIP3    H254399   3.779   2.921  14.331  1.4874  0.7915 -0.6917
10970TIP3   OH254400   6.141   0.982   5.780  0.4880 -0.4825  0.3385
10970TIP3    H154401   6.139   1.070   5.819  0.7943 -0.9889  1.5403
10970TIP3    H254402   6.212   0.986   5.717  1.1985 -0.1576  1.1352
10971TIP3   OH254403   1.711   6.766  12.311  0.6070 -0.2362  0.1291
10971TIP3    H154404   1.765   6.743  12.386 -2.0605 -0.6976  2.0536
10971TIP3    H254405   1.731   6.700  12.245  1.3998 -1.1508  1.2582
10972TIP3   OH254406   4.977   0.176   1.017 -0.0493 -0.2116 -0.4629
10972TIP3    H154407   4.969   0.081   1.020  0.3083 -0.2393 -0.3708
10972TIP3    H254408   4.895   0.208   1.056 -1.1094 -0.4437 -2.3481
10973TIP3   OH254409   0.804   4.734  10.800 -0.2798 -0.1385  0.5276
10973TIP3    H154410   0.790   4.827  10.788 -1.9179 -0.5081 -0.7436
10973TIP3    H254411   0.892   4.727  10.837 -0.6480  1.9694  1.9422
10974TIP3   OH254412   5.036   3.212  11.952 -0.3180 -0.3901  0.1961
10974TIP3    H154413   5.129   3.215  11.973 -0.2335  1.6847 -0.3422
10974TIP3    H254414   5.028   3.142  11.887  0.4461 -2.2177  1.9316
10975TIP3   OH254415   2.229   5.598   1.405 -0.0516  0.6418 -0.1896
10975TIP3    H154416   2.255   5.513   1.369 -1.9398  0.1832 -0.5493
10975TIP3    H254417   2.146   5.618   1.362 -0.8740  1.5006  1.6901
10976TIP3   OH254418   3.642   5.661  10.754  0.1209 -0.9229 -0.2909
10976TIP3    H154419   3.723   5.668  10.704  0.0112 -1.5915 -0.5677
10976TIP3    H254420   3.658   5.590  10.816  0.7699  0.7785  1.6338
10977TIP3   OH254421   4.503   1.852  11.525  0.4042 -0.0085  0.0210
10977TIP3    H154422   4.573   1.908  11.559  2.1585 -1.3089 -1.2803
10977TIP3    H254423   4.456   1.908  11.464  1.1464  0.5123 -0.0971
10978TIP3   OH254424   4.435   2.537   0.284  0.1924  0.1600  0.4718
10978TIP3    H154425   4.468   2.617   0.244 -1.5073  0.8544  0.3958
10978TIP3    H254426   4.461   2.543   0.375  1.8574 -0.2161  0.0614
10979TIP3   OH254427   4.859   0.964   2.608  0.3336 -0.7688  0.0190
10979TIP3    H154428   4.886   1.055   2.600  1.2094 -0.8869  1.2879
10979TIP3    H254429   4.893   0.922   2.529 -0.2159  0.0215 -0.6485
10980TIP3   OH254430   4.840   2.757  14.591  0.3674  0.0236  0.9526
10980TIP3    H154431   4.803   2.838  14.556  1.0978  0.1204  0.3770
10980TIP3    H254432   4.854   2.702  14.513 -0.9698 -1.0372  1.3995
10981TIP3   OH254433   2.252   5.314   1.578 -0.0216  0.1336 -0.0363
10981TIP3    H154434   2.255   5.395   1.629  1.8835 -0.6679  1.2404
10981TIP3    H254435   2.158   5.296   1.566 -0.5692  0.6532  2.7666
10982TIP3   OH254436   6.303   4.463   3.407 -0.2910 -0.1380 -0.6388
10982TIP3    H154437   6.337   4.473   3.496 -0.4193  4.6686 -0.8483
10982TIP3    H254438   6.342   4.382   3.375  2.1138 -0.5566  2.7806
10983TIP3   OH254439   0.227   5.169   2.965  0.3438  0.2002  0.0214
10983TIP3    H154440   0.136   5.197   2.964  0.3722  0.3613  0.8675
10983TIP3    H254441   0.233   5.111   3.041  0.9572  0.2485  0.0143
10984TIP3   OH254442   0.580   0.522   4.367 -0.0825  0.2465 -0.2849
10984TIP3    H154443   0.665   0.480   4.354  0.7009  1.1332  1.6442
10984TIP3    H254444   0.528   0.493   4.292  0.9711 -2.6617 -0.0247
10985TIP3   OH254445   0.245   6.458  16.258  0.3574 -0.4098 -0.0693
10985TIP3    H154446   0.277   6.526  16.317  0.0118  1.1361 -1.5630
10985TIP3    H254447   0.271   6.376  16.299 -0.4575  0.5271  2.5346
10986TIP3   OH254448   1.695   0.369  16.796 -0.9372 -0.2299 -0.2369
10986TIP3    H154449   1.616   0.409  16.760 -0.5422  0.0128 -0.8546
10986TIP3    H254450   1.674   0.350  16.887 -0.8076  2.2948  0.3730
10987TIP3   OH254451   2.755   6.613  13.591 -0.3092 -0.8068  0.3552
10987TIP3    H154452   2.736   6.577  13.505 -1.4414 -1.8929  1.0374
10987TIP3    H254453   2.704   6.694  13.596  1.2422  0.3001 -0.6836
10988TIP3   OH254454   5.621   5.758   1.455 -0.2765 -0.7927  0.4983
10988TIP3    H154455   5.659   5.826   1.510 -0.9032 -0.8731  1.0394
10988TIP3    H254456   5.612   5.799   1.369 -0.0468 -0.4106  0.6526
10989TIP3   OH254457   3.207   3.849  12.722  0.0180 -0.4009  1.1170
10989TIP3    H154458   3.178   3.900  12.798  2.7187  0.5542  1.6149
10989TIP3    H254459   3.280   3.899  12.685 -0.1726 -1.6534 -1.1701
10990TIP3   OH254460   5.249   6.258   6.696 -0.0406  0.0257  0.1990
10990TIP3    H154461   5.236   6.353   6.707 -0.4928 -0.1007  0.7902
10990TIP3    H254462   5.160   6.222   6.698 -0.1741 -0.1219 -3.0351
10991TIP3   OH254463   3.945   6.520   0.474 -0.2278  0.6077  0.6028
10991TIP3    H154464   4.028   6.505   0.520  0.8656 -0.4758 -1.5880
10991TIP3    H254465   3.965   6.588   0.410 -0.7567 -0.3163 -0.5713
10992TIP3   OH254466   5.303   0.328   3.835  0.0229 -0.1155  0.3868
10992TIP3    H154467   5.262   0.252   3.877  0.7515 -0.9216 -0.3440
10992TIP3    H254468   5.334   0.381   3.909  0.0769 -0.8376  0.8967
10993TIP3   OH254469   3.217   2.185   1.849 -0.5190 -0.6258 -0.6483
10993TIP3    H154470   3.139   2.190   1.793  0.4223  1.0052 -1.9209
10993TIP3    H254471   3.194   2.237   1.926 -0.4293  0.5838 -1.4050
10994TIP3   OH254472   5.245   2.227  13.375 -0.0795 -0.1792  0.4640
10994TIP3    H154473   5.158   2.209  13.412 -0.6512  0.5667 -0.4370
10994TIP3    H254474   5.245   2.322  13.363  1.7616  0.1455  2.5662
10995TIP3   OH254475   6.099   0.121  12.242 -0.0010  0.1775  0.3911
10995TIP3    H154476   6.127   0.036  12.208 -0.3967 -0.3752  1.3996
10995TIP3    H254477   6.009   0.107  12.271  0.2908  0.6215  1.5885
10996TIP3   OH254478   2.808   6.507  16.229 -0.5191 -0.2521  0.4112
10996TIP3    H154479   2.730   6.557  16.255  0.5895  1.6710  0.1956
10996TIP3    H254480   2.799   6.495  16.135  0.5435  2.0633 -0.0349
10997TIP3   OH254481   1.613   6.819  14.228  0.2084  0.0685 -0.3548
10997TIP3    H154482   1.616   6.779  14.140  1.2163 -1.2581  0.2496
10997TIP3    H254483   1.658   6.756  14.284 -0.8210  0.6749  1.2156
10998TIP3   OH254484   0.926   5.285   2.354  0.3288  0.3981  0.3430
10998TIP3    H154485   0.862   5.354   2.344  0.3991  0.3090 -0.9189
10998TIP3    H254486   0.901   5.239   2.434 -1.2139  0.3356 -0.1511
10999TIP3   OH254487   5.028   1.727  14.500  0.2143 -0.2819 -0.0612
10999TIP3    H154488   5.115   1.692  14.519  0.0966  0.3154  1.7359
10999TIP3    H254489   4.995   1.757  14.584 -1.2747  0.5703 -0.9018
11000TIP3   OH254490   4.607   3.159   3.267  0.3736  0.2987  0.3232
11000TIP3    H154491   4.577   3.230   3.210 -1.3350 -0.2696  0.4611
11000TIP3    H254492   4.634   3.090   3.208 -0.5455  0.0522  0.1741
11001TIP3   OH254493   0.394   0.227  17.100  0.4704 -0.4999  0.1053
11001TIP3    H154494   0.486   0.230  17.075  0.4542  0.5561  0.1278
11001TIP3    H254495   0.384   0.297  17.165 -0.6519  0.4694 -1.0526
11002TIP3   OH254496   5.813   5.929  11.010  0.3096  0.0978 -0.0072
11002TIP3    H154497   5.752   5.996  11.040 -0.0580 -0.7539  1.2041
11002TIP3    H254498   5.816   5.941  10.915 -2.1938 -0.1861 -0.1934
11003TIP3   OH254499   5.235   5.142  10.865  0.0970 -0.2037  0.4434
11003TIP3    H154500   5.275   5.141  10.778  1.7783  1.2911  1.1630
11003TIP3    H254501   5.213   5.233  10.881 -0.0288 -0.4330  1.6686
11004TIP3   OH254502   1.030   2.531  13.992 -0.8428  0.2438  0.3960
11004TIP3    H154503   1.092   2.473  13.947 -0.7093 -0.3457  1.3098
11004TIP3    H254504   1.041   2.616  13.949  1.7954  0.6063  1.5898
11005TIP3   OH254505   0.094   5.036  16.850 -0.1597 -0.5517 -0.2629
11005TIP3    H154506  -0.002   5.039  16.847 -0.2140  1.3085  1.5036
11005TIP3    H254507   0.121   5.128  16.841  1.2714 -0.6207  2.3155
11006TIP3   OH254508   5.042   2.047  13.133 -0.0900 -0.2225 -0.9787
11006TIP3    H154509   5.121   2.022  13.181 -0.0439  0.9278 -0.4231
11006TIP3    H254510   5.038   2.142  13.141  0.5429  0.2000 -4.2246
11007TIP3   OH254511   0.042   4.704  12.981 -0.2087 -0.4006  0.3019
11007TIP3    H154512   0.101   4.779  12.971 -1.6579  0.6547 -0.6655
11007TIP3    H254513   0.082   4.634  12.929  0.0716  0.3778 -0.5434
11008TIP3   OH254514   4.440   0.376   4.831 -0.5938 -0.4664 -0.0316
11008TIP3    H154515   4.531   0.374   4.859 -0.3514  2.1553 -0.3588
11008TIP3    H254516   4.403   0.294   4.864  1.6091 -1.1526  0.9584
11009TIP3   OH254517   6.108   6.793   0.975  0.2704  0.0827  0.3529
11009TIP3    H154518   6.170   6.824   1.041 -0.0961  0.5709  0.4754
11009TIP3    H254519   6.022   6.809   1.013  0.0627 -0.2366  0.0264
11010TIP3   OH254520   0.928   3.524   3.728 -0.2474  0.3651  0.2540
11010TIP3    H154521   0.911   3.484   3.643  0.4586 -0.6117  0.5485
11010TIP3    H254522   0.843   3.560   3.755 -0.2399  1.6939 -1.3383
11011TIP3   OH254523   1.983   2.528   4.770  0.4363  0.6307  0.7477
11011TIP3    H154524   1.946   2.503   4.685 -0.5313  1.1126  1.0159
11011TIP3    H254525   2.039   2.454   4.794  3.6736  1.9283 -1.9524
11012TIP3   OH254526   2.766   5.314  15.305  0.5956  0.0832  0.4710
11012TIP3    H154527   2.824   5.389  15.319  1.1183 -0.1048 -0.5902
11012TIP3    H254528   2.780   5.258  15.382  0.7919  0.6930  0.8861
11013TIP3   OH254529   6.122   0.467  12.111 -0.0116  0.0783 -0.5015
11013TIP3    H154530   6.148   0.554  12.142  1.7604 -0.5951  0.0492
11013TIP3    H254531   6.048   0.443  12.168  1.7876 -0.2298  1.8674
11014TIP3   OH254532   1.636   1.822   0.330  0.0728 -0.0288 -0.0802
11014TIP3    H154533   1.542   1.825   0.347 -0.0391 -0.6159 -0.5417
11014TIP3    H254534   1.648   1.741   0.280  0.8106  0.0900 -0.1030
11015TIP3   OH254535   0.417   1.418   1.546 -0.2363 -0.3035 -0.3122
11015TIP3    H154536   0.413   1.403   1.641  3.7765  0.4034  0.1245
11015TIP3    H254537   0.491   1.366   1.517 -0.6677  0.4225 -2.9198
11016TIP3   OH254538   5.272   3.653  10.805 -0.3785  0.3922  0.0037
11016TIP3    H154539   5.318   3.638  10.722 -1.1213  0.7722 -0.4861
11016TIP3    H254540   5.198   3.592  10.803 -0.6970  0.7688  0.1461
11017TIP3   OH254541   4.613   4.455   4.358  0.7930 -0.1039 -0.0112
11017TIP3    H154542   4.535   4.399   4.370  1.1198 -0.1094  2.4860
11017TIP3    H254543   4.668   4.436   4.433  2.2536  1.5098 -0.6110
11018TIP3   OH254544   6.674   0.472  11.487  0.1053 -0.2699  0.1744
11018TIP3    H154545   6.654   0.523  11.408 -0.6790  0.1316  0.6239
11018TIP3    H254546   6.657   0.381  11.461  0.8512 -0.2491 -0.4244
11019TIP3   OH254547   4.565   6.264  10.990 -0.4876 -0.1778  0.2682
11019TIP3    H154548   4.495   6.215  10.946 -1.1806  0.6887  0.3790
11019TIP3    H254549   4.588   6.333  10.928 -0.0352 -0.1852  0.4236
11020TIP3   OH254550   2.149   3.450   0.836 -0.3624  0.2953 -0.3790
11020TIP3    H154551   2.089   3.438   0.909  2.4727 -1.1905  1.9555
11020TIP3    H254552   2.171   3.361   0.808  1.0322  0.7537 -0.8509
11021TIP3   OH254553   5.555   6.107  16.232  0.5789  0.2774 -0.4663
11021TIP3    H154554   5.509   6.190  16.248  0.2745 -0.0785  0.5246
11021TIP3    H254555   5.641   6.119  16.271  0.6425  0.2274 -0.5870
11022TIP3   OH254556   4.964   2.886   6.142 -0.0659  0.0492  0.3795
11022TIP3    H154557   4.938   2.795   6.154 -0.2689  0.2618  1.6837
11022TIP3    H254558   5.037   2.882   6.081 -1.6065 -0.7718 -1.5169
11023TIP3   OH254559   2.326   1.301   3.773  0.7285  0.0657 -0.2451
11023TIP3    H154560   2.385   1.367   3.737  1.1994 -1.6689 -2.9488
11023TIP3    H254561   2.238   1.336   3.758  0.9812  0.3985 -1.0108
11024TIP3   OH254562   2.253   2.277  15.330  0.2600  0.8676 -0.6484
11024TIP3    H154563   2.251   2.230  15.413  0.3406  0.2490 -0.9936
11024TIP3    H254564   2.301   2.220  15.271 -0.8746  0.7174 -1.4706
11025TIP3   OH254565   2.651   4.180   4.976  0.1128 -0.3980 -1.0476
11025TIP3    H154566   2.721   4.117   4.995  0.4756  0.5078  0.8243
11025TIP3    H254567   2.618   4.206   5.062 -0.7900  1.1230 -1.8134
11026TIP3   OH254568   1.197   0.423   3.528 -0.2844  0.4245  0.2445
11026TIP3    H154569   1.235   0.397   3.612  0.5049  1.0004  0.0789
11026TIP3    H254570   1.228   0.356   3.466 -1.5120 -0.4562  0.5255
11027TIP3   OH254571   1.655   5.348   4.642 -0.3228  0.0062  0.0336
11027TIP3    H154572   1.562   5.368   4.645 -0.1853  0.8492 -1.0871
11027TIP3    H254573   1.699   5.433   4.639  0.4421 -0.3941 -0.5186
11028TIP3   OH254574   5.629   2.725   4.083  0.3812 -0.2425  0.2399
11028TIP3    H154575   5.576   2.733   4.163  0.6059 -0.9305  0.4602
11028TIP3    H254576   5.671   2.639   4.090  1.2973  0.1694 -0.0794
11029TIP3   OH254577   1.966   6.110  13.032  0.9348  0.2955 -0.4185
11029TIP3    H154578   1.908   6.171  12.985 -0.1458  1.2535  1.9908
11029TIP3    H254579   1.906   6.044  13.068  1.6718 -0.2113 -0.1124
11030TIP3   OH254580   6.169   0.428  11.554 -0.0076 -0.4801  0.1341
11030TIP3    H154581   6.133   0.475  11.629 -1.1590 -1.0275 -0.0587
11030TIP3    H254582   6.233   0.489  11.517 -0.1080  0.1771  0.9939
11031TIP3   OH254583   5.853   1.229   4.406  0.0721  0.0815 -0.6354
11031TIP3    H154584   5.897   1.224   4.491 -0.1929 -0.1897 -0.5126
11031TIP3    H254585   5.843   1.138   4.378 -0.1864  0.1506 -0.7765
11032TIP3   OH254586   6.606   6.364   4.075 -0.4499  0.2202  0.0331
11032TIP3    H154587   6.605   6.286   4.130 -0.6158  1.8085  2.4294
11032TIP3    H254588   6.528   6.413   4.101 -0.3536  1.1977 -1.4154
11033TIP3   OH254589   3.369   2.986  11.595  0.2802  1.2063  0.4055
11033TIP3    H154590   3.343   3.076  11.612  0.4667  1.6012 -1.2505
11033TIP3    H254591   3.437   2.993  11.528  1.5958 -0.0699  1.5236
11034TIP3   OH254592   3.715   2.929   6.079  0.0111  0.9392  0.2259
11034TIP3    H154593   3.692   2.916   6.171 -0.6058 -0.7959 -0.1301
11034TIP3    H254594   3.798   2.883   6.068 -0.4704  0.1642 -0.3092
11035TIP3   OH254595   4.419   3.893   2.523 -0.1604 -0.3523 -0.1888
11035TIP3    H154596   4.493   3.896   2.463  1.2596 -0.6168  1.4864
11035TIP3    H254597   4.344   3.870   2.467  1.2021 -1.2366 -1.7498
11036TIP3   OH254598   2.909   4.549   2.478 -0.1401  0.5693  0.3847
11036TIP3    H154599   2.843   4.540   2.408 -0.2908  0.4787  0.5383
11036TIP3    H254600   2.907   4.465   2.524  0.3254  0.4456  0.1818
11037TIP3   OH254601   2.004   5.613  13.889 -0.3460 -0.0643  0.0556
11037TIP3    H154602   2.027   5.624  13.797 -0.5154 -0.4012 -0.0309
11037TIP3    H254603   1.960   5.694  13.913  0.0140  0.1672 -0.0626
11038TIP3   OH254604   2.640   2.514   3.083  0.2229 -0.8717  0.0403
11038TIP3    H154605   2.556   2.545   3.116 -0.2834 -1.9147 -0.2327
11038TIP3    H254606   2.645   2.422   3.111  0.4662 -1.3427 -1.4519
11039TIP3   OH254607   0.566   6.320  13.830  0.5227  0.1636 -0.2776
11039TIP3    H154608   0.542   6.391  13.769  0.2414  0.6306  0.3600
11039TIP3    H254609   0.483   6.297  13.873  0.0301 -2.4312 -2.3553
11040TIP3   OH254610   2.619   5.799  13.560 -0.7796 -0.1306  0.3413
11040TIP3    H154611   2.656   5.881  13.591 -0.4882 -0.1223 -0.0107
11040TIP3    H254612   2.631   5.803  13.465 -0.5904 -0.6596  0.3406
11041TIP3   OH254613   3.860   1.079   1.827  0.2166 -0.0880 -0.2974
11041TIP3    H154614   3.789   1.015   1.831  0.3885 -0.2272  1.9769
11041TIP3    H254615   3.822   1.155   1.782 -0.8005 -0.8153 -0.7035
11042TIP3   OH254616   3.150   3.128   5.102  0.7088 -0.2043  0.3469
11042TIP3    H154617   3.080   3.191   5.084  0.3199 -0.3786  1.1631
11042TIP3    H254618   3.126   3.050   5.052 -0.9347 -1.0717  2.3244
11043TIP3   OH254619   2.264   4.761   5.866  0.3528 -0.4518  0.3945
11043TIP3    H154620   2.246   4.855   5.872  1.2702  0.0881 -2.9642
11043TIP3    H254621   2.193   4.727   5.812  1.4417 -1.1211 -0.6687
11044TIP3   OH254622   0.490   5.441   0.736 -0.3530 -0.2226  0.0324
11044TIP3    H154623   0.522   5.405   0.819  0.1496 -0.7159 -0.3643
11044TIP3    H254624   0.429   5.375   0.703 -0.9581  0.2138  0.2535
11045TIP3   OH254625   1.345   0.447   2.931 -0.0606  0.0913  0.1825
11045TIP3    H154626   1.286   0.373   2.914 -0.4761  0.0754  1.5859
11045TIP3    H254627   1.315   0.516   2.872 -2.6419  0.6694  2.0276
11046TIP3   OH254628   2.347   0.808   3.211  0.1946  0.1213 -0.3656
11046TIP3    H154629   2.374   0.886   3.162 -0.6406 -0.0811 -1.1689
11046TIP3    H254630   2.253   0.800   3.193  0.2367 -0.9633 -0.1357
11047TIP3   OH254631   6.414   5.803   6.985  0.2422 -0.3239  0.3709
11047TIP3    H154632   6.333   5.806   6.934  0.9798  0.5973 -0.7859
11047TIP3    H254633   6.431   5.709   6.996 -0.6315 -0.5284  0.0807
11048TIP3   OH254634   4.320   5.857   5.517  0.3096 -1.0618 -0.0378
11048TIP3    H154635   4.245   5.864   5.577  0.7084 -2.0582  0.5941
11048TIP3    H254636   4.300   5.782   5.462  0.9186 -1.4443  0.2531
11049TIP3   OH254637   1.759   0.430  10.413  0.3581  0.3468  0.0283
11049TIP3    H154638   1.710   0.442  10.494 -0.9358 -3.4948  0.0345
11049TIP3    H254639   1.818   0.357  10.431  0.9649  0.2413 -2.1010
11050TIP3   OH254640   0.506   3.455   5.727  0.1100  0.1823 -0.4533
11050TIP3    H154641   0.589   3.466   5.680 -0.0140 -2.2826 -1.3926
11050TIP3    H254642   0.517   3.506   5.807  2.8123 -0.5503 -0.2462
11051TIP3   OH254643   3.616   0.202  15.120  0.2656  0.1781 -0.6558
11051TIP3    H154644   3.524   0.181  15.110 -0.2760  2.2895 -0.5180
11051TIP3    H254645   3.624   0.235  15.210  1.4945 -1.4342 -0.1193
11052TIP3   OH254646   0.166   4.490  16.693  0.1732  0.4790 -0.0007
11052TIP3    H154647   0.194   4.398  16.693 -0.1624  0.3646  0.9224
11052TIP3    H254648   0.236   4.536  16.646 -0.6284 -0.4994 -2.2961
11053TIP3   OH254649   0.086   0.811  12.812  0.0132 -0.1009  0.4168
11053TIP3    H154650   0.122   0.811  12.724 -1.2704 -0.1294 -0.1360
11053TIP3    H254651   0.152   0.766  12.865  0.2604 -1.2125 -0.7718
11054TIP3   OH254652   1.941   4.645   4.373 -0.4022  0.2097  0.3786
11054TIP3    H154653   2.023   4.605   4.343 -1.8948 -1.6568 -1.5105
11054TIP3    H254654   1.913   4.699   4.300 -0.9510  0.7238  0.9569
11055TIP3   OH254655   2.574   4.599   2.665 -0.4757 -0.0722 -0.3062
11055TIP3    H154656   2.598   4.511   2.639  0.1901 -0.0833  0.2961
11055TIP3    H254657   2.482   4.593   2.691 -0.0762 -0.9099  1.0402
11056TIP3   OH254658   1.725   0.751  11.433 -0.0550 -0.2958  0.3038
11056TIP3    H154659   1.721   0.715  11.522  0.5328 -0.0411  0.4330
11056TIP3    H254660   1.765   0.837  11.444 -2.5337  0.9723  0.1789
11057TIP3   OH254661   2.003   5.772   4.204  0.3878 -0.1632 -0.2653
11057TIP3    H154662   2.065   5.830   4.249 -0.4713  0.5139  0.0799
11057TIP3    H254663   1.964   5.720   4.275  1.4892 -1.5278 -0.6214
11058TIP3   OH254664   5.934   2.322   4.522 -0.2598  0.1558 -1.0888
11058TIP3    H154665   5.924   2.373   4.441 -2.7453  1.1598 -0.2337
11058TIP3    H254666   5.963   2.386   4.587 -2.1453  0.2917 -0.3106
11059TIP3   OH254667   4.946   4.623  14.555  0.1977  0.2379 -0.0649
11059TIP3    H154668   5.004   4.633  14.630  0.9891 -0.5545 -0.5507
11059TIP3    H254669   4.953   4.706  14.508  1.1901  0.0442 -0.2814
11060TIP3   OH254670   6.763   2.328  15.586 -0.0882  0.1980  0.4035
11060TIP3    H154671   6.711   2.288  15.656  2.1396 -0.5156  1.7640
11060TIP3    H254672   6.788   2.255  15.530  0.9413  0.2152  0.8147
11061TIP3   OH254673   3.325   6.124   3.085  0.1749  0.0445  0.0226
11061TIP3    H154674   3.272   6.154   3.011 -0.8652  0.5748  0.9369
11061TIP3    H254675   3.261   6.096   3.150  1.0160  0.7004  1.1767
11062TIP3   OH254676   5.251   3.821  13.482  0.1910 -0.2863  0.7735
11062TIP3    H154677   5.274   3.829  13.390 -0.8053  0.5540  0.5844
11062TIP3    H254678   5.170   3.770  13.483 -0.7194  1.1203  1.0462
11063TIP3   OH254679   6.275   5.066  11.462 -0.0094  0.1076 -0.2217
11063TIP3    H154680   6.262   5.161  11.468  2.2922  0.4578  0.1850
11063TIP3    H254681   6.311   5.052  11.375 -2.8193 -0.8076 -1.3314
11064TIP3   OH254682   5.754   6.372   3.456 -1.0009 -0.5480 -0.5822
11064TIP3    H154683   5.681   6.329   3.503  1.1864 -2.3623  1.4221
11064TIP3    H254684   5.829   6.315   3.472  0.6821  0.6540 -3.5134
11065TIP3   OH254685   4.716   1.749   1.310  0.4406  0.7623  0.0763
11065TIP3    H154686   4.693   1.675   1.366  2.8357  0.1760  0.3760
11065TIP3    H254687   4.768   1.806   1.365  1.3684  1.0474 -1.0576
11066TIP3   OH254688   1.137   1.275   6.528 -0.2855 -0.7246 -0.3284
11066TIP3    H154689   1.211   1.214   6.528 -1.9262 -2.8137 -0.6679
11066TIP3    H254690   1.131   1.305   6.437 -0.8189 -1.8008 -0.6565
11067TIP3   OH254691   5.877   4.322   4.312 -0.0203 -0.0936 -0.0887
11067TIP3    H154692   5.860   4.406   4.356 -0.0930 -0.6951  1.0831
11067TIP3    H254693   5.902   4.263   4.383  1.6792 -0.6449 -1.0946
11068TIP3   OH254694   5.565   5.720  15.088 -0.0242  0.7433 -0.1682
11068TIP3    H154695   5.621   5.758  15.021 -0.2255  1.7178  0.2115
11068TIP3    H254696   5.622   5.657  15.134  0.8248  1.8485  0.3288
11069TIP3   OH254697   2.615   2.809   4.497  0.0321  0.1675 -0.0289
11069TIP3    H154698   2.643   2.847   4.414  1.5153  0.2590  0.4764
11069TIP3    H254699   2.564   2.732   4.472  2.4474 -1.2028 -1.0820
11070TIP3   OH254700   4.907   6.042  12.214 -0.0822  0.3649  0.0124
11070TIP3    H154701   4.993   6.057  12.255  0.1213 -1.7716  0.4647
11070TIP3    H254702   4.920   5.964  12.160 -1.5715  0.4419 -0.4876
11071TIP3   OH254703   4.898   0.540   3.398  0.4213  0.0618 -0.2822
11071TIP3    H154704   4.931   0.557   3.309  0.7497  1.0148  0.0123
11071TIP3    H254705   4.974   0.505   3.445  0.3347 -0.1330 -0.2880
11072TIP3   OH254706   2.079   2.883   2.328 -0.0423  0.0400  0.0714
11072TIP3    H154707   2.149   2.852   2.385  0.0469  0.1333  0.0141
11072TIP3    H254708   2.010   2.817   2.335  0.7459 -0.9795 -1.2417
11073TIP3   OH254709   4.000   4.021   4.727 -0.3606 -0.1079 -0.3086
11073TIP3    H154710   3.927   4.058   4.776 -1.5513 -1.5337 -0.9276
11073TIP3    H254711   4.036   3.953   4.784  2.7753  2.7715  1.4670
11074TIP3   OH254712   3.673   3.475   3.963 -0.3070 -0.1028  0.8366
11074TIP3    H154713   3.768   3.469   3.956 -0.3620 -0.2570  0.1838
11074TIP3    H254714   3.647   3.398   4.014 -0.1443 -0.4580  0.3926
11075TIP3   OH254715   0.180   3.276  15.792 -0.2648 -0.0899  0.2841
11075TIP3    H154716   0.212   3.248  15.706 -0.4526 -0.6197  0.3796
11075TIP3    H254717   0.243   3.341  15.822 -0.5607  0.5966 -0.5463
11076TIP3   OH254718   5.094   6.468  12.548 -0.0384  0.1237  0.5890
11076TIP3    H154719   5.112   6.449  12.640 -1.0023 -3.4219  0.2012
11076TIP3    H254720   5.052   6.388  12.514 -0.2740  1.4855 -2.7989
11077TIP3   OH254721   3.481   1.352  17.018 -0.4050 -0.3996  0.3968
11077TIP3    H154722   3.534   1.422  16.979  1.1168 -0.6793  1.8530
11077TIP3    H254723   3.472   1.288  16.948 -0.6306  0.6091 -0.5258
11078TIP3   OH254724   1.051   4.473   4.727  0.1659  0.1434  0.1005
11078TIP3    H154725   1.093   4.389   4.710  1.7432  0.5091  1.8771
11078TIP3    H254726   1.042   4.477   4.822 -2.0362  1.0082 -0.0818
11079TIP3   OH254727   1.967   0.231   5.229  0.1853 -0.6615 -0.5563
11079TIP3    H154728   2.052   0.214   5.188  0.4321 -0.8991  0.0445
11079TIP3    H254729   1.915   0.273   5.160  1.1715  0.5812 -0.5830
11080TIP3   OH254730   2.453   2.085  14.600  0.1425 -0.2241  0.2123
11080TIP3    H154731   2.457   2.056  14.509 -1.2047  2.3017 -0.7356
11080TIP3    H254732   2.490   2.173  14.600 -0.2210 -0.0166  2.0360
11081TIP3   OH254733   3.062   1.697  17.182 -0.4914  0.2012 -0.5254
11081TIP3    H154734   3.118   1.639  17.131  0.1167  0.6963 -0.4453
11081TIP3    H254735   2.985   1.645  17.205 -0.2613 -0.3525 -1.0211
11082TIP3   OH254736   0.257   2.929  15.832 -0.1372  0.9818 -0.1758
11082TIP3    H154737   0.241   2.854  15.890 -1.8690  0.3216 -1.4186
11082TIP3    H254738   0.302   2.993  15.887  0.5509 -0.5896  1.1817
11083TIP3   OH254739   5.445   5.567   1.232  0.6407  0.4027  0.0839
11083TIP3    H154740   5.460   5.481   1.270 -0.0523  0.2824  0.0904
11083TIP3    H254741   5.408   5.620   1.303  0.4472  0.5145 -0.0975
11084TIP3   OH254742   6.236   1.356  16.114 -0.8032  0.2367 -0.2457
11084TIP3    H154743   6.231   1.417  16.187  1.0276  0.0097  0.1249
11084TIP3    H254744   6.311   1.300  16.134 -0.5844 -0.1791 -2.0233
11085TIP3   OH254745   4.139   1.671   5.293 -0.4733  0.1247  0.0845
11085TIP3    H154746   4.069   1.687   5.356  0.2616  0.7633  0.7681
11085TIP3    H254747   4.190   1.752   5.293  0.0455 -0.1932 -0.6699
11086TIP3   OH254748   1.414   5.697  12.014  0.3262  0.0898  0.5291
11086TIP3    H154749   1.489   5.727  12.066 -0.5016  1.7270  0.8446
11086TIP3    H254750   1.419   5.601  12.017  2.2299  0.1532  0.7715
11087TIP3   OH254751   2.702   1.264  11.721 -0.3543 -0.1543  0.5431
11087TIP3    H154752   2.734   1.174  11.715 -1.4145 -0.4752 -0.4309
11087TIP3    H254753   2.628   1.268  11.661 -1.8596  0.7026  2.3301
11088TIP3   OH254754   4.447   1.290  12.097  0.3700 -0.6471 -0.3537
11088TIP3    H154755   4.501   1.259  12.170  2.9865  0.1815 -1.8028
11088TIP3    H254756   4.451   1.219  12.033 -1.3631 -1.0851 -0.0415
11089TIP3   OH254757   3.442   0.688   0.112  0.1787 -0.5469 -0.2502
11089TIP3    H154758   3.418   0.599   0.088  0.1682 -0.5648 -0.1725
11089TIP3    H254759   3.385   0.710   0.185  0.4440 -0.6152 -0.0199
11090TIP3   OH254760   1.410   2.663   5.853  0.1155 -0.0938  0.2314
11090TIP3    H154761   1.495   2.702   5.873  0.3945 -0.6631  0.1783
11090TIP3    H254762   1.428   2.569   5.844 -0.8007 -0.4908  2.0216
11091TIP3   OH254763   1.703   0.350   3.575  0.8330  0.2560 -0.5112
11091TIP3    H154764   1.721   0.277   3.516  0.3016  0.5143 -1.0080
11091TIP3    H254765   1.660   0.415   3.519  0.8003  0.7212  0.0482
11092TIP3   OH254766   3.973   6.480   0.799 -0.3200  0.3128 -0.3827
11092TIP3    H154767   4.028   6.402   0.791  0.7647  1.0662 -0.5691
11092TIP3    H254768   3.948   6.501   0.709 -2.6670 -1.1946 -0.1522
11093TIP3   OH254769   5.102   3.760  15.716  0.7459  0.4004  0.2314
11093TIP3    H154770   5.138   3.816  15.647  2.2509 -1.5235 -0.6441
11093TIP3    H254771   5.166   3.767  15.788  0.3682  0.6314  0.5495
11094TIP3   OH254772   3.014   2.693  15.614  0.0962 -0.2889  0.3477
11094TIP3    H154773   3.009   2.653  15.701  0.1505  1.6570  1.2973
11094TIP3    H254774   3.093   2.746  15.616 -0.5534  0.7527 -0.4361
11095TIP3   OH254775   3.333   4.663   0.974  0.2073 -0.5451 -0.2300
11095TIP3    H154776   3.404   4.647   1.036 -1.0894 -1.4647  1.0706
11095TIP3    H254777   3.279   4.584   0.977 -1.3721  0.4731 -0.4963
11096TIP3   OH254778   1.776   6.548   4.218 -0.0137  0.4846 -0.4880
11096TIP3    H154779   1.726   6.573   4.139 -1.5872  1.9419  0.8862
11096TIP3    H254780   1.863   6.584   4.203 -0.1348  0.3154 -1.7670
11097TIP3   OH254781   5.251   5.302   2.223 -0.0702 -0.0425 -0.1666
11097TIP3    H154782   5.186   5.237   2.249 -1.5116  1.2968 -0.2511
11097TIP3    H254783   5.206   5.356   2.157 -0.0469  2.8298  1.9628
11098TIP3   OH254784   3.160   0.563  15.489 -0.1933 -0.4478  0.1953
11098TIP3    H154785   3.228   0.496  15.479  0.5349  0.4889 -1.6494
11098TIP3    H254786   3.199   0.627  15.549  0.8610  0.4057 -1.3505
11099TIP3   OH254787   4.446   3.763   5.228  0.5556  0.2055  0.7102
11099TIP3    H154788   4.429   3.808   5.311  0.2487 -1.0022  1.3169
11099TIP3    H254789   4.453   3.671   5.252  1.9524  0.0039 -0.4023
11100TIP3   OH254790   0.144   1.368   2.389 -0.2873  0.6050  0.1572
11100TIP3    H154791   0.149   1.280   2.427  2.0981  1.0990  1.1713
11100TIP3    H254792   0.187   1.360   2.304 -0.7208  0.6559 -0.0705
11101TIP3   OH254793   2.562   0.011  14.622  0.2733  0.0911 -1.0216
11101TIP3    H154794   2.474   0.037  14.595 -0.7094 -0.6379  1.2138
11101TIP3    H254795   2.591  -0.048  14.552 -0.7370  0.8231 -2.1126
11102TIP3   OH254796   4.299   0.509  15.245  0.7965 -0.5976  0.4229
11102TIP3    H154797   4.273   0.506  15.153  1.7683  0.1806  0.1091
11102TIP3    H254798   4.379   0.562  15.246  0.1574  0.3842  1.8644
11103TIP3   OH254799   0.938   4.026  12.049  0.1836 -0.1984 -0.2427
11103TIP3    H154800   0.911   3.943  12.010 -0.8354 -0.7323  1.4534
11103TIP3    H254801   1.028   4.010  12.080  0.7520  0.0252 -1.7256
11104TIP3   OH254802   5.035   0.106  15.850 -0.0557 -0.0377 -0.3499
11104TIP3    H154803   4.953   0.058  15.861 -0.2773  0.4648  0.1759
11104TIP3    H254804   5.009   0.197  15.838  0.4367  0.1557  0.0409
11105TIP3   OH254805   1.617   0.046  12.775  0.0208  0.2108 -0.0926
11105TIP3    H154806   1.637   0.106  12.704 -1.0944  0.5281 -0.1597
11105TIP3    H254807   1.602  -0.038  12.732 -0.1511  0.2875 -0.1839
11106TIP3   OH254808   0.779   5.597  11.276 -0.0039  0.5467  0.0327
11106TIP3    H154809   0.747   5.512  11.245 -0.4097 -0.2714  2.4546
11106TIP3    H254810   0.839   5.626  11.207 -0.8707 -1.0568 -1.4870
11107TIP3   OH254811   6.199   4.262   4.399 -0.5587  0.9075 -0.1449
11107TIP3    H154812   6.173   4.249   4.490  1.8538 -0.8952  0.4081
11107TIP3    H254813   6.268   4.328   4.403 -1.3102  1.7605 -0.8686
11108TIP3   OH254814   6.712   3.129  15.816 -0.1083  0.2332  0.3467
11108TIP3    H154815   6.783   3.065  15.820 -1.1346 -1.1173 -1.6202
11108TIP3    H254816   6.732   3.183  15.740 -1.0565 -0.0444 -0.1190
11109TIP3   OH254817   6.393   3.568  14.672 -0.2491 -0.0511  0.3935
11109TIP3    H154818   6.407   3.558  14.766 -1.1890  0.1948  0.5688
11109TIP3    H254819   6.385   3.663  14.659  1.9430  0.0949 -0.2606
11110TIP3   OH254820   1.377   1.694   2.699 -0.2672 -0.4858  0.6690
11110TIP3    H154821   1.437   1.746   2.753  0.3890 -0.0036 -0.4973
11110TIP3    H254822   1.424   1.613   2.682  1.1972  0.8567 -2.3190
11111TIP3   OH254823   4.229   1.699  11.402  0.6810 -0.1271 -0.0661
11111TIP3    H154824   4.310   1.680  11.449  0.6792  2.2056  0.9805
11111TIP3    H254825   4.165   1.718  11.470  0.2931  1.8496 -0.9177
11112TIP3   OH254826   3.436   5.652   5.540  0.7296 -0.4037  0.6700
11112TIP3    H154827   3.368   5.629   5.603  0.0531 -1.3467 -0.3606
11112TIP3    H254828   3.477   5.568   5.517 -1.6719 -0.8048 -3.0459
11113TIP3   OH254829   6.423   5.926   0.972 -0.0082  0.0061 -0.8865
11113TIP3    H154830   6.404   5.853   0.913 -1.5698 -0.0421 -0.3698
11113TIP3    H254831   6.517   5.941   0.962  0.2548 -1.7280 -1.4016
11114TIP3   OH254832   4.914   6.311  12.294  0.2341  0.0402  0.4090
11114TIP3    H154833   4.868   6.250  12.235  0.4071 -1.4785  1.7599
11114TIP3    H254834   4.985   6.259  12.331 -0.2913  0.7065  2.4741
11115TIP3   OH254835   5.982   2.365   5.684  0.2178 -0.2872  0.4530
11115TIP3    H154836   5.932   2.418   5.622 -0.7976  0.3252  1.7542
11115TIP3    H254837   5.944   2.278   5.677  0.5441 -0.3798 -0.2415
11116TIP3   OH254838   0.552   5.528  13.671  0.1270  1.1353 -0.1021
11116TIP3    H154839   0.531   5.450  13.723 -3.2967  1.2947 -1.0010
11116TIP3    H254840   0.531   5.601  13.728 -0.3328  1.3550 -0.5538
11117TIP3   OH254841   4.304   1.285   1.449  0.1452 -0.3354 -0.3512
11117TIP3    H154842   4.210   1.285   1.467  0.3444  0.1798  0.7806
11117TIP3    H254843   4.311   1.321   1.361 -0.7498 -0.9264 -0.6829
11118TIP3   OH254844   1.619   2.868   5.507 -0.6997 -0.8395  0.1202
11118TIP3    H154845   1.606   2.935   5.440  1.5739 -0.6816 -0.2452
11118TIP3    H254846   1.568   2.898   5.582 -2.2120 -0.3255 -1.0541
11119TIP3   OH254847   5.928   3.939  15.090 -0.5915  0.0754  0.9629
11119TIP3    H154848   6.018   3.955  15.119 -0.9674  0.9322  1.6935
11119TIP3    H254849   5.937   3.878  15.017  0.7213  1.6055 -0.2261
11120TIP3   OH254850   1.713   0.790  15.289  0.0546 -0.3166  0.1916
11120TIP3    H154851   1.784   0.832  15.338 -0.8844  2.7523 -0.8585
11120TIP3    H254852   1.657   0.751  15.356 -0.2072  2.1311  1.5191
11121TIP3   OH254853   2.831   6.592  12.189 -0.0334 -0.2777 -0.2989
11121TIP3    H154854   2.922   6.615  12.207  0.1618  0.3962 -2.0101
11121TIP3    H254855   2.833   6.498  12.175  0.2619 -0.3793  0.3624
11122TIP3   OH254856   2.033   5.509   5.490  0.6984  0.0715  0.3557
11122TIP3    H154857   2.086   5.514   5.411 -0.9178 -3.0026 -1.0547
11122TIP3    H254858   2.059   5.427   5.532 -1.5491 -0.5753  0.6185
11123TIP3   OH254859   0.345   0.642  14.439 -0.1279  0.0814  0.6520
11123TIP3    H154860   0.273   0.582  14.459 -0.4051  0.1244 -0.2052
11123TIP3    H254861   0.343   0.653  14.344  1.6276 -0.6998  0.4816
11124TIP3   OH254862   4.425   2.557   2.959  0.0128 -0.1487  0.3907
11124TIP3    H154863   4.409   2.588   2.870  2.6514 -1.3682 -0.6311
11124TIP3    H254864   4.481   2.624   2.998  0.3825 -0.4901  0.4572
11125TIP3   OH254865   3.843   6.134   5.242  0.7585 -0.3209 -0.3863
11125TIP3    H154866   3.858   6.227   5.259  0.0905 -0.1917 -0.4693
11125TIP3    H254867   3.858   6.124   5.148 -0.0885 -0.0996 -0.5553
11126TIP3   OH254868   2.911   4.557  14.332 -0.3854  0.4538  0.2859
11126TIP3    H154869   2.817   4.540  14.330 -0.8027  2.6087 -0.9057
11126TIP3    H254870   2.919   4.648  14.357  1.4457  0.1492  0.9384
11127TIP3   OH254871   1.869   1.693  10.182 -0.2521 -0.1700  0.7384
11127TIP3    H154872   1.917   1.776  10.187 -0.2442 -0.1294  0.1530
11127TIP3    H254873   1.937   1.626  10.173 -0.1152 -0.5189  3.4978
11128TIP3   OH254874   5.738   2.174  16.685 -0.0995  0.7809  0.1074
11128TIP3    H154875   5.645   2.160  16.670 -0.0853  0.1072  0.6241
11128TIP3    H254876   5.744   2.264  16.718 -0.3593  1.4984 -1.7038
11129TIP3   OH254877   5.342   1.400   2.755 -0.1819 -0.4731 -0.1546
11129TIP3    H154878   5.392   1.482   2.760  0.2154 -0.7759  1.4282
11129TIP3    H254879   5.253   1.425   2.778 -0.1427 -0.4241 -0.0568
11130TIP3   OH254880   5.253   5.529  12.043  0.3330  0.3949 -0.2289
11130TIP3    H154881   5.259   5.620  12.073 -1.4596  0.1719  0.9706
11130TIP3    H254882   5.321   5.521  11.976 -0.6560  3.1264 -1.7067
11131TIP3   OH254883   2.149   5.017   4.079  0.0794  0.0796 -0.0710
11131TIP3    H154884   2.084   4.974   4.024 -1.0101  0.3973  0.9334
11131TIP3    H254885   2.188   4.947   4.131  1.4760 -0.3001 -1.5479
11132TIP3   OH254886   1.885   2.897  13.278  0.1231 -0.3215  0.0117
11132TIP3    H154887   1.921   2.809  13.281  2.7702  0.7037  0.8500
11132TIP3    H254888   1.875   2.916  13.184 -2.4647 -2.1647 -0.1865
11133TIP3   OH254889   5.750   1.041  15.904 -0.1154  0.5602 -0.1323
11133TIP3    H154890   5.840   1.011  15.892  0.5763  1.6959  1.8335
11133TIP3    H254891   5.696   0.969  15.870  1.5014 -0.6457 -0.2793
11134TIP3   OH254892   0.551   1.512   3.103  0.1719 -0.3509  0.0584
11134TIP3    H154893   0.630   1.564   3.087  0.2251 -0.2940  0.5080
11134TIP3    H254894   0.550   1.449   3.031  0.9451 -0.7420  0.3784
11135TIP3   OH254895   1.400   6.792   2.689 -0.4219 -0.2139 -0.9254
11135TIP3    H154896   1.449   6.874   2.689 -1.1946  0.2759  0.0479
11135TIP3    H254897   1.428   6.748   2.769 -0.7859 -0.4063 -0.9025
11136TIP3   OH254898   4.870   5.511   0.226  0.0879  0.4478 -0.0437
11136TIP3    H154899   4.879   5.510   0.131  0.0621 -0.2479 -0.0489
11136TIP3    H254900   4.794   5.456   0.243 -1.0587  2.0886  0.2882
11137TIP3   OH254901   4.528   3.273  11.231  0.3817 -0.3688 -0.6159
11137TIP3    H154902   4.470   3.228  11.170  0.0252 -0.9053  0.1041
11137TIP3    H254903   4.473   3.292  11.307  0.5050  1.3344 -0.9102
11138TIP3   OH254904   5.691   3.392  12.290  0.1640  0.3476  0.4725
11138TIP3    H154905   5.668   3.301  12.268  0.3003  0.3976  0.1155
11138TIP3    H254906   5.715   3.431  12.207  0.7364  0.5314  0.7206
11139TIP3   OH254907   0.924   1.123   0.011 -0.2361  0.1351 -0.1847
11139TIP3    H154908   0.924   1.105  -0.083 -1.1733  0.2854 -0.2243
11139TIP3    H254909   0.912   1.037   0.052 -0.2648  0.1227 -0.2191
11140TIP3   OH254910   3.402   5.030   6.422 -0.0509 -0.2916 -0.2438
11140TIP3    H154911   3.480   4.975   6.415 -0.9205 -1.6292  0.0308
11140TIP3    H254912   3.411   5.075   6.505  0.2329 -0.7649 -0.0137
11141TIP3   OH254913   0.629   3.966  11.387 -0.1615  0.3402 -0.1260
11141TIP3    H154914   0.707   4.008  11.425  0.1609 -1.6177  1.5820
11141TIP3    H254915   0.573   3.947  11.462 -0.7537 -1.2688 -0.9180
11142TIP3   OH254916   6.509   6.463   1.133  0.0946 -0.2930 -0.8179
11142TIP3    H154917   6.550   6.418   1.059  0.8322  1.4546 -1.5313
11142TIP3    H254918   6.418   6.436   1.130  0.3046 -0.9586 -1.8080
11143TIP3   OH254919   4.923   6.747  11.556 -0.0462  0.3143  0.6025
11143TIP3    H154920   5.016   6.769  11.551 -0.0788  0.1954 -1.0153
11143TIP3    H254921   4.898   6.769  11.646  1.5741  0.1859  1.1109
11144TIP3   OH254922   4.119   4.006  12.452  0.6245 -0.0004 -0.6622
11144TIP3    H154923   4.090   3.915  12.438  1.1538  0.0063 -1.8792
11144TIP3    H254924   4.039   4.058  12.444  0.5379 -0.2317 -1.3413
11145TIP3   OH254925   5.257   5.695   6.744 -0.1580  0.6063 -0.2469
11145TIP3    H154926   5.250   5.789   6.761 -0.0237  0.5261  0.2999
11145TIP3    H254927   5.195   5.655   6.806  1.2185  0.2212  0.9527
11146TIP3   OH254928   5.230   3.060   3.263 -0.0619  0.1303  0.4474
11146TIP3    H154929   5.151   3.080   3.314  0.1236  1.4000  0.2493
11146TIP3    H254930   5.237   3.132   3.200  1.0004 -0.2212  0.1518
11147TIP3   OH254931   3.024   1.841  13.669  0.1791 -0.8658  0.1795
11147TIP3    H154932   3.100   1.832  13.727  0.6268 -2.5752 -0.6354
11147TIP3    H254933   2.949   1.833  13.728  0.4537  3.0894  1.3865
11148TIP3   OH254934   1.933   3.728  14.988  0.0605  0.2482  1.1116
11148TIP3    H154935   1.838   3.714  14.993  0.0467  0.1164  0.5107
11148TIP3    H254936   1.947   3.812  15.032 -0.6729  1.6007 -1.0978
11149TIP3   OH254937   4.196   0.753  16.481  0.0235 -0.6701  0.0647
11149TIP3    H154938   4.105   0.744  16.454 -1.4053  2.4607  2.9717
11149TIP3    H254939   4.195   0.732  16.574  1.9941  0.6314  0.4282
11150TIP3   OH254940   2.297   5.555   5.254 -0.3226 -0.1482 -0.4303
11150TIP3    H154941   2.387   5.563   5.284 -0.0925 -1.4251 -0.7178
11150TIP3    H254942   2.286   5.625   5.190 -0.2089  1.3501  1.1414
11151TIP3   OH254943   5.588   4.157   4.974  0.3705 -0.6467  0.2968
11151TIP3    H154944   5.612   4.065   4.964  0.5956 -0.3928 -2.0656
11151TIP3    H254945   5.555   4.183   4.888 -0.8280  1.1827  1.2254
11152TIP3   OH254946   2.102   1.891   4.113  0.0376  0.6546  0.2458
11152TIP3    H154947   2.148   1.884   4.029 -0.8930  0.5709 -0.2735
11152TIP3    H254948   2.019   1.932   4.090 -0.3751  0.2854  1.0784
11153TIP3   OH254949   0.170   2.391  13.944 -0.1134 -0.3500  0.5102
11153TIP3    H154950   0.084   2.433  13.943  0.5378  1.1016 -1.4192
11153TIP3    H254951   0.151   2.297  13.950 -1.9265 -0.1476 -1.0551
11154TIP3   OH254952   6.504   6.610  15.107 -0.2080  0.1270  0.3678
11154TIP3    H154953   6.433   6.570  15.158 -0.0251 -0.4359  0.1827
11154TIP3    H254954   6.493   6.575  15.019 -0.5289  1.1111  0.0093
11155TIP3   OH254955   1.532   4.408   4.087  0.0496 -0.1298 -0.3271
11155TIP3    H154956   1.450   4.386   4.044  0.8762 -0.0298 -2.0086
11155TIP3    H254957   1.564   4.325   4.122 -0.1253 -0.3945 -0.7973
11156TIP3   OH254958   1.885   3.623  13.361 -0.2646  0.2450  0.1021
11156TIP3    H154959   1.861   3.613  13.269  0.5088  0.5361 -0.1356
11156TIP3    H254960   1.838   3.553  13.405  0.1651 -0.5518 -0.6667
11157TIP3   OH254961   0.783   2.789  12.847 -0.4532  0.5264  0.1568
11157TIP3    H154962   0.788   2.860  12.910 -0.2093  1.0992 -0.4901
11157TIP3    H254963   0.692   2.789  12.818 -0.8451 -0.4765  1.3229
11158TIP3   OH254964   1.245   0.488   0.696  0.6400 -0.1568  0.3701
11158TIP3    H154965   1.209   0.406   0.662  1.5237  0.2170 -1.6132
11158TIP3    H254966   1.186   0.556   0.663  1.0853  0.1626  0.2176
11159TIP3   OH254967   3.005   6.506   0.309  0.6623 -0.7251 -0.0424
11159TIP3    H154968   3.089   6.473   0.275  0.6692 -1.2382  0.4607
11159TIP3    H254969   2.946   6.501   0.233  1.4327  1.0412 -0.8218
11160TIP3   OH254970   4.092   1.036  12.479 -0.6793  0.3418  0.6324
11160TIP3    H154971   4.120   1.126  12.463  0.9549  0.0606  1.6213
11160TIP3    H254972   4.069   1.002  12.393 -2.2268  1.9635  0.3594
11161TIP3   OH254973   0.292   0.776  15.654  0.0457  0.4209 -0.1656
11161TIP3    H154974   0.314   0.736  15.570 -2.1418  0.7265 -0.9529
11161TIP3    H254975   0.364   0.836  15.672 -0.2291  1.6012 -2.6648
11162TIP3   OH254976   6.773   5.507  14.995 -0.1453  0.0696 -0.0768
11162TIP3    H154977   6.825   5.429  14.977 -0.2096 -0.1244  0.5879
11162TIP3    H254978   6.735   5.530  14.910  1.2798  0.4107 -0.6538
11163TIP3   OH254979   4.910   4.117  14.729 -0.2537 -0.2503 -0.0620
11163TIP3    H154980   4.995   4.156  14.708  1.1526 -1.7581  2.3567
11163TIP3    H254981   4.850   4.192  14.732  1.0666  0.9333 -1.2767
11164TIP3   OH254982   2.167   2.020  11.371 -0.0227 -0.0004 -0.0390
11164TIP3    H154983   2.166   2.115  11.360  1.8194  0.0208 -0.3113
11164TIP3    H254984   2.176   1.986  11.282 -0.1887 -0.4071  0.0992
11165TIP3   OH254985   4.035   4.635  12.317  0.7661  0.2986 -0.3290
11165TIP3    H154986   4.011   4.585  12.238  0.1458 -0.5631  0.3885
11165TIP3    H254987   4.007   4.725  12.298 -0.1883 -0.0723 -0.7491
11166TIP3   OH254988   4.731   3.651  10.259 -0.3155 -0.5941 -0.2290
11166TIP3    H154989   4.788   3.720  10.292 -0.7491 -1.0272  1.5743
11166TIP3    H254990   4.648   3.695  10.242 -0.1701 -0.4135 -0.4785
11167TIP3   OH254991   3.852   4.424   1.112 -0.7346 -0.6249  0.6582
11167TIP3    H154992   3.903   4.503   1.129  1.6253 -1.8440 -0.2319
11167TIP3    H254993   3.837   4.425   1.017  1.0112 -2.1338  0.3214
11168TIP3   OH254994   6.708   1.769   3.413 -0.2272 -0.2171  0.0745
11168TIP3    H154995   6.785   1.712   3.411 -0.0727  0.0124 -0.7746
11168TIP3    H254996   6.692   1.791   3.322  1.1386  3.0040  0.4798
11169TIP3   OH254997   0.511   2.496  16.506 -0.5151  0.1918  0.3805
11169TIP3    H154998   0.551   2.572  16.548 -0.8657  0.6997 -0.1882
11169TIP3    H254999   0.539   2.502  16.415  0.2535 -0.9077  0.5168
11170TIP3   OH255000   6.044   4.658  17.205  0.3228  0.1197  0.6086
11170TIP3    H155001   5.989   4.713  17.260  0.1352  1.1971 -0.6169
11170TIP3    H255002   5.982   4.598  17.163  0.0965  1.0874 -0.4841
11171TIP3   OH255003   6.694   1.410   4.829 -0.0413 -0.0001 -0.1222
11171TIP3    H155004   6.747   1.489   4.841 -0.4744  0.8558 -2.9012
11171TIP3    H255005   6.627   1.415   4.897  1.4893  0.6216  1.3975
11172TIP3   OH255006   6.475   4.760  14.636  0.1211  0.0997 -0.3060
11172TIP3    H155007   6.439   4.736  14.721  0.9711  1.4190  0.4592
11172TIP3    H255008   6.468   4.680  14.583 -1.4034 -0.4316  0.6389
11173TIP3   OH255009   6.691   3.243   2.178  0.4682  0.7684  0.0641
11173TIP3    H155010   6.749   3.243   2.254  0.3470  2.0976  0.1719
11173TIP3    H255011   6.621   3.304   2.201 -2.1405 -2.2144  0.7776
11174TIP3   OH255012   6.003   0.721  11.604  0.3415  0.1692 -0.4804
11174TIP3    H155013   6.060   0.793  11.581 -0.5742  0.9263 -0.4379
11174TIP3    H255014   5.980   0.736  11.696  0.4641 -0.3982 -0.3497
11175TIP3   OH255015   2.373   4.093   0.754  0.2624  0.3537  0.3468
11175TIP3    H155016   2.373   4.130   0.842  0.8654 -1.6683  1.2609
11175TIP3    H255017   2.280   4.076   0.736  0.1934  0.0676  0.9243
11176TIP3   OH255018   6.441   0.697   1.825  0.0680 -0.1550 -0.1603
11176TIP3    H155019   6.400   0.781   1.805  0.1548 -0.1641 -0.3767
11176TIP3    H255020   6.470   0.663   1.740  1.7583  0.4827  0.1144
11177TIP3   OH255021   4.045   4.351   2.638  0.4825  0.3043 -0.2119
11177TIP3    H155022   4.007   4.367   2.551  3.1614  1.1352 -1.3178
11177TIP3    H255023   4.080   4.435   2.665 -1.4494  0.4062  2.3932
11178TIP3   OH255024   0.381   1.363   0.880 -0.1768  0.5875 -0.2035
11178TIP3    H155025   0.315   1.424   0.913 -1.7495 -0.9462 -0.3103
11178TIP3    H255026   0.418   1.323   0.958 -0.1305  0.7026 -0.1668
11179TIP3   OH255027   2.485   1.238   6.244  0.2620 -0.3704 -0.2672
11179TIP3    H155028   2.435   1.290   6.306  1.3586  0.3893 -0.0006
11179TIP3    H255029   2.500   1.297   6.170  3.0279  0.3828  0.7675
11180TIP3   OH255030   0.788   3.258  15.716 -0.2025  0.8199 -0.2075
11180TIP3    H155031   0.845   3.334  15.711 -0.2811  0.8971  0.0740
11180TIP3    H255032   0.705   3.289  15.680 -0.1389  0.7754 -0.3930
11181TIP3   OH255033   5.185   2.071   4.826 -0.2109  0.0194  0.1290
11181TIP3    H155034   5.275   2.039   4.812 -0.4747 -0.7367  0.0911
11181TIP3    H255035   5.196   2.156   4.867  0.5566  0.7904 -1.5632
11182TIP3   OH255036   5.682   0.733   4.697 -0.5871 -0.5026  0.2904
11182TIP3    H155037   5.709   0.820   4.725 -0.1180 -0.3602 -0.5744
11182TIP3    H255038   5.613   0.749   4.632 -1.9256 -0.8367  1.5791
11183TIP3   OH255039   4.114   5.778  12.205 -0.2942  0.0383  0.6003
11183TIP3    H155040   4.128   5.826  12.286 -0.2433  1.5596 -0.2685
11183TIP3    H255041   4.120   5.844  12.136  1.5366 -1.4803 -0.8273
11184TIP3   OH255042   6.737   3.043   3.264 -0.7768  0.0771 -0.3309
11184TIP3    H155043   6.825   3.050   3.301 -0.5969 -0.3146 -0.6705
11184TIP3    H255044   6.752   3.013   3.174 -1.1719  1.5226 -0.9136
11185TIP3   OH255045   5.522   6.531  12.204 -0.0151 -0.0435  0.5059
11185TIP3    H155046   5.480   6.608  12.242 -1.1955 -0.1218 -0.5830
11185TIP3    H255047   5.571   6.564  12.129 -0.5746 -0.3416 -0.0018
11186TIP3   OH255048   5.865   5.822  14.736 -0.2510  0.0153  0.1236
11186TIP3    H155049   5.811   5.746  14.716  0.3237 -0.0867 -1.1405
11186TIP3    H255050   5.933   5.789  14.795 -0.0361 -0.4519 -0.3764
11187TIP3   OH255051   5.764   5.204  15.447 -0.4569 -0.4289 -0.1933
11187TIP3    H155052   5.850   5.165  15.459  0.0674  0.9884  0.8412
11187TIP3    H255053   5.705   5.146  15.497  0.1076 -0.6305  0.2533
11188TIP3   OH255054   6.782   2.468   2.598 -0.6114 -0.6419  0.1799
11188TIP3    H155055   6.716   2.415   2.641  0.3316 -2.3576 -0.3910
11188TIP3    H255056   6.782   2.438   2.507 -1.0955  1.4289 -0.5671
11189TIP3   OH255057   5.767   4.432   0.376  0.0387  0.6070 -0.1613
11189TIP3    H155058   5.851   4.471   0.352  0.0723  0.4061 -0.3663
11189TIP3    H255059   5.710   4.449   0.301  0.1281  0.0316 -0.3655
11190TIP3   OH255060   3.669   5.030   0.328 -0.6382  0.5851 -0.4248
11190TIP3    H155061   3.697   5.012   0.418  1.0695 -2.2053 -1.3753
11190TIP3    H255062   3.575   5.013   0.329 -0.9122  1.9672  1.0933
11191TIP3   OH255063   4.750   1.805  15.434  0.2626 -0.5677 -0.1897
11191TIP3    H155064   4.765   1.768  15.521 -1.4273  1.6193  1.1626
11191TIP3    H255065   4.813   1.760  15.377  2.3330 -1.1972  2.3781
11192TIP3   OH255066   2.428   4.911  11.567  0.4245 -0.7670 -0.1832
11192TIP3    H155067   2.424   4.877  11.656  0.3127 -0.5026 -0.0891
11192TIP3    H255068   2.349   4.877  11.525 -0.8398  1.1607  0.5353
11193TIP3   OH255069   3.560   5.197  14.126 -0.1432 -0.4769  0.3191
11193TIP3    H155070   3.474   5.156  14.137 -0.5117 -0.3430 -1.6800
11193TIP3    H255071   3.542   5.291  14.132 -0.1408 -0.4529 -0.0055
11194TIP3   OH255072   0.373   5.737   5.133  0.9052 -0.1931 -0.2880
11194TIP3    H155073   0.353   5.655   5.178  1.1162  1.1326  2.4575
11194TIP3    H255074   0.310   5.800   5.169  1.1393  1.0012 -1.8622
11195TIP3   OH255075   4.163   6.711  14.383  0.1027 -0.1099 -0.1629
11195TIP3    H155076   4.125   6.712  14.471 -0.6494 -0.6807 -0.4671
11195TIP3    H255077   4.240   6.655  14.390  0.4468  0.4100  0.2826
11196TIP3   OH255078   5.459   1.183  12.858  0.3455  0.6328 -0.1507
11196TIP3    H155079   5.428   1.248  12.921 -1.3395  0.3308 -0.6171
11196TIP3    H255080   5.554   1.179  12.871  0.1326  1.1905  1.7626
11197TIP3   OH255081   2.380   6.407  17.209  0.1099 -0.2473 -0.7126
11197TIP3    H155082   2.335   6.372  17.132  0.2099  1.1522 -1.4241
11197TIP3    H255083   2.326   6.377  17.283 -1.0382 -0.0434 -1.4393
11198TIP3   OH255084   6.149   2.100   6.108 -0.6782 -0.3463 -0.4074
11198TIP3    H155085   6.148   2.010   6.140  2.1323 -0.2716  0.0993
11198TIP3    H255086   6.113   2.095   6.020 -3.2380 -1.4544  0.6094
11199TIP3   OH255087   5.392   5.662  15.449  0.6687  0.5445 -0.2364
11199TIP3    H155088   5.391   5.690  15.541  0.5921  0.7198 -0.2898
11199TIP3    H255089   5.407   5.742  15.400  2.5408  0.2038 -0.2935
11200TIP3   OH255090   2.452   2.163  10.690 -0.2326  0.2775  0.7171
11200TIP3    H155091   2.464   2.083  10.638  1.3395 -0.0852  1.5595
11200TIP3    H255092   2.358   2.168  10.707 -0.3212 -1.5903  0.9279
11201TIP3   OH255093   6.610   1.370  14.266  0.3406  0.5023 -0.3244
11201TIP3    H155094   6.696   1.333  14.247  0.2203  0.0157  0.0440
11201TIP3    H255095   6.627   1.463  14.283  0.8756  0.3048  0.2728
11202TIP3   OH255096   2.457   0.271  11.399  0.2508  0.5105  0.3674
11202TIP3    H155097   2.393   0.204  11.421  0.1426  0.9648  1.4813
11202TIP3    H255098   2.484   0.249  11.310  0.0107 -0.8400  0.6001
11203TIP3   OH255099   4.413   1.481   2.685  0.5215 -0.6113 -0.2586
11203TIP3    H155100   4.342   1.501   2.626  0.4006 -0.2293  0.0164
11203TIP3    H255101   4.484   1.451   2.628 -0.0930 -1.6948 -0.4831
11204TIP3   OH255102   5.302   2.670   0.756  0.4116 -0.3572  0.0168
11204TIP3    H155103   5.310   2.583   0.796  0.2552 -1.3366 -1.9873
11204TIP3    H255104   5.393   2.698   0.745  0.5367 -1.0976 -1.0023
11205TIP3   OH255105   0.883   0.483   4.712  0.0584 -0.5625 -0.3492
11205TIP3    H155106   0.934   0.561   4.735  0.2850 -1.2228  1.5523
11205TIP3    H255107   0.792   0.509   4.728  0.1510 -0.7398  0.5244
11206TIP3   OH255108   2.253   5.109  10.727 -0.5401 -0.0289  0.1106
11206TIP3    H155109   2.252   5.060  10.809  0.0743 -0.1032  0.0791
11206TIP3    H255110   2.300   5.190  10.748 -2.3291  0.9850  0.3954
11207TIP3   OH255111   6.725   4.342   6.067  0.2578  0.3665  0.2052
11207TIP3    H155112   6.765   4.389   6.141  0.5582  0.2159  0.1400
11207TIP3    H255113   6.799   4.301   6.022  0.2870  1.8000 -1.1606
11208TIP3   OH255114   3.308   3.577  11.635 -0.3842 -0.2412 -0.4707
11208TIP3    H155115   3.389   3.535  11.605  0.2191  1.1831 -0.9363
11208TIP3    H255116   3.329   3.609  11.723 -1.1222 -1.6283  0.2362
11209TIP3   OH255117   0.007   0.713  13.166 -0.6938  0.2664  0.4735
11209TIP3    H155118   0.037   0.802  13.182 -1.4412  0.9785 -1.6866
11209TIP3    H255119   0.084   0.667  13.134 -0.9203  1.0194 -1.2997
11210TIP3   OH255120   0.259   5.183  15.699  0.0616 -0.2753 -0.3270
11210TIP3    H155121   0.199   5.193  15.773  0.5136  2.3515 -0.2039
11210TIP3    H255122   0.210   5.217  15.624  0.7815  0.2972 -0.5501
11211TIP3   OH255123   5.426   4.819   5.424  0.1652  0.1804 -0.3857
11211TIP3    H155124   5.479   4.805   5.346  0.5554  1.0066 -0.2814
11211TIP3    H255125   5.474   4.885   5.475 -0.7036  0.5792 -0.0507
11212TIP3   OH255126   3.134   3.356   5.480  0.2572  0.4235  0.1027
11212TIP3    H155127   3.139   3.431   5.421  1.8293  0.7003  0.5343
11212TIP3    H255128   3.175   3.285   5.431  1.3096  0.5830  0.7066
11213TIP3   OH255129   2.982   2.675  13.778  0.1775  0.0912  0.1267
11213TIP3    H155130   3.004   2.582  13.788  1.6401  0.4415  0.4971
11213TIP3    H255131   3.067   2.720  13.785 -0.4271  1.4095 -0.6497
11214TIP3   OH255132   3.880   4.986  10.607  0.2806  0.2621  0.2876
11214TIP3    H155133   3.822   5.006  10.680  2.1283  1.9676  1.3623
11214TIP3    H255134   3.968   4.989  10.644  1.4475  3.1261 -2.3277
11215TIP3   OH255135   2.508   3.248   0.826 -0.0374  0.3550  0.8222
11215TIP3    H155136   2.526   3.156   0.844  0.1361  0.2364  0.0686
11215TIP3    H255137   2.418   3.249   0.793  0.2433  0.3528  0.0524
11216TIP3   OH255138   0.006   5.534   0.068 -0.1295 -0.3329  0.2393
11216TIP3    H155139   0.064   5.545  -0.008  0.2026 -0.3765  0.4819
11216TIP3    H255140  -0.082   5.551   0.034  0.0896  0.3451 -0.0014
11217TIP3   OH255141   3.777   1.313   5.895  0.4012 -0.3452  0.0309
11217TIP3    H155142   3.711   1.325   5.963  0.6083 -0.7511  0.3104
11217TIP3    H255143   3.740   1.247   5.836  0.5660 -0.5873  0.1987
11218TIP3   OH255144   4.152   1.647  14.775  0.4883  0.1890  0.0131
11218TIP3    H155145   4.061   1.618  14.767  0.1510  0.8786  1.0882
11218TIP3    H255146   4.153   1.734  14.734  0.8575 -0.1569 -0.7237
11219TIP3   OH255147   2.710   4.236   5.275 -0.2224 -0.0954 -0.5048
11219TIP3    H155148   2.794   4.222   5.231 -0.1354 -0.6998 -0.1618
11219TIP3    H255149   2.692   4.152   5.318  0.1059  0.7167  1.3063
11220TIP3   OH255150   2.618   0.363   4.477  0.4688 -0.2595  0.2857
11220TIP3    H155151   2.651   0.442   4.521 -1.1574  0.6567 -0.0368
11220TIP3    H255152   2.679   0.348   4.405  1.0284  0.4829  0.5955
11221TIP3   OH255153   5.269   3.161  14.198 -0.3573  0.3225  0.1278
11221TIP3    H155154   5.280   3.226  14.129  0.8141  1.0554  0.9858
11221TIP3    H255155   5.218   3.091  14.157  0.0036  0.9093 -1.3547
11222TIP3   OH255156   2.158   2.986  15.041  0.1546  0.7624 -0.7107
11222TIP3    H155157   2.221   3.051  15.010  1.5028  0.4706  1.2383
11222TIP3    H255158   2.209   2.927  15.096 -1.2157 -1.4217 -1.6018
11223TIP3   OH255159   3.043   0.619  16.675 -0.6960  0.6366 -0.3195
11223TIP3    H155160   3.043   0.651  16.584 -1.2181 -4.9296 -2.6776
11223TIP3    H255161   3.134   0.595  16.692 -0.9399 -0.3220 -0.2930
11224TIP3   OH255162   1.630   3.085   3.030 -0.2363 -0.1655 -0.4007
11224TIP3    H155163   1.635   3.093   2.934 -2.4328 -1.4629 -0.6879
11224TIP3    H255164   1.538   3.104   3.050  0.5016  1.6155  1.6686
11225TIP3   OH255165   6.219   3.527   2.423  0.2291  0.2931  0.5047
11225TIP3    H155166   6.276   3.570   2.359 -0.1128  1.3924  0.9153
11225TIP3    H255167   6.154   3.594   2.446  1.1204  0.4257  2.9604
11226TIP3   OH255168   2.279   4.847  16.731 -0.7326 -0.2557 -0.3566
11226TIP3    H155169   2.314   4.816  16.647 -0.8823 -0.1930 -0.4424
11226TIP3    H255170   2.257   4.767  16.778 -0.9915 -0.2800 -0.5223
11227TIP3   OH255171   2.221   3.906  14.918  0.4905  0.2488  0.2253
11227TIP3    H155172   2.233   3.965  14.993 -0.4206  0.3126  0.3393
11227TIP3    H255173   2.294   3.925  14.860  1.0941  0.3483  1.0062
11228TIP3   OH255174   5.687   4.635  14.292 -0.2951 -0.1006 -0.3459
11228TIP3    H155175   5.691   4.723  14.254  0.0986 -0.1749 -0.4827
11228TIP3    H255176   5.685   4.576  14.217  2.3750 -0.3485 -0.3482
11229TIP3   OH255177   2.396   4.556  15.137  0.4235 -0.1924 -0.9178
11229TIP3    H155178   2.465   4.621  15.144  1.3955 -1.1040 -1.7598
11229TIP3    H255179   2.320   4.597  15.180  1.8666  0.2489  1.4004
11230TIP3   OH255180   2.349   0.308   6.192  0.6088 -0.1978 -0.5253
11230TIP3    H155181   2.426   0.355   6.223  0.5831 -0.7647  0.4547
11230TIP3    H255182   2.285   0.376   6.173  0.5552  0.1946  0.8985
11231TIP3   OH255183   0.457   2.427  16.823  0.8150 -0.0841 -0.0753
11231TIP3    H155184   0.398   2.496  16.853  0.7608  0.6955 -1.8518
11231TIP3    H255185   0.406   2.378  16.758  1.4190 -0.7233 -0.0803
11232TIP3   OH255186   0.558   4.198  14.709  0.7655 -0.2579  0.5648
11232TIP3    H155187   0.619   4.153  14.768 -0.2475  0.8756  2.5726
11232TIP3    H255188   0.486   4.136  14.697  0.2238  0.0817  1.8632
11233TIP3   OH255189   1.762   2.618  13.072  0.2270  0.8514 -0.2451
11233TIP3    H155190   1.673   2.623  13.107 -0.3468  0.6968 -1.5875
11233TIP3    H255191   1.816   2.590  13.145 -1.1568 -1.0231  0.1380
11234TIP3   OH255192   3.859   4.513  11.058  0.0191 -0.0833 -0.6937
11234TIP3    H155193   3.786   4.513  10.996  0.3284 -0.8353 -1.0754
11234TIP3    H255194   3.929   4.468  11.012  0.4691 -0.0696 -0.0354
11235TIP3   OH255195   0.388   0.371   4.585  0.1102 -0.0794 -0.2841
11235TIP3    H155196   0.339   0.381   4.504 -1.2073 -1.6884  0.2431
11235TIP3    H255197   0.326   0.329   4.645  0.7306  1.8503  1.8678
11236TIP3   OH255198   5.047   0.588  13.959 -0.1112  0.1116  0.2703
11236TIP3    H155199   4.992   0.666  13.961 -1.0377 -0.5427  1.5104
11236TIP3    H255200   5.062   0.572  13.865 -0.5655  1.2996 -0.0257
11237TIP3   OH255201   4.408   2.120   0.787 -0.3442 -0.0799  0.4964
11237TIP3    H155202   4.379   2.028   0.788  0.1184 -0.2975 -1.7153
11237TIP3    H255203   4.456   2.130   0.869 -1.0490 -1.5839  1.1433
11238TIP3   OH255204   0.325   3.361  11.123 -0.5154 -0.1456 -0.0054
11238TIP3    H155205   0.393   3.419  11.157  0.9461 -1.7227 -0.0938
11238TIP3    H255206   0.256   3.420  11.092  1.6927  1.6460 -1.8715
11239TIP3   OH255207   3.856   0.754   4.667 -0.6390 -0.4155  0.2637
11239TIP3    H155208   3.941   0.751   4.624  0.1959 -1.5882  1.9013
11239TIP3    H255209   3.851   0.843   4.703 -0.1220 -0.3391  0.1564
11240TIP3   OH255210   3.833   5.676   5.257  0.3992  0.3293  0.3734
11240TIP3    H155211   3.811   5.600   5.202 -1.6775  0.0885  1.4527
11240TIP3    H255212   3.902   5.645   5.315  0.0528 -0.5258  0.3381
11241TIP3   OH255213   1.079   3.588   1.609 -0.2181  0.2634 -0.5443
11241TIP3    H155214   1.096   3.513   1.552 -1.4565  0.1645 -0.7929
11241TIP3    H255215   0.995   3.570   1.649 -0.8759  1.8407 -1.1330
11242TIP3   OH255216   3.839   1.997  15.823  0.0806  0.0284 -0.4224
11242TIP3    H155217   3.892   2.074  15.841 -0.0456 -0.2379  1.2300
11242TIP3    H255218   3.748   2.027  15.831  0.0343 -0.3550  0.5568
11243TIP3   OH255219   4.864   4.971   1.313  0.0849  0.4625  0.0089
11243TIP3    H155220   4.816   4.935   1.239 -0.5824 -2.3248  1.6322
11243TIP3    H255221   4.797   4.984   1.381  1.0913 -0.0050  1.1287
11244TIP3   OH255222   0.737   1.369   4.282 -0.1911 -0.3949 -0.4893
11244TIP3    H155223   0.743   1.318   4.364  1.6700  0.6190  0.0605
11244TIP3    H255224   0.714   1.304   4.216  2.4117 -2.1225  0.1255
11245TIP3   OH255225   1.823   6.640   4.660  0.2915 -0.4805 -0.5477
11245TIP3    H155226   1.787   6.577   4.599 -2.2489  1.1584 -0.8605
11245TIP3    H255227   1.907   6.665   4.622  0.2725 -1.9245 -1.5994
11246TIP3   OH255228   5.233   2.126   1.672 -0.1957  0.7642 -0.1453
11246TIP3    H155229   5.272   2.043   1.648 -2.3128 -0.0930 -0.8717
11246TIP3    H255230   5.219   2.120   1.767  1.6169  1.2207  0.1838
11247TIP3   OH255231   0.133   2.338  15.222 -0.1296 -0.0295 -0.5658
11247TIP3    H155232   0.041   2.346  15.199 -0.4340  0.0235  0.6185
11247TIP3    H255233   0.135   2.276  15.295  0.8359 -0.4625 -0.9386
11248TIP3   OH255234   0.897   5.805  12.686 -0.1128  0.0673  0.0279
11248TIP3    H155235   0.874   5.779  12.775 -0.0803  0.3545  0.1194
11248TIP3    H255236   0.813   5.824  12.644 -0.3296 -2.1578 -0.6675
11249TIP3   OH255237   0.640   1.152   6.295  0.1519 -0.2586  0.3210
11249TIP3    H155238   0.549   1.128   6.313 -0.6767  0.3928 -2.4756
11249TIP3    H255239   0.674   1.079   6.242  1.1722 -0.3331  1.0542
11250TIP3   OH255240   0.803   0.221   1.082  0.1991  0.2957  0.5189
11250TIP3    H155241   0.733   0.272   1.124 -0.5822  0.0314 -0.4323
11250TIP3    H255242   0.862   0.287   1.045  0.3979  0.5200  1.2261
11251TIP3   OH255243   1.421   0.217   4.272 -0.3330 -0.5460  0.0949
11251TIP3    H155244   1.342   0.240   4.321  0.5817 -0.8570  1.7972
11251TIP3    H255245   1.449   0.299   4.232  0.4432  0.4348  2.4691
11252TIP3   OH255246   6.647   5.371  12.208  0.3862 -0.5739 -0.1503
11252TIP3    H155247   6.672   5.450  12.160  0.2089  0.1862  0.9766
11252TIP3    H255248   6.634   5.401  12.298  0.7385 -1.9785  0.3800
11253TIP3   OH255249   3.456   3.060   3.821  0.2030 -0.2981  0.1771
11253TIP3    H155250   3.543   3.050   3.780  0.2501 -1.2948  0.4909
11253TIP3    H255251   3.466   3.021   3.907 -1.0160 -2.0547 -0.4246
11254TIP3   OH255252   6.611   4.270   2.973  0.4521  0.1957 -0.0526
11254TIP3    H155253   6.668   4.193   2.976  0.1298 -0.0522  2.4970
11254TIP3    H255254   6.658   4.336   3.024 -0.6109  0.6686  0.3311
11255TIP3   OH255255   6.742   0.972   4.379 -0.1567  0.1245  0.2900
11255TIP3    H155256   6.679   0.899   4.386  0.8038 -0.8036 -0.5047
11255TIP3    H255257   6.779   0.964   4.291 -2.6180  3.7847 -1.3320
11256TIP3   OH255258   1.140   4.441  16.430 -0.1144  0.5875  0.2165
11256TIP3    H155259   1.079   4.401  16.493  0.8035 -1.4038 -0.0596
11256TIP3    H255260   1.117   4.401  16.346  0.6738  0.8521 -0.1338
11257TIP3   OH255261   5.223   5.738   0.729 -0.5880 -0.1103 -0.2348
11257TIP3    H155262   5.268   5.811   0.772  0.2621 -0.5410 -0.3657
11257TIP3    H255263   5.289   5.668   0.727 -1.2721 -0.7572 -0.4393
11258TIP3   OH255264   2.488   3.342   5.849 -0.0686  0.0791  0.0922
11258TIP3    H155265   2.409   3.326   5.901  0.4320  0.9181  1.1504
11258TIP3    H255266   2.546   3.269   5.870  0.3658  0.7234  1.2135
11259TIP3   OH255267   6.167   2.063  12.416 -0.1983  0.3576 -0.0189
11259TIP3    H155268   6.195   2.028  12.331 -0.5748  1.7354 -0.7383
11259TIP3    H255269   6.248   2.064  12.468  0.1039 -0.2166 -0.4629
11260TIP3   OH255270   6.371   2.063  11.687 -0.3973  0.2538  0.4209
11260TIP3    H155271   6.413   2.047  11.603 -3.3567 -0.7798 -1.0121
11260TIP3    H255272   6.438   2.041  11.752  1.9155  0.8914 -1.6247
11261TIP3   OH255273   5.452   2.471  16.702  0.1827 -0.1666 -0.5211
11261TIP3    H155274   5.439   2.564  16.685 -0.6866 -0.3280 -0.8187
11261TIP3    H255275   5.484   2.436  16.619  0.2877 -0.1696 -0.4790
11262TIP3   OH255276   4.906   4.862   3.936 -0.1810 -0.1236  0.2541
11262TIP3    H155277   4.935   4.818   3.856  2.3497 -0.9454  1.5209
11262TIP3    H255278   4.929   4.954   3.922  0.0636 -0.2280 -0.0493
11263TIP3   OH255279   4.540   6.656   5.870  0.0613  0.3965  0.3947
11263TIP3    H155280   4.603   6.667   5.941 -0.0332  1.5383  0.3292
11263TIP3    H255281   4.462   6.703   5.900  0.5977  2.3881 -1.1365
11264TIP3   OH255282   2.592   4.042   4.732  0.3254  0.6967  0.4364
11264TIP3    H155283   2.557   4.126   4.701  1.0540  0.3576 -1.4012
11264TIP3    H255284   2.686   4.048   4.719  0.2666 -0.9485 -1.2436
11265TIP3   OH255285   0.295   6.031   1.141 -0.0852  0.2073 -0.7026
11265TIP3    H155286   0.391   6.032   1.149 -0.1667 -0.8171  0.9573
11265TIP3    H255287   0.266   6.103   1.197 -0.2953  0.3465 -0.9931
11266TIP3   OH255288   1.253   4.530  16.185 -0.3833  0.4509 -0.0339
11266TIP3    H155289   1.270   4.572  16.269 -0.8309 -0.0356  0.3081
11266TIP3    H255290   1.219   4.444  16.208  1.8090 -0.6853 -0.7022
11267TIP3   OH255291   0.978   1.039  16.995 -0.0562  0.0041 -0.1380
11267TIP3    H155292   1.037   1.113  17.010  0.5033 -0.4063 -0.2402
11267TIP3    H255293   0.952   1.047  16.903 -0.2656  0.2617 -0.0557
11268TIP3   OH255294   0.508   6.402   4.813  0.3681  0.1881  0.2113
11268TIP3    H155295   0.515   6.339   4.741 -0.1077  0.6470 -0.2404
11268TIP3    H255296   0.469   6.480   4.773  1.4924  0.9881  0.6367
11269TIP3   OH255297   3.914   4.041   4.040 -0.3515 -0.5830 -0.2932
11269TIP3    H155298   3.972   4.032   3.965 -1.5585  3.0149 -1.9244
11269TIP3    H255299   3.972   4.058   4.114  0.7721 -1.4963 -0.9323
11270TIP3   OH255300   3.519   2.317  15.662 -0.1313  0.3051  0.0553
11270TIP3    H155301   3.477   2.389  15.614 -0.4501 -0.6914 -1.2338
11270TIP3    H255302   3.604   2.353  15.689 -0.7681  1.5370  0.4974
11271TIP3   OH255303   6.210   1.148  13.846  0.3646 -0.0504 -0.5028
11271TIP3    H155304   6.140   1.193  13.893  0.9567 -0.1247  0.4735
11271TIP3    H255305   6.177   1.059  13.834 -0.2893  0.2879 -1.3357
11272TIP3   OH255306   0.503   3.986   3.059 -0.3101  0.6063 -0.1171
11272TIP3    H155307   0.559   3.958   2.987 -0.9160 -0.4961 -0.1916
11272TIP3    H255308   0.473   3.904   3.098 -1.2701  1.1856  0.3869
11273TIP3   OH255309   6.618   0.971   0.692  0.2800  0.0178  0.1458
11273TIP3    H155310   6.577   0.993   0.608 -0.1300 -0.5527  0.1923
11273TIP3    H255311   6.689   1.035   0.701  0.5251 -0.1084 -0.7800
11274TIP3   OH255312   1.324   6.296  14.714 -0.5596  0.1558  0.1942
11274TIP3    H155313   1.357   6.265  14.799 -0.9451 -0.9460 -0.0449
11274TIP3    H255314   1.258   6.232  14.689 -0.1981  0.2798 -1.1170
11275TIP3   OH255315   0.797   5.853   2.371  0.5271  0.1301  0.5388
11275TIP3    H155316   0.731   5.865   2.302 -0.3516  0.9225  1.4699
11275TIP3    H255317   0.786   5.931   2.427  2.4859  0.4422  0.5394
11276TIP3   OH255318   3.551   3.488  15.098 -0.0123  0.1409  0.3057
11276TIP3    H155319   3.642   3.471  15.074 -0.2814  0.1530 -0.7774
11276TIP3    H255320   3.501   3.459  15.022 -0.7639  2.1508 -0.0169
11277TIP3   OH255321   5.366   1.300  15.547 -0.3447 -0.3968 -0.6020
11277TIP3    H155322   5.308   1.263  15.614 -0.4814 -1.9895 -1.5563
11277TIP3    H255323   5.435   1.234  15.536  0.6539  0.6491 -0.7905
11278TIP3   OH255324   4.767   0.203  12.224  0.1003 -0.2896  0.0008
11278TIP3    H155325   4.818   0.127  12.252  0.9242  0.5821  0.9279
11278TIP3    H255326   4.678   0.170  12.216  0.5485 -1.5000 -0.2397
11279TIP3   OH255327   6.694   6.315  10.919  0.0076 -0.7948 -0.2283
11279TIP3    H155328   6.764   6.365  10.876  0.1281 -0.4573  0.3470
11279TIP3    H255329   6.668   6.370  10.993  0.3741 -1.7262  0.6147
11280TIP3   OH255330   3.006   5.336  10.775 -0.3042 -0.3771  0.1284
11280TIP3    H155331   3.081   5.395  10.765 -1.0997  0.7811  0.7672
11280TIP3    H255332   2.941   5.369  10.713 -0.8694 -0.3805  0.7037
11281TIP3   OH255333   2.744   6.537   1.113  0.2520  0.1884 -0.3280
11281TIP3    H155334   2.771   6.445   1.117 -2.8928 -0.8155  0.1692
11281TIP3    H255335   2.777   6.575   1.194 -0.9322 -1.3296  0.9335
11282TIP3   OH255336   6.107   4.325   5.916  0.2549 -0.3785 -0.6650
11282TIP3    H155337   6.184   4.378   5.894 -0.7970  0.9707 -1.2182
11282TIP3    H255338   6.106   4.256   5.850  0.2709  0.3642 -1.4541
11283TIP3   OH255339   1.941   0.015  12.731  0.2535  0.1581 -0.2169
11283TIP3    H155340   1.848  -0.007  12.734 -0.5696  3.0478 -1.2280
11283TIP3    H255341   1.973  -0.022  12.649  0.2095 -1.3679  0.4201
11284TIP3   OH255342   3.115   4.444   5.627 -0.1625  0.1020 -0.4612
11284TIP3    H155343   3.198   4.396   5.627 -1.1483 -1.6750  0.9067
11284TIP3    H255344   3.135   4.524   5.676  0.1205 -1.6102  2.4547
11285TIP3   OH255345   6.460   0.610   4.540  0.1512  0.2786 -0.2740
11285TIP3    H155346   6.477   0.582   4.630  1.7323 -0.8849 -0.8846
11285TIP3    H255347   6.401   0.543   4.505  2.1254 -1.1446 -1.0429
11286TIP3   OH255348   5.775   6.140   1.213 -0.0321  0.1756  0.0926
11286TIP3    H155349   5.719   6.184   1.277 -1.1592 -0.4585 -0.4313
11286TIP3    H255350   5.862   6.176   1.228 -0.4681  0.7518  1.3224
11287TIP3   OH255351   0.442   4.215  14.102  0.2796 -0.2736  0.2108
11287TIP3    H155352   0.502   4.288  14.089  0.1066 -0.4325 -1.7409
11287TIP3    H255353   0.451   4.193  14.195  2.3211  0.4975  0.2481
11288TIP3   OH255354   2.918   0.985  11.849  0.8669  0.5801  0.3017
11288TIP3    H155355   2.848   0.976  11.785 -0.2712 -0.0299  1.5634
11288TIP3    H255356   2.957   1.070  11.831  0.7862  0.2850 -1.3685
11289TIP3   OH255357   4.843   4.696  13.841 -0.4966  0.3085 -0.5846
11289TIP3    H155358   4.849   4.714  13.747  1.1575  1.7231 -0.2747
11289TIP3    H255359   4.925   4.731  13.877 -0.3491 -1.6489  1.1792
11290TIP3   OH255360   3.836   1.836  11.062 -0.3806 -0.2471 -0.2340
11290TIP3    H155361   3.763   1.891  11.035 -0.5433 -0.0954  0.4987
11290TIP3    H255362   3.914   1.888  11.040 -0.5024 -0.2503 -0.6744
11291TIP3   OH255363   3.134   3.502  11.235  0.4507 -0.2233 -0.4295
11291TIP3    H155364   3.121   3.549  11.152 -1.9287 -0.3992 -0.2202
11291TIP3    H255365   3.219   3.460  11.225  1.3298  1.7015 -1.8124
11292TIP3   OH255366   5.786   0.138  13.664  0.3523 -0.0476 -0.4552
11292TIP3    H155367   5.821   0.071  13.722  0.2723 -0.8866 -1.3573
11292TIP3    H255368   5.720   0.093  13.611  0.4555  0.6739 -1.2304
11293TIP3   OH255369   6.756   0.122   1.203 -0.1963  0.2782  0.0109
11293TIP3    H155370   6.677   0.168   1.175  0.7633  0.2233 -3.3349
11293TIP3    H255371   6.826   0.185   1.190  0.5232 -0.2918  1.0094
11294TIP3   OH255372   2.298   2.631   0.052  0.3680 -0.0186 -0.5357
11294TIP3    H155373   2.228   2.691   0.079  0.2537 -0.9585  1.4783
11294TIP3    H255374   2.300   2.638  -0.044 -2.5399  0.0096 -0.6915
11295TIP3   OH255375   1.166   6.124  16.628 -0.0169  0.1795  0.2861
11295TIP3    H155376   1.167   6.216  16.655 -0.8853  1.1833 -2.6767
11295TIP3    H255377   1.074   6.105  16.611  0.4504  0.1865 -3.0666
11296TIP3   OH255378   0.909   1.042   3.385 -0.0138 -0.2450 -0.3344
11296TIP3    H155379   0.878   0.992   3.309  0.6383 -0.4360 -0.4807
11296TIP3    H255380   1.002   1.020   3.391 -0.0296 -0.1043  0.4251
11297TIP3   OH255381   1.225   6.066   2.185  0.0260  0.1987  0.7380
11297TIP3    H155382   1.180   5.983   2.177  0.2196 -0.0968  2.4573
11297TIP3    H255383   1.156   6.130   2.201 -0.0452  0.2627  0.2120
11298TIP3   OH255384   4.921   5.147  14.718 -0.3602 -0.2476 -0.0488
11298TIP3    H155385   4.947   5.193  14.638  1.5637  0.0007  0.6590
11298TIP3    H255386   4.979   5.182  14.786 -0.9624 -1.4913  1.1650
11299TIP3   OH255387   0.898   0.287   3.703  0.0440  0.0020  0.3289
11299TIP3    H155388   0.934   0.198   3.697 -0.7082 -0.2646 -0.4928
11299TIP3    H255389   0.812   0.275   3.744  0.1982  0.4283  0.7770
11300TIP3   OH255390   3.950   1.737   3.208 -0.3124 -0.6341 -0.1975
11300TIP3    H155391   4.038   1.731   3.170 -0.0288 -0.0526  0.3492
11300TIP3    H255392   3.893   1.698   3.142  0.0688  0.9977 -1.5860
11301TIP3   OH255393   0.648   4.125  16.362 -0.6753 -0.4092  0.5356
11301TIP3    H155394   0.574   4.064  16.358 -0.5206 -0.7812  2.4455
11301TIP3    H255395   0.659   4.155  16.272 -1.7650 -1.9952 -0.1798
11302TIP3   OH255396   2.876   4.780  15.994  0.5002  0.1847  0.0223
11302TIP3    H155397   2.807   4.844  15.976  0.6606  0.2538 -0.3501
11302TIP3    H255398   2.957   4.826  15.975  0.5772 -0.5107 -1.4798
11303TIP3   OH255399   1.885   2.121  16.721  0.4253 -0.1615 -0.6148
11303TIP3    H155400   1.827   2.147  16.793  0.6247  0.5074 -0.6965
11303TIP3    H255401   1.909   2.030  16.742  0.8663  0.1767  0.4297
11304TIP3   OH255402   0.205   6.007  15.494 -0.2207 -0.3821 -0.0067
11304TIP3    H155403   0.154   5.935  15.457  1.1268 -0.2097 -2.4122
11304TIP3    H255404   0.294   5.972  15.500  0.1438  0.5833  0.3312
11305TIP3   OH255405   3.439   1.464  11.954  0.7139  0.0380 -0.2410
11305TIP3    H155406   3.373   1.394  11.958  0.3658  0.3116 -1.0178
11305TIP3    H255407   3.483   1.451  11.870  1.6170 -0.0928  0.2324
11306TIP3   OH255408   6.795   4.585  12.369  0.5760 -0.0316 -0.1637
11306TIP3    H155409   6.837   4.664  12.335 -0.2982  0.5871  0.1379
11306TIP3    H255410   6.854   4.514  12.346  1.2909  0.6918 -0.6086
11307TIP3   OH255411   4.961   2.123   5.663 -0.0107 -0.5450 -0.0073
11307TIP3    H155412   4.901   2.055   5.633  0.9849 -2.1299  1.4271
11307TIP3    H255413   4.921   2.156   5.743 -0.2080  0.2023 -0.4040
11308TIP3   OH255414   0.682   2.180   0.544 -0.1194 -0.6397 -0.7478
11308TIP3    H155415   0.608   2.141   0.590 -0.1591 -0.6052 -0.7824
11308TIP3    H255416   0.717   2.108   0.490  0.8762 -1.1200  0.4763
11309TIP3   OH255417   2.019   6.174  14.072  0.0332  0.1240  0.7673
11309TIP3    H155418   2.053   6.193  14.159  1.6194 -0.8141  0.3867
11309TIP3    H255419   2.086   6.120  14.031 -1.0242 -0.0867 -0.7768
11310TIP3   OH255420   3.340   4.917  16.635  0.2923 -0.3955 -0.5310
11310TIP3    H155421   3.346   4.905  16.729 -0.7896  3.4235  0.1751
11310TIP3    H255422   3.246   4.922  16.617  0.5184  0.9796 -1.4409
11311TIP3   OH255423   1.328   3.351   3.844 -0.3618 -0.3388 -0.4946
11311TIP3    H155424   1.273   3.412   3.894  0.3433  1.0522 -1.3854
11311TIP3    H255425   1.391   3.318   3.909 -0.0209  0.7626 -0.2407
11312TIP3   OH255426   5.740   4.685   0.658 -0.2747  0.0984  0.2310
11312TIP3    H155427   5.661   4.680   0.712 -0.0053  0.0195  0.6267
11312TIP3    H255428   5.781   4.599   0.668 -0.2555  0.0615 -0.1546
11313TIP3   OH255429   0.225   2.551  12.987 -0.4572  0.2100 -0.3316
11313TIP3    H155430   0.137   2.563  13.024 -1.3189 -0.6655 -1.9904
11313TIP3    H255431   0.218   2.581  12.897  0.8894 -0.1111 -0.5712
11314TIP3   OH255432   6.423   4.765   4.615  0.1124  0.0922  0.0810
11314TIP3    H155433   6.403   4.671   4.613 -1.1691  0.3560 -0.3666
11314TIP3    H255434   6.454   4.781   4.704 -1.8932 -0.3487  0.9201
11315TIP3   OH255435   3.510   5.142  13.270  0.1042 -0.7768 -0.4111
11315TIP3    H155436   3.493   5.188  13.188 -0.1406  0.5068  0.3261
11315TIP3    H255437   3.506   5.210  13.337 -1.5301 -2.0718  0.8963
11316TIP3   OH255438   6.687   6.576   5.580 -0.1281 -0.0428  0.1594
11316TIP3    H155439   6.626   6.522   5.631 -0.9070  1.1382  0.5284
11316TIP3    H255440   6.697   6.529   5.497  0.1466 -1.3411  0.9023
11317TIP3   OH255441   4.555   2.167  12.610 -0.0609  0.4418 -0.0239
11317TIP3    H155442   4.506   2.208  12.538  0.6502 -1.7634 -1.9026
11317TIP3    H255443   4.544   2.073  12.595  0.3599 -0.0920  2.6486
11318TIP3   OH255444   5.651   0.431  16.245  0.5047 -0.6369  0.1537
11318TIP3    H155445   5.679   0.341  16.236  0.6639 -0.5253 -0.5472
11318TIP3    H255446   5.644   0.446  16.340  2.3574 -0.7972  0.3421
11319TIP3   OH255447   3.338   0.841  16.989  0.4359  0.1072  0.4386
11319TIP3    H155448   3.268   0.775  16.987  0.1854  0.3713 -1.5605
11319TIP3    H255449   3.417   0.791  17.005  0.0146 -0.4211  0.9237
11320TIP3   OH255450   2.168   5.385   6.434 -0.4976 -0.2466  0.5686
11320TIP3    H155451   2.092   5.356   6.382 -1.7555  0.2517  2.0556
11320TIP3    H255452   2.226   5.310   6.435 -0.8197 -0.5523 -0.8440
11321TIP3   OH255453   2.108   2.350  12.399 -0.2214  0.4978 -0.1814
11321TIP3    H155454   2.116   2.261  12.432  1.2124  0.3894 -0.7541
11321TIP3    H255455   2.138   2.345  12.308 -0.4731  1.5061 -0.3369
11322TIP3   OH255456   1.038   3.869   1.843  0.0105 -0.0434  0.2158
11322TIP3    H155457   0.989   3.929   1.898 -0.1270  0.6753 -0.6592
11322TIP3    H255458   1.130   3.883   1.866  0.1008  1.5366 -0.9299
11323TIP3   OH255459   4.535   0.004  12.259  0.7297  0.6007 -0.2404
11323TIP3    H155460   4.493   0.050  12.186  0.6339  4.2922  1.9219
11323TIP3    H255461   4.462  -0.028  12.312  0.7799  0.3087 -0.3430
11324TIP3   OH255462   5.180   6.430  14.903  0.0712  0.3295  0.3949
11324TIP3    H155463   5.188   6.524  14.892  3.2426  0.3259  1.6352
11324TIP3    H255464   5.213   6.393  14.822  2.4197  0.3654  1.2573
11325TIP3   OH255465   1.675   3.442  11.967 -0.0891 -0.2375 -0.1243
11325TIP3    H155466   1.679   3.521  11.913  0.5309 -0.4918 -0.4548
11325TIP3    H255467   1.763   3.432  12.002 -0.4599 -0.1285  0.8750
11326TIP3   OH255468   3.701   1.813  16.214 -0.0971 -0.3073 -1.1611
11326TIP3    H155469   3.776   1.832  16.159  0.8094 -2.8790 -0.9292
11326TIP3    H255470   3.648   1.753  16.162 -0.8120 -0.3476 -0.4077
11327TIP3   OH255471   3.467   3.485   0.678  0.9296  0.6431  0.0785
11327TIP3    H155472   3.558   3.457   0.667  0.3984 -0.9744 -0.5493
11327TIP3    H255473   3.467   3.577   0.651  2.2929  0.5613 -0.3019
11328TIP3   OH255474   0.720   1.392  14.887  0.0374  0.5123  0.2094
11328TIP3    H155475   0.656   1.325  14.866  0.6946 -0.3117  0.7588
11328TIP3    H255476   0.742   1.431  14.802 -0.0176 -0.2916 -0.1901
11329TIP3   OH255477   5.507   1.287   1.397  0.0053  0.8293 -0.5424
11329TIP3    H155478   5.592   1.303   1.355  0.8504 -0.7415  0.4593
11329TIP3    H255479   5.466   1.373   1.402  2.2472  1.9400  0.3928
11330TIP3   OH255480   5.529   3.367  12.976  0.6959  0.4532  0.1352
11330TIP3    H155481   5.545   3.404  12.890  0.0641  0.1105 -0.1376
11330TIP3    H255482   5.477   3.288  12.959  0.5411  0.3969  0.8301
11331TIP3   OH255483   6.396   6.220   5.610  0.1084  0.2914 -0.0044
11331TIP3    H155484   6.446   6.301   5.622  2.7074 -0.9638 -1.4127
11331TIP3    H255485   6.447   6.154   5.658 -0.5596 -0.9617 -0.9725
11332TIP3   OH255486   6.647   5.094  16.868  0.3129  0.1291  0.3493
11332TIP3    H155487   6.657   5.181  16.830 -0.9632  0.0333 -0.2508
11332TIP3    H255488   6.581   5.105  16.937  1.1097 -0.1144  1.1772
11333TIP3   OH255489   2.110   3.614   2.844  0.0283 -0.2079 -0.2835
11333TIP3    H155490   2.195   3.643   2.875 -1.1209  2.6787  0.5328
11333TIP3    H255491   2.088   3.675   2.774 -0.5830 -2.1056 -1.8177
11334TIP3   OH255492   2.273   6.564   5.464 -0.1990 -0.8898 -0.0021
11334TIP3    H155493   2.360   6.530   5.447  0.5375  0.8610  0.0229
11334TIP3    H255494   2.264   6.638   5.405 -0.7349  0.3841  1.5760
11335TIP3   OH255495   4.850   4.413  17.034  0.2842  0.1052 -0.1527
11335TIP3    H155496   4.895   4.494  17.012 -0.4889  0.6629  0.2755
11335TIP3    H255497   4.826   4.375  16.950 -0.9124  1.2285 -0.3509
11336TIP3   OH255498   1.909   6.687  16.446 -0.2271 -0.2771 -0.1458
11336TIP3    H155499   1.894   6.718  16.535 -0.6964 -0.3228 -0.2079
11336TIP3    H255500   1.977   6.746  16.412  2.0003 -1.9506  1.1427
11337TIP3   OH255501   4.442   6.794  11.063  0.5201  0.2770 -0.2706
11337TIP3    H155502   4.441   6.741  10.984  0.0667  0.0113 -0.0893
11337TIP3    H255503   4.402   6.739  11.130  0.0861  0.8265 -0.0696
11338TIP3   OH255504   5.607   3.808   0.560  0.3658 -0.4649  0.1561
11338TIP3    H155505   5.588   3.729   0.610 -0.3094 -0.3525  0.0831
11338TIP3    H255506   5.697   3.831   0.584 -0.1971  0.0243  1.8971
11339TIP3   OH255507   0.821   0.041   3.403 -0.5383 -0.0340  0.7361
11339TIP3    H155508   0.805   0.135   3.392 -3.4839 -0.6391 -1.3470
11339TIP3    H255509   0.767   0.016   3.477 -1.1170 -0.3555  0.2134
11340TIP3   OH255510   3.750   5.454   5.526  0.0846  0.2444  0.3402
11340TIP3    H155511   3.749   5.437   5.431  0.7346  1.6226  0.0467
11340TIP3    H255512   3.697   5.384   5.564 -0.0899 -0.4076 -1.0318
11341TIP3   OH255513   4.869   5.253   4.359  0.0349 -0.4718  0.4005
11341TIP3    H155514   4.819   5.184   4.402 -1.1809  0.2029  0.1270
11341TIP3    H255515   4.937   5.277   4.422 -0.9023 -0.4061  1.4249
11342TIP3   OH255516   4.381   6.660   4.704 -0.1187  0.2091 -0.1878
11342TIP3    H155517   4.319   6.733   4.700  1.3904  1.5676  0.1523
11342TIP3    H255518   4.393   6.634   4.612  0.6747  1.6160 -0.5147
11343TIP3   OH255519   5.721   3.587   1.842 -0.0063 -0.3406  0.7370
11343TIP3    H155520   5.697   3.514   1.899  1.8881 -0.8717  0.9379
11343TIP3    H255521   5.712   3.664   1.898  0.1724 -0.6729  1.2341
11344TIP3   OH255522   5.385   3.503  11.681 -0.1893 -0.3958 -0.0617
11344TIP3    H155523   5.465   3.487  11.631 -0.0032  1.5841 -0.4904
11344TIP3    H255524   5.314   3.487  11.619 -0.0337  0.1419 -0.3791
11345TIP3   OH255525   2.775   3.353  15.026 -0.0579  0.3255 -0.1080
11345TIP3    H155526   2.752   3.299  14.951  1.4191 -0.0371 -0.3410
11345TIP3    H255527   2.853   3.402  14.998  2.5853 -2.2120  2.1240
11346TIP3   OH255528   4.334   2.249  13.272 -0.1310 -0.5847  0.0871
11346TIP3    H155529   4.279   2.210  13.340  0.4187  0.5438  1.2036
11346TIP3    H255530   4.355   2.336  13.305  0.9194 -0.3607 -1.1118
11347TIP3   OH255531   0.173   6.198  13.543 -0.0911 -0.2625 -0.0480
11347TIP3    H155532   0.267   6.181  13.546 -0.0886 -0.0864  1.2645
11347TIP3    H255533   0.147   6.175  13.454  1.3166  0.3174 -0.6318
11348TIP3   OH255534   5.834   1.627   4.200  0.2955 -0.3516 -0.0973
11348TIP3    H155535   5.847   1.669   4.285 -3.5176  0.6427  0.1730
11348TIP3    H255536   5.770   1.557   4.217  0.0604 -0.6594 -2.0185
11349TIP3   OH255537   0.262   4.113   3.903  0.5761  0.2147  0.0308
11349TIP3    H155538   0.247   4.200   3.866  0.4853 -0.1655 -0.8509
11349TIP3    H255539   0.209   4.110   3.983 -0.1154  0.6468 -0.4096
11350TIP3   OH255540   0.111   6.253  16.871 -0.2474  0.2100 -0.0218
11350TIP3    H155541   0.094   6.282  16.781  1.5862 -0.1738 -0.5268
11350TIP3    H255542   0.043   6.188  16.888 -0.6702  0.3471 -1.0991
11351TIP3   OH255543   0.921   4.705   6.590 -0.1919  0.2451 -0.7538
11351TIP3    H155544   0.831   4.724   6.617  1.1757  4.8389  1.4653
11351TIP3    H255545   0.928   4.742   6.502 -0.0175  1.7041 -0.1467
11352TIP3   OH255546   5.669   0.726  15.800  0.0502 -0.2363  0.6486
11352TIP3    H155547   5.616   0.650  15.823  0.7288 -1.3028 -1.0699
11352TIP3    H255548   5.755   0.709  15.839 -0.4853  0.9315  2.4423
11353TIP3   OH255549   0.305   3.714   2.999 -0.2964  0.5163  0.2433
11353TIP3    H155550   0.396   3.715   3.030 -0.5562  1.8198  1.0251
11353TIP3    H255551   0.271   3.630   3.030  0.5089  0.2049  0.3300
11354TIP3   OH255552   3.238   6.772  13.130 -0.1477  1.0114 -0.6648
11354TIP3    H155553   3.154   6.726  13.132 -0.4172  1.5069 -0.1788
11354TIP3    H255554   3.215   6.863  13.114  0.1934  1.3349  0.5322
11355TIP3   OH255555   1.866   2.175   1.911 -0.4015 -0.4665 -0.5605
11355TIP3    H155556   1.894   2.185   2.002 -0.1127 -2.8494 -0.3132
11355TIP3    H255557   1.778   2.139   1.917  0.2493 -2.2700 -1.1303
11356TIP3   OH255558   1.519   3.709  15.786 -0.0783 -0.4111  0.9924
11356TIP3    H155559   1.474   3.657  15.720  2.0620 -0.4450 -0.5501
11356TIP3    H255560   1.504   3.663  15.868 -2.0004 -0.9012  0.3999
11357TIP3   OH255561   6.273   0.478  13.968  0.5657 -0.8773  0.5260
11357TIP3    H155562   6.319   0.413  14.020  0.8919 -2.6250 -1.7947
11357TIP3    H255563   6.341   0.536  13.935  0.7255 -1.4865 -0.2356
11358TIP3   OH255564   0.236   1.210  16.035  0.1690  0.2854 -0.1129
11358TIP3    H155565   0.306   1.251  15.983  0.8211 -1.7244 -0.9125
11358TIP3    H255566   0.282   1.158  16.100 -0.6134 -0.0727  0.1626
11359TIP3   OH255567   2.782   1.130  15.947 -0.2454 -0.0130 -0.0507
11359TIP3    H155568   2.797   1.206  16.003 -1.8762 -0.8260  1.5964
11359TIP3    H255569   2.806   1.055  16.002  0.3186 -0.7629 -1.2777
11360TIP3   OH255570   5.670   2.262   4.643  0.3293 -0.2272  0.0299
11360TIP3    H155571   5.759   2.284   4.615  0.5036 -0.2694  0.5578
11360TIP3    H255572   5.674   2.170   4.669  0.5797  0.2848  1.8757
11361TIP3   OH255573   5.660   0.171   0.068 -0.1117  0.2664  0.3349
11361TIP3    H155574   5.580   0.120   0.053  0.3847 -1.0914  2.0378
11361TIP3    H255575   5.669   0.176   0.163  1.1429  1.5227  0.1911
11362TIP3   OH255576   1.433   3.869   3.253  0.6250 -0.1786 -0.4717
11362TIP3    H155577   1.472   3.955   3.244 -0.6306  0.2806 -1.9736
11362TIP3    H255578   1.435   3.832   3.165  0.4830 -1.3906  0.0073
11363TIP3   OH255579   1.086   0.920   4.445 -0.1917 -0.8377 -0.5026
11363TIP3    H155580   1.077   0.866   4.523 -0.6128  0.5272  0.4255
11363TIP3    H255581   1.178   0.913   4.421  0.0545 -0.8713  0.4302
11364TIP3   OH255582   1.944   4.222  13.854  0.0536 -0.3802 -0.3456
11364TIP3    H155583   1.962   4.313  13.831 -0.5804 -0.2468 -0.3276
11364TIP3    H255584   2.016   4.173  13.814  0.1201  0.0711 -0.7912
11365TIP3   OH255585   6.659   4.515   3.396  0.0786  0.1496 -0.3771
11365TIP3    H155586   6.593   4.483   3.457 -0.8383  1.3369 -0.6913
11365TIP3    H255587   6.685   4.600   3.431  1.2281 -0.1654 -0.4273
11366TIP3   OH255588   2.070   3.224  11.258  0.1006  0.2725 -0.3517
11366TIP3    H155589   2.109   3.287  11.198  0.9747 -0.4947 -0.5999
11366TIP3    H255590   1.977   3.247  11.259  0.1358  0.5615 -1.6742
11367TIP3   OH255591   5.521   6.517   5.877 -0.6355  0.6841  0.1842
11367TIP3    H155592   5.465   6.455   5.923  0.8398 -1.4174 -0.6973
11367TIP3    H255593   5.570   6.562   5.945 -1.5714  0.7579  0.8254
11368TIP3   OH255594   1.595   3.074   5.070  0.3986 -0.4796 -0.0540
11368TIP3    H155595   1.575   3.161   5.104 -0.5621 -1.1939  1.3372
11368TIP3    H255596   1.625   3.025   5.147  0.9913 -1.3567 -0.8264
11369TIP3   OH255597   6.742   6.262  14.064 -0.2431  0.5000  0.3882
11369TIP3    H155598   6.719   6.353  14.046  0.2567  0.8097  1.2590
11369TIP3    H255599   6.666   6.212  14.035 -0.0773  1.0776 -1.1517
11370TIP3   OH255600   0.770   1.230  17.003 -0.0977  0.1869  0.3218
11370TIP3    H155601   0.779   1.137  16.983 -0.4339  0.5218 -1.5424
11370TIP3    H255602   0.703   1.261  16.943  1.0784  1.9409 -0.1540
11371TIP3   OH255603   1.435   0.560  15.757 -0.3460 -0.0048  0.0455
11371TIP3    H155604   1.382   0.539  15.680  0.7885 -0.8679 -0.5206
11371TIP3    H255605   1.480   0.642  15.734 -1.9643  1.1672  0.8295
11372TIP3   OH255606   5.253   5.924  14.327 -0.1735 -0.1986  0.5428
11372TIP3    H155607   5.226   5.942  14.236 -2.5982  1.3140  1.4442
11372TIP3    H255608   5.321   5.989  14.344 -1.3837  1.1482  0.4751
11373TIP3   OH255609   4.743   0.754   0.667  0.1356  0.3785  0.4796
11373TIP3    H155610   4.759   0.680   0.725 -0.5263 -0.1213  0.0334
11373TIP3    H255611   4.792   0.733   0.587  0.3262  0.6453  0.5258
11374TIP3   OH255612   5.183   1.979  11.648  0.3495 -0.2603 -0.0943
11374TIP3    H155613   5.099   1.962  11.690 -0.6650  2.5943 -0.7684
11374TIP3    H255614   5.240   2.007  11.719  0.0366  0.0505  0.0375
11375TIP3   OH255615   0.599   6.290   5.529 -0.2357  0.3556 -0.2974
11375TIP3    H155616   0.528   6.334   5.576  1.3738  2.5845  0.2065
11375TIP3    H255617   0.614   6.345   5.452  0.8375 -0.1658 -0.4808
11376TIP3   OH255618   4.796   4.719  14.888  0.1878  0.3692 -0.1675
11376TIP3    H155619   4.806   4.764  14.804  0.6662  0.2859 -0.1612
11376TIP3    H255620   4.703   4.725  14.908  0.3727  2.2200  0.3242
11377TIP3   OH255621   5.825   3.187   4.390  0.1679  0.5219 -0.2204
11377TIP3    H155622   5.826   3.093   4.407  2.0017  0.3103 -1.2424
11377TIP3    H255623   5.858   3.227   4.471 -1.7689  0.4392  0.6743
11378TIP3   OH255624   5.239   4.242  11.346 -0.1054 -0.3010  1.0554
11378TIP3    H155625   5.276   4.200  11.268  1.1922  0.3527  1.2894
11378TIP3    H255626   5.234   4.335  11.323 -3.2204 -0.4976  0.4369
11379TIP3   OH255627   0.953   1.111   4.871  0.1828  0.3084 -0.2686
11379TIP3    H155628   0.912   1.036   4.828 -2.1187  1.4241 -0.1409
11379TIP3    H255629   0.915   1.112   4.959  1.1541  0.8920  0.1636
11380TIP3   OH255630   4.166   3.432   4.476  0.2097 -0.1065  0.1990
11380TIP3    H155631   4.073   3.458   4.475 -0.1971 -1.4738  0.1847
11380TIP3    H255632   4.203   3.479   4.551 -0.5046  0.4150  0.2351
11381TIP3   OH255633   2.650   0.560  16.653  0.0321 -0.5836  0.5065
11381TIP3    H155634   2.581   0.625  16.659  1.2162  0.8746 -0.7280
11381TIP3    H255635   2.703   0.588  16.578  0.4671 -3.1135 -0.2374
11382TIP3   OH255636   5.556   3.977   1.402  0.8140  0.0078 -0.1237
11382TIP3    H155637   5.531   3.922   1.328  0.5931  0.3528 -0.3093
11382TIP3    H255638   5.473   4.015   1.433  0.8368 -0.5269  0.6233
11383TIP3   OH255639   3.348   3.961   1.796  0.1601  0.0009 -0.1622
11383TIP3    H155640   3.375   3.904   1.868  0.0654  2.0703  1.6409
11383TIP3    H255641   3.429   3.999   1.763  0.1824 -0.7704 -1.0224
11384TIP3   OH255642   1.577   6.239   3.805  0.3073 -0.0531 -0.3495
11384TIP3    H155643   1.534   6.231   3.890  0.3388  0.5613 -0.2687
11384TIP3    H255644   1.670   6.243   3.825  0.3122  0.1338 -0.4112
11385TIP3   OH255645   5.176   3.555  13.918  0.2363 -0.0453 -0.2678
11385TIP3    H155646   5.215   3.639  13.938  2.8579 -1.2726  0.1896
11385TIP3    H255647   5.094   3.553  13.967  1.2310  1.3356  1.5274
11386TIP3   OH255648   5.161   0.454   5.981  0.2317  0.0055  0.3549
11386TIP3    H155649   5.174   0.548   5.990 -2.9841  0.4786  1.4648
11386TIP3    H255650   5.201   0.416   6.058 -0.6412  0.7918  1.2228
11387TIP3   OH255651   2.019   6.507   0.897  0.6383 -0.3996  0.0654
11387TIP3    H155652   1.981   6.561   0.828  0.4736 -1.0441 -0.3466
11387TIP3    H255653   1.964   6.524   0.974  0.8059  0.2944  0.0382
11388TIP3   OH255654   4.094   1.636  13.925  0.1035 -0.2104  0.9321
11388TIP3    H155655   4.000   1.648  13.939  0.2385  2.2342  0.1106
11388TIP3    H255656   4.135   1.685  13.997  0.7954 -1.1462  1.2064
11389TIP3   OH255657   2.087   2.540  16.066  0.2175 -0.3288 -0.5419
11389TIP3    H155658   2.015   2.599  16.044  1.5046  0.9011 -1.7142
11389TIP3    H255659   2.125   2.577  16.145  2.0024  1.4760 -2.1279
11390TIP3   OH255660   3.524   0.383  13.250 -0.5081 -0.3055 -0.2965
11390TIP3    H155661   3.494   0.305  13.203 -0.5511 -0.5333  0.1019
11390TIP3    H255662   3.494   0.457  13.196 -1.8024 -0.5244  0.0990
11391TIP3   OH255663   5.962   4.357   4.057  0.0032 -0.1445 -0.2718
11391TIP3    H155664   5.936   4.348   4.149  0.8044 -1.7637 -0.1696
11391TIP3    H255665   6.037   4.298   4.048  0.6836  0.8859 -1.6881
11392TIP3   OH255666   6.644   5.904   5.373  0.5586 -0.0189  0.0855
11392TIP3    H155667   6.658   5.883   5.281 -0.4517 -0.1895 -0.0383
11392TIP3    H255668   6.550   5.923   5.380  0.9783  2.1351  0.6386
11393TIP3   OH255669   3.247   2.332  16.751 -0.3366  0.0816  0.3887
11393TIP3    H155670   3.188   2.257  16.740 -0.3916  0.3556 -1.5759
11393TIP3    H255671   3.308   2.304  16.819 -1.0211 -1.3120  0.4726
11394TIP3   OH255672   3.234   4.823   0.767  0.2699 -0.0284  0.2405
11394TIP3    H155673   3.219   4.738   0.724 -2.6720 -0.9395  2.6843
11394TIP3    H255674   3.269   4.800   0.853 -1.8390  1.0247  1.4673
11395TIP3   OH255675   5.601   1.285  11.389  0.2515  0.0616 -0.7738
11395TIP3    H155676   5.649   1.267  11.308  1.8948  1.6686 -0.2367
11395TIP3    H255677   5.548   1.206  11.403  0.8576 -0.7729 -2.7337
11396TIP3   OH255678   0.361   2.214   6.822 -0.3880 -0.2677  0.2449
11396TIP3    H155679   0.449   2.225   6.858 -1.0935 -0.5317  2.1723
11396TIP3    H255680   0.317   2.297   6.841 -0.8341 -0.4810  0.1445
11397TIP3   OH255681   5.869   4.473  14.525 -0.7336 -0.5631  0.0847
11397TIP3    H155682   5.904   4.387  14.504  0.9243  0.2440 -0.6759
11397TIP3    H255683   5.885   4.526  14.446  0.7490  1.1254  1.4232
11398TIP3   OH255684   3.782   5.373  16.560  0.1489  0.1405 -0.0055
11398TIP3    H155685   3.809   5.298  16.506  1.0985  0.3329  0.1839
11398TIP3    H255686   3.853   5.436  16.550 -0.4437  0.8443  0.1803
11399TIP3   OH255687   3.779   4.880   3.735  0.0374  0.7706 -0.0725
11399TIP3    H155688   3.748   4.847   3.651  0.3328 -1.1158  0.5202
11399TIP3    H255689   3.861   4.832   3.751 -1.4342 -1.0959  2.5871
11400TIP3   OH255690   2.201   3.936   5.358  0.3753  0.3875 -0.0846
11400TIP3    H155691   2.172   3.938   5.267  0.0023  1.5341  0.0360
11400TIP3    H255692   2.236   3.848   5.371  0.5702  0.2606 -1.3710
11401TIP3   OH255693   2.818   5.635  10.990 -0.1730 -0.0207 -0.1634
11401TIP3    H155694   2.808   5.540  10.989 -1.5776  0.1179 -0.8562
11401TIP3    H255695   2.758   5.667  10.923  0.3132  1.3603  0.0246
11402TIP3   OH255696   4.081   3.770   1.611  0.2370 -0.0188  0.0679
11402TIP3    H155697   4.056   3.752   1.701  0.7885  3.6270  1.0955
11402TIP3    H255698   4.044   3.857   1.592  0.2893 -0.5669 -3.1820
11403TIP3   OH255699   2.925   3.053   3.853 -0.0543 -0.2523 -0.2988
11403TIP3    H155700   2.960   3.073   3.767 -1.0730  0.7418 -0.5071
11403TIP3    H255701   3.001   3.033   3.906  0.8097  1.3188 -0.8700
11404TIP3   OH255702   3.678   3.853   0.706  0.3912  0.4314 -0.3581
11404TIP3    H155703   3.740   3.813   0.645 -0.2327 -0.3418 -0.5056
11404TIP3    H255704   3.733   3.888   0.776  0.9781 -0.9519 -0.0822
11405TIP3   OH255705   1.488   0.639  11.961  0.0471 -0.2838  0.6532
11405TIP3    H155706   1.426   0.580  11.919 -0.4363  0.2204  0.6544
11405TIP3    H255707   1.526   0.690  11.889 -0.7732  0.5722  0.8147
11406TIP3   OH255708   5.795   3.651  12.975 -0.1728 -0.1929  0.0669
11406TIP3    H155709   5.852   3.594  13.027 -0.4855  0.5049  1.2266
11406TIP3    H255710   5.825   3.639  12.885  1.8669  0.1776  0.6280
11407TIP3   OH255711   0.957   6.702   3.967  0.5238  0.2192 -0.1289
11407TIP3    H155712   0.906   6.780   3.985 -0.5228 -0.8580  1.9992
11407TIP3    H255713   0.894   6.641   3.928  0.7776 -0.2866  0.2419
11408TIP3   OH255714   3.955   1.806   1.972  0.2877  0.6164 -0.2962
11408TIP3    H155715   4.004   1.850   2.042  0.4966 -1.4853  0.9633
11408TIP3    H255716   4.021   1.790   1.904  0.6555  0.5237  0.0757
11409TIP3   OH255717   5.495   2.392  15.705  0.2738 -0.5157 -0.4302
11409TIP3    H155718   5.429   2.426  15.766 -0.4014 -0.5375 -1.1418
11409TIP3    H255719   5.500   2.298  15.725  0.6291 -0.3925  0.1110
11410TIP3   OH255720   6.028   5.723   5.370  0.1437 -0.2409  0.0893
11410TIP3    H155721   6.043   5.818   5.367  0.3835 -0.1687  2.1739
11410TIP3    H255722   6.096   5.690   5.429  0.2210 -1.7721 -0.8094
11411TIP3   OH255723   6.556   1.629   3.588  0.0346 -0.3186 -0.0309
11411TIP3    H155724   6.603   1.678   3.522  1.1417 -2.3541 -0.8403
11411TIP3    H255725   6.624   1.585   3.639 -0.8848 -0.6562  0.9455
11412TIP3   OH255726   4.134   3.507  10.599 -0.1514  0.2293 -0.0229
11412TIP3    H155727   4.123   3.462  10.683  1.9054 -0.1438  0.1082
11412TIP3    H255728   4.063   3.476  10.545 -0.5141 -0.8629  1.0451
11413TIP3   OH255729   3.667   3.214   6.484 -0.1722  0.3525  0.4811
11413TIP3    H155730   3.747   3.265   6.496  1.4019 -1.9355  0.2491
11413TIP3    H255731   3.654   3.170   6.568 -1.4175  0.9619  0.6289
11414TIP3   OH255732   6.539   5.833   6.046 -0.2353  0.1785  0.2738
11414TIP3    H155733   6.524   5.797   5.958 -1.3774 -0.8903  0.8621
11414TIP3    H255734   6.457   5.879   6.067  0.4716  1.4432  0.3279
11415TIP3   OH255735   3.519   4.779  12.907  0.2511  0.2452  0.1156
11415TIP3    H155736   3.581   4.707  12.920 -1.2126 -0.7310  2.2024
11415TIP3    H255737   3.434   4.742  12.929 -0.9210  1.9570 -1.2440
11416TIP3   OH255738   4.537   0.574  11.268  0.3338  0.1323  0.6370
11416TIP3    H155739   4.483   0.501  11.240  2.3370 -0.8472 -0.9619
11416TIP3    H255740   4.550   0.561  11.362 -0.5739 -0.6872  0.6557
11417TIP3   OH255741   6.724   3.558  15.354 -0.1215  0.2301 -0.0662
11417TIP3    H155742   6.720   3.586  15.445  0.2316 -0.5047  0.1852
11417TIP3    H255743   6.785   3.484  15.354  0.6689  0.8524 -1.0726
11418TIP3   OH255744   5.870   3.836  16.189 -0.1016 -0.6859  0.0122
11418TIP3    H155745   5.924   3.809  16.263 -0.5244  0.4241  0.7570
11418TIP3    H255746   5.787   3.789  16.201 -0.7009  0.5683  1.0971
11419TIP3   OH255747   3.803   6.772  16.073 -0.1683 -0.0663 -0.4430
11419TIP3    H155748   3.766   6.720  16.145  1.8725 -2.8927 -1.2651
11419TIP3    H255749   3.874   6.822  16.114 -0.9932  0.7483  0.0293
11420TIP3   OH255750   0.025   2.133  13.892 -0.2646 -0.7170  0.1818
11420TIP3    H155751   0.007   2.163  13.803 -2.9109 -0.5643  0.6701
11420TIP3    H255752  -0.042   2.177  13.946  2.8521  1.3570  2.7513
11421TIP3   OH255753   1.414   5.308   0.048  0.1941 -0.5379 -0.3293
11421TIP3    H155754   1.368   5.378   0.095  0.1764  0.8736 -2.3330
11421TIP3    H255755   1.345   5.247   0.023  0.2451 -1.5291  1.6903
11422TIP3   OH255756   5.406   3.417   3.147  0.2779  0.3654  0.2179
11422TIP3    H155757   5.321   3.381   3.120 -1.0093  1.7370  2.1272
11422TIP3    H255758   5.398   3.425   3.243  2.2794  1.2458  0.3468
11423TIP3   OH255759   6.612   0.378   4.411  0.2222 -0.5329 -0.5500
11423TIP3    H155760   6.547   0.400   4.477  1.4201  0.9554  0.1973
11423TIP3    H255761   6.686   0.342   4.460  0.7286 -0.3667 -1.1706
11424TIP3   OH255762   3.785   2.055  12.663 -0.1803  0.2191 -0.6056
11424TIP3    H155763   3.853   2.012  12.713 -0.3491  0.3527 -0.2593
11424TIP3    H255764   3.703   2.016  12.694 -0.3138  0.5839 -0.4871
11425TIP3   OH255765   5.868   3.280  17.025 -0.9413  0.1583 -0.2668
11425TIP3    H155766   5.831   3.342  17.088  1.7901  1.5327  0.1296
11425TIP3    H255767   5.819   3.297  16.945 -0.4518  2.8004 -0.1278
11426TIP3   OH255768   1.274   4.206   3.939  0.2288  0.0813 -0.1315
11426TIP3    H155769   1.240   4.292   3.916  2.6363  1.3512  0.8489
11426TIP3    H255770   1.212   4.173   4.005 -0.4982  1.2034 -0.2259
11427TIP3   OH255771   2.072   0.019  14.405  0.4310  0.1438 -0.3898
11427TIP3    H155772   2.151  -0.026  14.374  0.3984  0.4653 -0.9504
11427TIP3    H255773   2.000  -0.032  14.368  0.3853  0.2501 -0.4470
11428TIP3   OH255774   4.567   3.701  15.666 -0.2496  0.5081 -0.4283
11428TIP3    H155775   4.653   3.706  15.624 -0.3040  1.9021 -0.4262
11428TIP3    H255776   4.573   3.625  15.724  0.9363  0.5076 -0.5251
11429TIP3   OH255777   1.514   3.316  11.155 -0.0906 -0.4677  0.3997
11429TIP3    H155778   1.512   3.399  11.202 -1.6613  0.4831 -1.2450
11429TIP3    H255779   1.425   3.282  11.161  0.5569 -2.1413  1.1596
11430TIP3   OH255780   6.448   1.387   4.983 -0.9996  0.2496 -0.0057
11430TIP3    H155781   6.510   1.316   5.004  0.4718  1.3743 -0.4009
11430TIP3    H255782   6.383   1.346   4.927 -1.0736 -1.1632  1.0585
11431TIP3   OH255783   1.133   3.560  14.716 -0.0559  0.1434  0.0827
11431TIP3    H155784   1.137   3.649  14.682  2.0949  0.2429  0.4654
11431TIP3    H255785   1.181   3.507  14.652 -1.3427 -0.7630 -0.1620
11432TIP3   OH255786   2.503   6.058  10.956 -0.3372  0.1377 -0.3298
11432TIP3    H155787   2.515   5.989  10.891 -1.1258  1.1105 -1.5630
11432TIP3    H255788   2.586   6.105  10.957 -0.0907 -0.2975 -0.1239
11433TIP3   OH255789   6.699   0.876  13.502  0.6310 -0.5323  0.8590
11433TIP3    H155790   6.700   0.782  13.486 -0.3401 -0.5268  0.6585
11433TIP3    H255791   6.625   0.889  13.561 -0.7770  0.3589 -0.9906
11434TIP3   OH255792   3.785   6.553  15.260  0.3716  0.3993 -0.1355
11434TIP3    H155793   3.694   6.530  15.280  0.9287 -1.2846  0.6113
11434TIP3    H255794   3.780   6.644  15.231 -1.2924  1.0142  1.8423
11435TIP3   OH255795   4.799   5.233   4.081  0.0338  0.1792  0.3841
11435TIP3    H155796   4.881   5.269   4.048  0.1509 -0.8961 -0.5898
11435TIP3    H255797   4.814   5.222   4.175  0.8379  0.4252  0.2965
11436TIP3   OH255798   2.290   1.200   2.469  0.1011  0.5146  0.2819
11436TIP3    H155799   2.223   1.152   2.420  0.0619  0.3631  0.4823
11436TIP3    H255800   2.290   1.160   2.556  2.0006 -1.0010 -0.3338
11437TIP3   OH255801   5.889   3.909   4.258 -0.3443  0.0685  0.4660
11437TIP3    H155802   5.888   3.816   4.280  2.4583 -0.0808  0.3165
11437TIP3    H255803   5.848   3.952   4.334 -2.7012 -1.2875  0.0446
11438TIP3   OH255804   1.399   6.019  16.300  0.1331  0.2545 -0.3930
11438TIP3    H155805   1.391   6.007  16.205 -1.0170 -0.9708 -0.1805
11438TIP3    H255806   1.348   6.098  16.318  0.9442  0.8985 -0.8665
11439TIP3   OH255807   6.493   1.460  15.358  0.5608 -0.1412  0.0366
11439TIP3    H155808   6.451   1.504  15.432  0.6677  0.9986 -0.5455
11439TIP3    H255809   6.501   1.369  15.385  2.0025  0.5255  2.0481
11440TIP3   OH255810   3.859   6.062  13.467  0.4383  0.1723  0.2313
11440TIP3    H155811   3.850   6.075  13.561  0.8109 -1.8408  0.6040
11440TIP3    H255812   3.799   6.125  13.428  2.0299  2.7158  1.6607
11441TIP3   OH255813   6.452   2.374   0.791 -0.1931  0.6615 -1.2770
11441TIP3    H155814   6.369   2.390   0.745 -0.9145 -0.9967 -0.6125
11441TIP3    H255815   6.427   2.355   0.881  0.7888 -0.9682 -1.3035
11442TIP3   OH255816   5.164   3.076   2.797  0.7141  0.2498  0.3005
11442TIP3    H155817   5.244   3.037   2.762 -0.0296 -0.6765 -0.4308
11442TIP3    H255818   5.175   3.071   2.892  1.9124  0.9875  0.2169
11443TIP3   OH255819   1.481   4.863   2.886  0.3002 -0.3342 -0.3526
11443TIP3    H155820   1.399   4.890   2.928 -0.0494 -2.2585  0.2940
11443TIP3    H255821   1.538   4.837   2.959  1.1769  0.1047 -0.8567
11444TIP3   OH255822   1.771   6.665   5.826  0.1171 -0.6499  0.0611
11444TIP3    H155823   1.789   6.576   5.794 -0.0709 -0.1020 -1.6649
11444TIP3    H255824   1.851   6.714   5.806 -0.5417  0.0499 -0.9275
11445TIP3   OH255825   1.444   6.001   0.577 -0.5415 -0.1460  0.3922
11445TIP3    H155826   1.366   5.946   0.589  0.0811 -0.9592  0.8287
11445TIP3    H255827   1.440   6.028   0.485 -1.5464  0.1568  0.5141
11446TIP3   OH255828   3.081   3.747  15.235 -0.2387 -0.0737  0.1781
11446TIP3    H155829   3.149   3.700  15.186 -1.1425 -0.9415 -0.2688
11446TIP3    H255830   2.999   3.718  15.196 -0.9697 -0.4904  1.9294
11447TIP3   OH255831   6.317   0.751   2.370 -0.1241  0.2070  0.3363
11447TIP3    H155832   6.374   0.692   2.419 -0.2782 -0.0392  0.2251
11447TIP3    H255833   6.365   0.834   2.366  0.8057 -0.3531 -0.8270
11448TIP3   OH255834   5.793   0.658  15.020  0.2644 -0.5685 -0.4122
11448TIP3    H155835   5.802   0.750  15.047  2.0692 -0.8221 -0.0075
11448TIP3    H255836   5.860   0.612  15.070 -1.2770 -2.3188  0.1664
11449TIP3   OH255837   6.655   4.249  13.405 -0.8729 -0.4239  0.0809
11449TIP3    H155838   6.652   4.293  13.320 -1.0122  0.9798  0.7815
11449TIP3    H255839   6.644   4.157  13.385 -0.8793 -0.1169 -1.4275
11450TIP3   OH255840   3.850   3.500   1.619  0.3932  0.1838 -0.2018
11450TIP3    H155841   3.873   3.550   1.697  0.7121  0.9536 -0.7736
11450TIP3    H255842   3.862   3.562   1.546 -2.4327  0.3216 -0.6550
11451TIP3   OH255843   1.752   1.698  14.693  0.6925 -0.2693  0.0652
11451TIP3    H155844   1.824   1.739  14.741  2.1406 -0.0362 -2.1581
11451TIP3    H255845   1.704   1.772  14.655 -0.7172 -0.4303  1.4218
11452TIP3   OH255846   3.606   0.412  14.730  0.3981  0.0900  0.5712
11452TIP3    H155847   3.549   0.426  14.654  2.9110  0.4809 -1.3753
11452TIP3    H255848   3.652   0.331  14.710  2.5546  1.2265  0.6469
11453TIP3   OH255849   5.922   5.188  15.010 -0.7256 -0.2621  0.6001
11453TIP3    H155850   5.976   5.216  14.936 -1.6144  1.8967  0.6873
11453TIP3    H255851   5.971   5.217  15.087  0.0131 -2.1649  0.9032
11454TIP3   OH255852   3.184   0.432  11.916 -0.2619  0.0121  0.4196
11454TIP3    H155853   3.194   0.475  12.001  1.6738  0.8998 -0.1917
11454TIP3    H255854   3.103   0.469  11.880 -0.7060  0.1807  1.5434
11455TIP3   OH255855   4.084   4.835  13.865 -0.2332 -0.2215 -0.6592
11455TIP3    H155856   4.040   4.873  13.788  1.5654 -1.1814 -2.2700
11455TIP3    H255857   4.079   4.741  13.851 -2.7172 -0.6517  2.1671
11456TIP3   OH255858   1.569   0.465   3.382 -0.0003 -0.1418  0.3994
11456TIP3    H155859   1.528   0.446   3.298  0.2355  0.9207  0.0228
11456TIP3    H255860   1.502   0.444   3.447 -0.3036 -0.6436 -0.0686
11457TIP3   OH255861   5.419   3.630  13.620 -0.5984 -0.4188  0.3872
11457TIP3    H155862   5.392   3.538  13.616 -0.8284 -0.4048  1.4124
11457TIP3    H255863   5.353   3.676  13.568 -0.6666 -0.7959  0.1342
11458TIP3   OH255864   3.204   2.735  13.944 -0.0676 -0.4268 -0.4886
11458TIP3    H155865   3.263   2.774  14.008 -0.6842  2.8863 -1.7351
11458TIP3    H255866   3.117   2.748  13.982 -0.2717 -1.0002 -0.7560
11459TIP3   OH255867   4.365   4.490   4.715 -0.0091  0.3163  0.3778
11459TIP3    H155868   4.309   4.546   4.769  0.6211 -0.8997  2.3613
11459TIP3    H255869   4.304   4.444   4.657 -0.7864  1.0270  0.6154
11460TIP3   OH255870   6.022   0.914   0.700  0.1753 -0.3121  0.2418
11460TIP3    H155871   5.954   0.982   0.698 -0.4049 -0.9024 -1.4694
11460TIP3    H255872   6.055   0.917   0.790 -0.1348  1.9220  0.3451
11461TIP3   OH255873   5.423   5.780   3.734 -0.3289 -0.1923  0.5254
11461TIP3    H155874   5.387   5.729   3.806  1.5813 -1.4203  0.6807
11461TIP3    H255875   5.495   5.829   3.774  0.9087 -1.0761 -0.5548
11462TIP3   OH255876   6.181   3.430  16.279 -0.0292 -0.0354  0.2182
11462TIP3    H155877   6.231   3.428  16.197 -1.3707  0.9222 -0.6871
11462TIP3    H255878   6.092   3.455  16.251 -1.3222 -2.7136  1.5994
11463TIP3   OH255879   4.817   4.484  12.136 -0.2495 -0.0090  0.6718
11463TIP3    H155880   4.765   4.500  12.058 -1.0841 -1.0946  0.9798
11463TIP3    H255881   4.815   4.567  12.184  0.6168  0.8014 -0.6192
11464TIP3   OH255882   5.657   1.402   4.308 -0.4180  0.2661  0.2774
11464TIP3    H155883   5.601   1.422   4.384  0.6540  1.0603  0.8751
11464TIP3    H255884   5.737   1.366   4.346 -0.4718 -0.7925 -0.5709
11465TIP3   OH255885   2.781   3.597   5.664  0.0245 -0.2720 -0.1195
11465TIP3    H155886   2.827   3.681   5.662  0.7582 -0.6385  0.5294
11465TIP3    H255887   2.846   3.534   5.632 -0.1308 -0.7575  0.5083
11466TIP3   OH255888   6.795   3.988  12.846 -0.2391  0.0204  0.2543
11466TIP3    H155889   6.891   3.983  12.845 -0.2382  0.0430 -0.0007
11466TIP3    H255890   6.767   3.900  12.873 -0.1426  0.1208  0.6873
11467TIP3   OH255891   6.754   2.151   0.406  0.3918 -0.7805  0.1502
11467TIP3    H155892   6.677   2.101   0.379  0.0818  0.7283 -2.0330
11467TIP3    H255893   6.718   2.229   0.448  0.7127 -0.3389 -0.3721
11468TIP3   OH255894   3.322   3.241   5.304 -0.2109  0.1467 -0.0053
11468TIP3    H155895   3.259   3.207   5.241 -2.4375  0.9005  1.6656
11468TIP3    H255896   3.362   3.316   5.260  0.7490 -1.2748 -1.6744
11469TIP3   OH255897   5.534   2.765  17.180 -0.2459  0.1283  0.5697
11469TIP3    H155898   5.485   2.751  17.261 -0.1644  0.4473  0.6774
11469TIP3    H255899   5.602   2.698  17.181 -0.3852 -0.0110  0.6552
11470TIP3   OH255900   0.424   1.821  13.988  0.0167 -0.4817  0.1634
11470TIP3    H155901   0.501   1.845  14.040 -0.9564 -0.3226  1.5725
11470TIP3    H255902   0.383   1.905  13.966 -0.4926 -0.6111  0.5936
11471TIP3   OH255903   1.135   4.487  13.251  0.0092  0.0131 -0.1633
11471TIP3    H155904   1.142   4.561  13.191 -0.5527  0.1740 -0.0381
11471TIP3    H255905   1.049   4.496  13.291  0.3346 -0.1579  0.5943
11472TIP3   OH255906   5.003   4.773   6.006  0.2210 -0.6825 -0.6490
11472TIP3    H155907   5.079   4.747   6.058  0.1802  1.4719  0.6100
11472TIP3    H255908   4.928   4.739   6.054  0.3042 -1.2839 -0.9387
11473TIP3   OH255909   3.986   2.279  15.833  0.4069  0.5022 -0.7008
11473TIP3    H155910   3.990   2.298  15.927 -0.7815  0.7390 -0.6901
11473TIP3    H255911   3.913   2.332  15.801 -0.1946 -0.7619 -1.4710
11474TIP3   OH255912   3.989   2.177  14.131  0.3674  0.2684 -0.1875
11474TIP3    H155913   3.899   2.160  14.102  0.3974  1.6305 -1.1287
11474TIP3    H255914   3.979   2.214  14.219  0.0984 -0.6506  0.1893
11475TIP3   OH255915   2.654   6.332   4.450  0.8356 -0.1972  0.1140
11475TIP3    H155916   2.603   6.251   4.458 -0.3937  0.5201 -0.1998
11475TIP3    H255917   2.639   6.362   4.360  1.3269  0.3471  0.2044
11476TIP3   OH255918   4.566   2.044   1.536  0.3818  0.1471 -0.2038
11476TIP3    H155919   4.534   1.956   1.559  0.1937  0.1476 -0.4550
11476TIP3    H255920   4.659   2.031   1.519  0.6331  0.2450  1.0557
11477TIP3   OH255921   3.229   0.864  15.175 -0.2410  0.0439 -0.3496
11477TIP3    H155922   3.199   0.862  15.084  0.1027 -0.6280 -0.4561
11477TIP3    H255923   3.237   0.772  15.199  0.6524  0.2120  0.0311
11478TIP3   OH255924   3.220   4.756  11.240 -0.3840 -0.3104  0.1115
11478TIP3    H155925   3.155   4.686  11.242 -0.7498  0.0283  0.2080
11478TIP3    H255926   3.188   4.816  11.172 -0.2831 -0.0374  0.3042
11479TIP3   OH255927   1.636   4.458   2.346  0.0155  0.0746 -0.8194
11479TIP3    H155928   1.676   4.464   2.260  0.7591 -1.7665 -0.6467
11479TIP3    H255929   1.555   4.508   2.338 -0.0931 -0.3271 -2.6948
11480TIP3   OH255930   5.478   5.192  13.731  0.0259  0.4234  0.0869
11480TIP3    H155931   5.390   5.225  13.747 -0.2808 -0.5292  0.4392
11480TIP3    H255932   5.531   5.270  13.715 -1.1676  0.9253 -1.6016
11481TIP3   OH255933   4.009   3.651  14.335  0.3787 -0.0197 -0.1545
11481TIP3    H155934   4.051   3.620  14.255  0.7045  0.8484 -0.3316
11481TIP3    H255935   3.926   3.690  14.306  1.1792  1.6588 -0.2750
11482TIP3   OH255936   2.707   5.390   4.745 -0.6067  0.3230 -0.1730
11482TIP3    H155937   2.649   5.316   4.765 -1.2693  0.8309 -0.1699
11482TIP3    H255938   2.721   5.433   4.830 -2.6413  1.9168 -0.5632
11483TIP3   OH255939   4.952   2.086   4.152  0.0140  0.1728  0.0729
11483TIP3    H155940   5.023   2.027   4.126 -0.6165  0.0273 -1.4162
11483TIP3    H255941   4.987   2.174   4.136  0.3469  0.1684  0.7074
11484TIP3   OH255942   5.438   6.328  12.594  0.0690  0.2249 -0.5356
11484TIP3    H155943   5.380   6.261  12.632 -1.1007  1.7269  0.4257
11484TIP3    H255944   5.489   6.361  12.667  0.8798  0.1918 -1.0660
11485TIP3   OH255945   3.006   1.512   3.098 -0.1437 -0.5032 -0.2065
11485TIP3    H155946   2.981   1.490   3.008 -1.9729 -1.2383  0.4303
11485TIP3    H255947   2.965   1.597   3.115 -1.0972 -1.0658  0.3992
11486TIP3   OH255948   2.917   4.434   4.154 -0.0631 -0.4200  0.0741
11486TIP3    H155949   2.858   4.498   4.194  0.1740  0.0729 -0.3503
11486TIP3    H255950   2.871   4.351   4.160  0.0626 -0.3978  1.5737
11487TIP3   OH255951   0.274   1.873   5.713  0.3637  0.3966  0.0882
11487TIP3    H155952   0.250   1.962   5.691  2.1107  0.5961 -1.1726
11487TIP3    H255953   0.279   1.827   5.629 -2.8287 -1.6071  0.8085
11488TIP3   OH255954   5.020   6.109  11.821  0.3233 -0.0177  0.1430
11488TIP3    H155955   5.104   6.138  11.785  0.7532 -1.3389  0.0127
11488TIP3    H255956   4.978   6.063  11.748  0.3497 -1.0369  0.7497
11489TIP3   OH255957   0.437   3.388   6.062  0.3403 -0.0159 -0.9328
11489TIP3    H155958   0.458   3.472   6.020 -3.2617  1.2014 -0.6609
11489TIP3    H255959   0.457   3.402   6.154 -0.8112  0.8301 -0.7885
11490TIP3   OH255960   0.327   2.830   6.019  0.4426 -0.0468  0.9201
11490TIP3    H155961   0.376   2.792   6.092  0.8139  0.6636  1.0386
11490TIP3    H255962   0.349   2.923   6.020  0.9866 -0.1325 -0.5139
11491TIP3   OH255963   3.149   4.909   1.495  0.3884  0.0384 -0.4990
11491TIP3    H155964   3.202   4.974   1.450  0.2649 -0.4993 -1.4367
11491TIP3    H255965   3.211   4.862   1.551  0.4728  0.9619  0.2298
11492TIP3   OH255966   5.178   4.756   1.902 -0.4794  0.5378  0.4347
11492TIP3    H155967   5.127   4.773   1.982 -1.0627  0.3791  0.1001
11492TIP3    H255968   5.113   4.728   1.838  0.1199 -0.2869  0.1818
11493TIP3   OH255969   1.156   0.588   5.317 -0.5004  0.7554 -0.3554
11493TIP3    H155970   1.216   0.653   5.354  0.0379  0.8480 -1.3579
11493TIP3    H255971   1.143   0.616   5.226 -2.1133  0.7702 -0.1522
11494TIP3   OH255972   0.535   1.644  17.021 -0.0851 -0.3821 -0.4535
11494TIP3    H155973   0.558   1.612  17.108 -1.3532  1.3825  0.5968
11494TIP3    H255974   0.499   1.568  16.976  0.0768 -1.1998  0.7615
11495TIP3   OH255975   1.007   5.234   6.030 -0.3577 -0.2670  0.0910
11495TIP3    H155976   1.044   5.165   6.085 -0.8833 -2.9915 -2.7177
11495TIP3    H255977   1.019   5.314   6.081  2.5598 -2.0295  2.4793
11496TIP3   OH255978   6.450   0.739  14.179  0.1686 -0.2059  0.4743
11496TIP3    H155979   6.417   0.748  14.090  1.4469 -0.0792 -0.0070
11496TIP3    H255980   6.462   0.644  14.190  0.9228 -0.1584  0.1480
11497TIP3   OH255981   0.324   0.136  16.826  0.0565 -1.1182  0.5406
11497TIP3    H155982   0.349   0.166  16.914 -0.7684  0.0453  0.3948
11497TIP3    H255983   0.235   0.103  16.837  0.2656 -1.7734  0.3044
11498TIP3   OH255984   3.443   0.272  12.110  0.1581 -0.0636  0.2290
11498TIP3    H155985   3.394   0.236  12.036 -0.6668 -0.7283  1.0721
11498TIP3    H255986   3.381   0.269  12.183  0.7554  1.1563  0.8169
11499TIP3   OH255987   1.037   2.841   4.324 -0.0329  0.0263  0.1074
11499TIP3    H155988   1.025   2.814   4.415  0.3328 -1.1881 -0.1965
11499TIP3    H255989   1.069   2.931   4.331  1.6168 -0.6027  1.2436
11500TIP3   OH255990   3.096   3.012   1.524 -0.1588  0.6887  0.1569
11500TIP3    H155991   3.145   3.078   1.573  3.4046 -2.0046  0.6001
11500TIP3    H255992   3.018   2.997   1.577  0.2283  2.6399  1.3940
11501TIP3   OH255993   1.083   0.869  16.736 -0.4362 -0.4872  0.5599
11501TIP3    H155994   1.110   0.894  16.647  0.3207 -0.4851  0.7907
11501TIP3    H255995   1.017   0.935  16.760  0.6260  0.5685  0.6726
11502TIP3   OH255996   5.685   1.260   3.491  0.3412  0.1648 -0.5076
11502TIP3    H155997   5.675   1.322   3.563 -0.8127  0.7186 -1.1140
11502TIP3    H255998   5.610   1.277   3.434  0.0602 -1.6878 -0.7688
11503TIP3   OH255999   6.523   1.895  16.215  0.3776  0.8160  0.1190
11503TIP3    H156000   6.577   1.971  16.238 -0.2704  1.0986  0.7372
11503TIP3    H256001   6.585   1.832  16.177  0.9496  1.5875 -0.2555
11504TIP3   OH256002   1.376   3.762   0.269  0.3362 -0.0031 -0.3638
11504TIP3    H156003   1.436   3.719   0.330  0.4948 -1.1574 -1.2908
11504TIP3    H256004   1.432   3.802   0.203  0.2128  2.0792  0.6994
11505TIP3   OH256005   6.426   3.887  13.846  0.3539 -0.2130  0.1126
11505TIP3    H156006   6.392   3.920  13.762  2.5478 -1.7369 -1.4736
11505TIP3    H256007   6.348   3.880  13.902 -0.9024  2.7895 -1.0497
11506TIP3   OH256008   6.403   2.195   4.690 -0.1110  0.0533 -0.1033
11506TIP3    H156009   6.355   2.128   4.738  0.3386  0.6045  1.1522
11506TIP3    H256010   6.360   2.277   4.713  0.5880  0.4085 -0.0298
11507TIP3   OH256011   5.033   5.220  14.075  0.1381 -0.0954 -0.2507
11507TIP3    H156012   4.957   5.259  14.117 -0.7386 -0.3210 -1.5575
11507TIP3    H256013   5.053   5.279  14.002  0.5101 -0.6425 -0.6052
11508TIP3   OH256014   3.045   4.570  11.917  0.1983  0.5410  0.1153
11508TIP3    H156015   3.021   4.479  11.899  0.6119  0.5103 -0.2899
11508TIP3    H256016   2.963   4.612  11.939  0.1172 -0.1329  1.1692
11509TIP3   OH256017   6.320   3.626  11.347  0.2295 -0.0821  0.0494
11509TIP3    H156018   6.320   3.556  11.281  0.7363 -0.0435  0.0028
11509TIP3    H256019   6.372   3.696  11.307 -0.6860  0.5253 -0.1117
11510TIP3   OH256020   6.074   4.081   2.033 -0.1702  0.5720 -0.4886
11510TIP3    H156021   6.135   4.015   2.067  1.0707  1.9030 -0.0367
11510TIP3    H256022   6.046   4.045   1.948 -1.7211 -1.8271  0.9052
11511TIP3   OH256023   6.264   2.114   6.389 -0.7656  0.6901 -0.0530
11511TIP3    H156024   6.301   2.132   6.475 -0.2532 -0.1117 -0.0962
11511TIP3    H256025   6.173   2.141   6.396 -1.6504 -2.2801  1.7797
11512TIP3   OH256026   4.080   2.027  12.750 -0.0525 -0.3912  0.0256
11512TIP3    H156027   4.125   2.100  12.793 -0.0681 -0.8714  0.8802
11512TIP3    H256028   4.063   2.058  12.661  1.0947  0.1591 -0.0119
11513TIP3   OH256029   4.225   3.736   3.533  0.3728  0.7282 -0.4472
11513TIP3    H156030   4.187   3.658   3.492  0.5783  0.8709 -0.9241
11513TIP3    H256031   4.263   3.704   3.614 -1.9280  0.8243  0.7343
11514TIP3   OH256032   0.232   1.419   2.996  0.3901  0.2043 -0.3467
11514TIP3    H156033   0.275   1.419   2.910 -2.2288 -1.4578 -1.7774
11514TIP3    H256034   0.140   1.401   2.977 -0.9719  3.1187  2.5814
11515TIP3   OH256035   4.643   1.549  16.040 -0.4308 -0.1158 -0.0110
11515TIP3    H156036   4.698   1.487  16.088 -2.0348 -0.5170  1.4127
11515TIP3    H256037   4.661   1.531  15.947 -2.0351 -3.9751  0.2420
11516TIP3   OH256038   5.364   5.973   5.010  0.9387 -0.1263 -0.2206
11516TIP3    H156039   5.449   5.943   5.042  0.7811  0.3287  0.6777
11516TIP3    H256040   5.312   5.987   5.090  0.1756  0.0423 -0.7311
11517TIP3   OH256041   6.395   1.767  16.420  0.3134  0.5673  0.7433
11517TIP3    H156042   6.445   1.820  16.358 -1.5746  2.0133  0.3795
11517TIP3    H256043   6.336   1.829  16.462  1.6412 -0.3152  4.2093
11518TIP3   OH256044   4.782   1.402  14.428 -0.1919 -0.1869 -0.2024
11518TIP3    H156045   4.823   1.460  14.364  0.3699  0.1097  0.4050
11518TIP3    H256046   4.773   1.318  14.383 -1.9269  0.6073 -1.4303
11519TIP3   OH256047   2.653   3.300  11.308 -0.0638  0.0794  0.3295
11519TIP3    H156048   2.579   3.268  11.256  0.6490 -0.0103 -0.6508
11519TIP3    H256049   2.714   3.336  11.244  0.5747  0.5170  1.1602
11520TIP3   OH256050   2.035   5.467  14.400  0.3262 -0.7854 -0.0099
11520TIP3    H156051   2.130   5.464  14.392  0.2862  0.0545 -0.9384
11520TIP3    H256052   2.011   5.555  14.371 -0.7381 -0.9898  0.2060
11521TIP3   OH256053   0.331   3.205  14.274  0.0668  0.3489  0.2168
11521TIP3    H156054   0.375   3.125  14.244  0.5638  1.2201 -1.5470
11521TIP3    H256055   0.244   3.176  14.301  1.0733 -1.1461  2.0539
11522TIP3   OH256056   1.783   3.020  14.719  0.3580 -0.8256 -0.0774
11522TIP3    H156057   1.714   3.016  14.785  1.6003 -2.0466  1.2299
11522TIP3    H256058   1.859   3.054  14.766  0.8683 -0.2588 -1.2802
11523TIP3   OH256059   0.158   5.462  10.867 -0.8100  0.3796 -0.0373
11523TIP3    H156060   0.124   5.377  10.838 -0.8067  0.4212 -0.1631
11523TIP3    H256061   0.161   5.515  10.788 -0.4537  0.3794 -0.0217
11524TIP3   OH256062   4.613   3.316  12.433  0.5866  0.3101  0.3243
11524TIP3    H156063   4.684   3.336  12.371 -0.0895 -0.8229 -0.8783
11524TIP3    H256064   4.619   3.384  12.500  3.1002 -0.0236  0.5258
11525TIP3   OH256065   0.775   2.844   3.245 -0.2472  0.4591 -0.1828
11525TIP3    H156066   0.835   2.838   3.171  0.5896 -0.1748  0.5292
11525TIP3    H256067   0.805   2.920   3.295  0.9873 -0.7528  1.0155
11526TIP3   OH256068   1.748   3.327   0.507 -0.6004  0.5735  0.2334
11526TIP3    H156069   1.783   3.247   0.546 -0.6139 -0.9117 -2.5870
11526TIP3    H256070   1.797   3.339   0.427 -0.9758  3.1535  0.2915
11527TIP3   OH256071   0.541   1.408   3.856 -0.6019 -0.3301 -0.0256
11527TIP3    H156072   0.517   1.317   3.869 -2.2529  0.2657  1.5638
11527TIP3    H256073   0.463   1.458   3.883 -0.6849  1.5055 -3.2026
11528TIP3   OH256074   3.066   0.291  12.685  0.0920 -0.2561  0.1991
11528TIP3    H156075   3.098   0.380  12.667 -0.7778  0.0725  0.2554
11528TIP3    H256076   3.092   0.241  12.608  0.6943  0.0130  0.2162
11529TIP3   OH256077   1.455   2.040   1.107  0.0224  0.2988 -0.4007
11529TIP3    H156078   1.518   1.975   1.136 -0.8982 -1.0281 -1.2770
11529TIP3    H256079   1.490   2.072   1.023 -0.1309  0.0502 -0.5598
11530TIP3   OH256080   4.003   2.769  10.564  0.5293  0.2703 -0.6544
11530TIP3    H156081   4.016   2.676  10.584  0.2973  0.1384 -1.1089
11530TIP3    H256082   4.092   2.806  10.564  0.4927  0.4900  1.5433
11531TIP3   OH256083   5.803   6.814  14.795  0.1451 -0.4410 -0.3442
11531TIP3    H156084   5.728   6.786  14.848 -0.9214  2.0017 -0.4447
11531TIP3    H256085   5.764   6.852  14.717  1.4533  1.2722 -0.2073
11532TIP3   OH256086   4.767   0.181   0.043  0.3306 -0.2776 -0.0716
11532TIP3    H156087   4.816   0.106   0.076 -0.7547 -1.5137 -1.1481
11532TIP3    H256088   4.814   0.208  -0.036  0.4928 -0.0573  0.0975
11533TIP3   OH256089   3.138   2.061   2.982 -0.0346 -0.4565  0.1302
11533TIP3    H156090   3.120   1.989   3.042 -0.7164  1.5263  2.4210
11533TIP3    H256091   3.184   2.126   3.035  0.4010  0.9234 -1.8160
11534TIP3   OH256092   4.391   1.135   2.425 -0.4772 -0.4300  0.0811
11534TIP3    H156093   4.405   1.178   2.340 -0.6369  0.0971  0.3203
11534TIP3    H256094   4.303   1.098   2.419 -1.5285  1.7965  0.9355
11535TIP3   OH256095   6.112   6.791   0.697 -0.0320 -0.0515 -0.4290
11535TIP3    H156096   6.107   6.788   0.793  0.9173  1.2588 -0.3145
11535TIP3    H256097   6.051   6.860   0.673 -1.1431 -1.1456 -0.8918
11536TIP3   OH256098   3.031   5.744  14.498 -0.1139  0.3639  0.0230
11536TIP3    H156099   3.000   5.691  14.425  1.0781  0.1690 -0.3739
11536TIP3    H256100   2.983   5.827  14.489 -1.9976 -0.6062  0.6599
11537TIP3   OH256101   2.497   1.851   2.695  0.0476 -0.0962 -0.0134
11537TIP3    H156102   2.565   1.881   2.756  0.9682 -0.9882 -0.5750
11537TIP3    H256103   2.535   1.865   2.609 -0.6599 -0.2244 -0.3509
11538TIP3   OH256104   5.359   4.283   2.646 -0.3690  0.2039  0.9122
11538TIP3    H156105   5.310   4.280   2.564 -2.0860 -1.0464  1.9189
11538TIP3    H256106   5.447   4.252   2.623 -0.0560  2.1961 -0.8789
11539TIP3   OH256107   6.400   1.539   2.154 -0.4970 -0.3433  0.4764
11539TIP3    H156108   6.387   1.509   2.244 -1.6817  0.7458  0.7041
11539TIP3    H256109   6.458   1.615   2.163  0.4543 -1.0174  0.1668
11540TIP3   OH256110   2.704   0.955  11.675 -0.7389 -0.7687  0.4330
11540TIP3    H156111   2.713   0.887  11.608 -0.4042 -2.0269  1.6989
11540TIP3    H256112   2.622   0.934  11.720 -0.7481 -0.2028  0.6873
11541TIP3   OH256113   5.988   5.810  17.150 -0.0693 -0.5329 -0.5247
11541TIP3    H156114   5.996   5.872  17.222 -0.4131 -0.8323 -0.2300
11541TIP3    H256115   6.075   5.771  17.142  0.1974  0.1084 -0.8261
11542TIP3   OH256116   4.617   3.711   4.650  0.5882  0.1190  0.2766
11542TIP3    H156117   4.563   3.775   4.697 -1.1026 -2.6635  2.4881
11542TIP3    H256118   4.644   3.649   4.718  3.1238 -0.9013 -1.5359
11543TIP3   OH256119   5.571   0.780   0.602 -0.3936  0.2220  1.2645
11543TIP3    H156120   5.503   0.715   0.620 -0.0289 -0.7098 -0.5115
11543TIP3    H256121   5.620   0.788   0.684 -0.5508 -1.6150  1.5658
11544TIP3   OH256122   2.748   4.238   5.578  0.1748  0.3379 -0.4788
11544TIP3    H156123   2.662   4.270   5.605  1.1639  1.2050  1.9139
11544TIP3    H256124   2.800   4.317   5.564  0.5997 -0.1781 -1.9942
11545TIP3   OH256125   5.465   4.943   5.110 -0.6521  0.4340  0.1308
11545TIP3    H156126   5.528   4.903   5.171 -0.0144  0.4992 -0.4775
11545TIP3    H256127   5.502   4.927   5.023 -1.7370  0.0402 -0.2617
11546TIP3   OH256128   1.998   3.535  12.762 -0.3606  0.0170 -0.0832
11546TIP3    H156129   2.035   3.528  12.850  0.3363  0.0635 -0.3634
11546TIP3    H256130   2.027   3.454  12.718 -2.6483 -1.1548  0.4210
11547TIP3   OH256131   1.836   0.217  16.566 -0.5277 -0.0481 -0.0114
11547TIP3    H156132   1.823   0.214  16.472  0.6576  0.5283 -0.2061
11547TIP3    H256133   1.822   0.309  16.589 -0.0747 -0.0482  0.2631
11548TIP3   OH256134   1.580   6.692   5.517  0.3357 -0.6238 -0.0929
11548TIP3    H156135   1.538   6.718   5.435  1.4471 -2.1131 -1.1919
11548TIP3    H256136   1.592   6.774   5.564 -0.1691  0.3085 -1.4990
11549TIP3   OH256137   1.368   5.299   0.419  0.0440  0.3861 -0.0097
11549TIP3    H156138   1.444   5.242   0.408 -0.7007 -0.2299 -2.5005
11549TIP3    H256139   1.402   5.387   0.399  0.3637  0.2979  0.1309
11550TIP3   OH256140   0.498   5.468  15.099 -0.0039 -0.3353  0.1373
11550TIP3    H156141   0.587   5.503  15.096 -0.4784  0.8902 -0.1494
11550TIP3    H256142   0.507   5.386  15.147  1.4907 -0.9030 -1.0086
11551TIP3   OH256143   0.660   2.312   1.654  0.0386 -0.5668  0.3389
11551TIP3    H156144   0.745   2.353   1.670  0.0796 -0.1477 -0.8618
11551TIP3    H256145   0.664   2.281   1.564 -1.7948  1.2894 -0.4567
11552TIP3   OH256146   1.271   5.719   1.728 -0.3079  0.0155  0.0058
11552TIP3    H156147   1.183   5.682   1.724  0.0818 -0.9447  0.1450
11552TIP3    H256148   1.308   5.686   1.809  0.1797  0.4298 -0.0405
11553TIP3   OH256149   6.169   4.722  15.665 -0.1063  0.3444 -0.4488
11553TIP3    H156150   6.110   4.704  15.592 -1.7875  0.6096  0.7590
11553TIP3    H256151   6.210   4.805  15.643 -1.9989  1.3809 -0.3130
11554TIP3   OH256152   5.434   0.183  11.578  0.7415 -0.6147 -0.4361
11554TIP3    H156153   5.440   0.249  11.646  2.9096 -1.6020  0.4409
11554TIP3    H256154   5.474   0.224  11.501  1.6018 -0.7007 -0.0468
11555TIP3   OH256155   4.745   3.736   5.850 -0.3850 -0.2315 -0.1518
11555TIP3    H156156   4.801   3.740   5.773  0.3821  1.0911  0.4428
11555TIP3    H256157   4.705   3.649   5.846  1.3395 -1.0451 -0.8702
11556TIP3   OH256158   6.129   5.618   2.607  0.2225 -0.1074  0.6648
11556TIP3    H156159   6.177   5.596   2.687 -2.6100  0.5702  2.7116
11556TIP3    H256160   6.186   5.589   2.536  2.6439 -1.2588  2.9090
11557TIP3   OH256161   5.917   4.878  16.286 -0.4534  0.4944 -0.2351
11557TIP3    H156162   5.975   4.824  16.234 -0.1208 -1.3227  1.8660
11557TIP3    H256163   5.964   4.960  16.297  1.0941 -0.4173  0.2030
11558TIP3   OH256164   5.001   4.028  13.516 -0.5614 -0.1737  0.0344
11558TIP3    H156165   5.000   3.962  13.585  1.0388 -0.8293 -0.5142
11558TIP3    H256166   5.036   4.106  13.558 -1.7004  0.1113  0.4883
11559TIP3   OH256167   6.523   3.931  13.576 -0.6931  0.2026 -0.4024
11559TIP3    H156168   6.548   3.931  13.483 -1.4899 -1.3431 -0.6587
11559TIP3    H256169   6.479   3.847  13.588  1.3026 -0.5862  1.9306
11560TIP3   OH256170   6.294   1.756  16.868 -0.3880  0.2659  1.0034
11560TIP3    H156171   6.360   1.689  16.850 -1.0818 -0.8335  2.3901
11560TIP3    H256172   6.214   1.707  16.884 -1.1892  1.5012  0.8879
11561TIP3   OH256173   2.186   2.631   3.348  0.2641  0.0175  0.1064
11561TIP3    H156174   2.133   2.709   3.362 -0.8893 -0.7285  0.0608
11561TIP3    H256175   2.186   2.587   3.433 -2.3072 -1.8230 -0.6898
11562TIP3   OH256176   5.282   5.531   3.781  0.4401 -0.0376  0.7369
11562TIP3    H156177   5.339   5.521   3.704 -0.8840  0.4092 -0.3516
11562TIP3    H256178   5.316   5.469   3.845  0.1441 -2.2275 -1.0897
11563TIP3   OH256179   0.727   2.651  17.105 -0.5303 -0.1338 -0.3193
11563TIP3    H156180   0.795   2.692  17.052  0.7468  1.8360  2.6131
11563TIP3    H256181   0.674   2.725  17.136 -2.5622 -1.4268 -0.5258
11564TIP3   OH256182   1.125   2.803   6.354  0.2393  0.1359  0.6225
11564TIP3    H156183   1.102   2.887   6.394  0.3611 -0.1611  1.3245
11564TIP3    H256184   1.152   2.748   6.427 -0.9042 -0.8813  0.3130
11565TIP3   OH256185   6.578   6.254   0.961 -0.2087 -0.0331  0.8797
11565TIP3    H156186   6.627   6.194   1.016  0.0109  0.5201  1.2887
11565TIP3    H256187   6.641   6.284   0.896 -0.6036 -1.1045 -0.0283
11566TIP3   OH256188   5.643   1.645  16.199 -0.4662  0.2456 -0.5708
11566TIP3    H156189   5.626   1.730  16.239 -0.5106  0.5422 -1.2129
11566TIP3    H256190   5.574   1.634  16.134 -0.2782 -0.1423 -0.7119
11567TIP3   OH256191   4.543   2.798   5.828  0.9360 -0.0958  0.3426
11567TIP3    H156192   4.574   2.745   5.902  3.3091  0.1021 -0.4196
11567TIP3    H256193   4.623   2.833   5.789 -0.1604 -0.6180 -2.6549
11568TIP3   OH256194   6.235   2.197   4.008 -0.4388 -0.1952 -0.1208
11568TIP3    H156195   6.321   2.224   4.039 -0.6908 -0.9213  1.2847
11568TIP3    H256196   6.244   2.103   3.988 -0.6116 -0.0203 -1.1031
11569TIP3   OH256197   4.029   5.722   0.156 -0.4601 -0.1188 -0.3213
11569TIP3    H156198   4.111   5.734   0.203  0.2718 -0.1790 -1.5519
11569TIP3    H256199   4.014   5.806   0.112 -1.6813  0.2934  0.8345
11570TIP3   OH256200   2.964   6.821   3.061 -0.1559 -0.0332 -0.0123
11570TIP3    H156201   2.940   6.826   3.154  1.9542 -0.3470  0.5975
11570TIP3    H256202   2.890   6.860   3.015 -1.2780  0.0748  1.7948
11571TIP3   OH256203   5.894   6.676  13.445  0.1528  0.1331  0.0040
11571TIP3    H156204   5.888   6.581  13.460 -0.7700  0.1731 -0.0533
11571TIP3    H256205   5.803   6.706  13.446  0.4264  0.9898 -0.1888
11572TIP3   OH256206   6.352   5.501   2.185 -0.0688  0.8339  0.0785
11572TIP3    H156207   6.314   5.511   2.098  0.8206 -0.0602 -0.4288
11572TIP3    H256208   6.277   5.497   2.244 -0.6638  2.3951 -0.5205
11573TIP3   OH256209   6.184   5.354  14.074  0.4904 -0.2330 -0.7136
11573TIP3    H156210   6.101   5.347  14.121  1.1142  1.7913  0.8321
11573TIP3    H256211   6.251   5.354  14.142  1.5063  1.5184 -1.6392
11574TIP3   OH256212   6.344   2.017  15.423 -0.3055  0.5925 -0.1317
11574TIP3    H156213   6.293   1.937  15.407  0.1395 -0.2826  2.4379
11574TIP3    H256214   6.361   2.051  15.335 -1.5991 -1.4270 -1.2688
11575TIP3   OH256215   4.684   3.713   0.340  0.1403  0.4560 -0.1840
11575TIP3    H156216   4.753   3.763   0.383  2.5559 -3.0128  0.4018
11575TIP3    H256217   4.715   3.702   0.250 -0.4591  0.2373 -0.3705
11576TIP3   OH256218   3.595   0.057  16.720  0.0241 -0.1735  0.1945
11576TIP3    H156219   3.612   0.059  16.626  1.4096 -0.3246  0.4187
11576TIP3    H256220   3.503   0.032  16.727  0.0963 -0.8897 -1.1010
11577TIP3   OH256221   1.025   3.432  12.339  0.0789  0.2167 -0.3546
11577TIP3    H156222   1.030   3.526  12.356 -0.2033  0.5359 -1.8543
11577TIP3    H256223   1.093   3.416  12.273  2.0298 -1.1759  1.8426
11578TIP3   OH256224   3.226   0.263   2.562 -0.1827 -0.2060  0.1952
11578TIP3    H156225   3.222   0.172   2.591 -0.5717 -0.9603 -2.0250
11578TIP3    H256226   3.234   0.257   2.467  0.0262  2.0952  0.0212
11579TIP3   OH256227   1.099   3.809  16.842  0.1457 -0.3478 -0.0270
11579TIP3    H156228   1.005   3.803  16.824  0.0693 -0.4586  0.3992
11579TIP3    H256229   1.109   3.777  16.932  0.1988  2.4016  1.0424
11580TIP3   OH256230   2.170   0.156   3.036 -0.2871  0.3477  0.3757
11580TIP3    H156231   2.125   0.238   3.056  0.7395  0.9657  0.2226
11580TIP3    H256232   2.260   0.182   3.018 -0.1463 -0.7204 -0.5622
11581TIP3   OH256233   6.027   4.077  13.533 -0.0398  0.2259  0.5481
11581TIP3    H156234   6.008   4.005  13.473  0.3383 -0.1149  0.8408
11581TIP3    H256235   5.941   4.109  13.560 -0.3037 -2.1318  2.8746
11582TIP3   OH256236   4.934   3.893  10.312  0.0467  0.5809  0.6188
11582TIP3    H156237   5.002   3.938  10.362 -0.5596 -1.3027  3.3616
11582TIP3    H256238   4.852   3.921  10.353 -0.4386 -1.4066  1.1146
11583TIP3   OH256239   4.598   1.231   6.629 -0.0750 -0.5594 -0.3959
11583TIP3    H156240   4.597   1.277   6.545 -0.9278  0.0396 -0.0610
11583TIP3    H256241   4.511   1.245   6.666  0.9696  1.2004  1.6709
11584TIP3   OH256242   3.119   3.196  11.828  0.2358  0.4130  0.1734
11584TIP3    H156243   3.047   3.228  11.774  1.4861  2.2949 -0.5150
11584TIP3    H256244   3.196   3.202  11.771  1.0442 -0.9177  1.0765
11585TIP3   OH256245   5.844   6.178  14.427  0.0568  0.2091 -0.0944
11585TIP3    H156246   5.823   6.090  14.459 -0.4456  0.6543  0.8824
11585TIP3    H256247   5.817   6.178  14.336 -0.4691 -0.4849  0.0529
11586TIP3   OH256248   2.382   2.531   4.037  0.3792  0.1460  0.1945
11586TIP3    H156249   2.435   2.456   4.063 -0.0757  0.1848  1.3168
11586TIP3    H256250   2.446   2.598   4.013  0.8050 -0.3111  0.0252
11587TIP3   OH256251   0.702   5.809  15.441 -0.0580 -0.0449 -0.3185
11587TIP3    H156252   0.676   5.717  15.434  1.6653 -0.4366 -2.0841
11587TIP3    H256253   0.650   5.842  15.515 -0.3778 -2.5280  0.6671
11588TIP3   OH256254   2.789   5.517   3.731 -0.7338  0.2731  0.0768
11588TIP3    H156255   2.779   5.424   3.714  0.9449  0.0771 -0.0614
11588TIP3    H256256   2.856   5.546   3.669 -1.3460  1.6156  0.0003
11589TIP3   OH256257   0.702   5.638  16.307 -0.8646  0.1451 -0.1197
11589TIP3    H156258   0.630   5.650  16.244 -0.1580 -0.1194 -0.9964
11589TIP3    H256259   0.781   5.644  16.254 -0.2596 -0.2792  0.7242
11590TIP3   OH256260   2.163   3.010  12.309  0.0956  1.0034 -0.0906
11590TIP3    H156261   2.240   3.039  12.359 -0.1819  1.3454  0.1468
11590TIP3    H256262   2.096   2.996  12.376 -0.5933  2.4623 -0.4282
11591TIP3   OH256263   4.628   4.578  16.110  0.4433  0.2186 -0.2083
11591TIP3    H156264   4.606   4.491  16.076  0.1669  0.0646  0.3491
11591TIP3    H256265   4.561   4.636  16.074  0.7899  0.2547 -0.8061
11592TIP3   OH256266   4.433   5.813  13.988  0.4847  0.2261 -0.2795
11592TIP3    H156267   4.519   5.775  13.968 -0.1643  0.1717 -3.4679
11592TIP3    H256268   4.449   5.907  13.990  1.3429  0.1698  3.6973
11593TIP3   OH256269   0.791   2.195   6.633 -0.4057  0.3659  0.4385
11593TIP3    H156270   0.729   2.134   6.593  0.9189 -0.7691  0.0321
11593TIP3    H256271   0.738   2.247   6.693 -1.8667 -0.0774 -0.4180
11594TIP3   OH256272   3.765   2.178  16.826  0.3536  0.4103 -0.0410
11594TIP3    H156273   3.834   2.157  16.889 -0.3691  0.3697  0.7434
11594TIP3    H256274   3.689   2.129  16.856  0.4015 -0.8903 -1.8545
11595TIP3   OH256275   6.650   3.624   6.602  0.0478 -0.1878 -0.0789
11595TIP3    H156276   6.588   3.562   6.641  0.0577 -0.7588 -0.9481
11595TIP3    H256277   6.734   3.579   6.605 -0.1680 -0.7554 -1.8663
11596TIP3   OH256278   2.222   1.222  13.474  0.1011  0.3599  0.2040
11596TIP3    H156279   2.274   1.302  13.469 -1.2712  1.3400  0.7280
11596TIP3    H256280   2.160   1.239  13.546  0.6903 -1.7471  1.2698
11597TIP3   OH256281   3.367   5.966   2.600  0.3029 -0.0998 -0.5017
11597TIP3    H156282   3.289   6.015   2.627  0.4086  0.3803 -1.0614
11597TIP3    H256283   3.418   5.957   2.680  0.4675  1.0543 -0.4632
11598TIP3   OH256284   4.016   0.432   5.913 -0.1307  0.4302  0.0396
11598TIP3    H156285   4.040   0.343   5.886  1.3263  1.1007 -0.9722
11598TIP3    H256286   4.100   0.474   5.933 -0.5492  2.3523 -1.9536
11599TIP3   OH256287   5.675   5.654  11.095  0.4804 -0.2546 -0.0184
11599TIP3    H156288   5.633   5.679  11.177 -0.7822 -0.7478 -0.4895
11599TIP3    H256289   5.688   5.737  11.049  1.2552  0.0285  0.6953
11600TIP3   OH256290   2.819   1.007   3.916 -0.0263  0.0365  0.7155
11600TIP3    H156291   2.779   0.986   4.001 -0.9196  2.6145  1.0154
11600TIP3    H256292   2.877   0.933   3.898 -1.2033 -1.4576  2.6809
11601TIP3   OH256293   0.764   4.606  16.402 -0.4047 -0.4731 -0.2649
11601TIP3    H156294   0.725   4.655  16.475 -0.1650 -1.4151  0.5239
11601TIP3    H256295   0.813   4.672  16.353  0.0728  0.0557  0.8741
11602TIP3   OH256296   0.352   5.784   3.248  0.1597  0.6372  0.5489
11602TIP3    H156297   0.330   5.764   3.157 -0.3324  0.9149  0.6038
11602TIP3    H256298   0.287   5.738   3.300  1.8278 -1.4630  0.8852
11603TIP3   OH256299   0.203   0.152  12.332  0.5737 -0.0921 -0.1727
11603TIP3    H156300   0.247   0.089  12.389  0.5255  0.0148 -0.0163
11603TIP3    H256301   0.152   0.207  12.392 -1.2673 -1.3712 -0.4806
11604TIP3   OH256302   0.320   6.743  12.105  0.1749  0.0457 -0.4415
11604TIP3    H156303   0.332   6.776  12.193 -0.8865  0.4013 -0.4106
11604TIP3    H256304   0.374   6.800  12.050  2.1509 -1.1901  0.1243
11605TIP3   OH256305   2.256   5.863   4.786 -0.1876  0.2568 -0.2902
11605TIP3    H156306   2.237   5.910   4.868  0.0825  1.6935 -1.0096
11605TIP3    H256307   2.177   5.876   4.733 -1.6231 -3.1617  0.7323
11606TIP3   OH256308   4.125   3.002   3.136  0.3121 -0.0291 -0.2108
11606TIP3    H156309   4.071   3.064   3.088  0.5484  1.6361  1.5424
11606TIP3    H256310   4.074   2.981   3.214  1.7560  0.8995  1.0531
11607TIP3   OH256311   5.148   6.550   1.890 -0.0320 -0.1256 -0.2320
11607TIP3    H156312   5.082   6.574   1.955 -0.1473  2.6791 -1.2369
11607TIP3    H256313   5.229   6.591   1.921  0.7702 -1.6939 -0.1351
11608TIP3   OH256314   1.658   1.407  13.011  0.5154 -0.1901 -0.2453
11608TIP3    H156315   1.612   1.341  13.064 -0.4644  0.7073  0.0711
11608TIP3    H256316   1.748   1.377  13.008  0.2837 -1.0484  0.6902
11609TIP3   OH256317   2.491   6.189  12.048 -0.7851  0.1078  0.4125
11609TIP3    H156318   2.397   6.168  12.046 -0.7680 -0.0014  0.7372
11609TIP3    H256319   2.523   6.146  12.126 -0.1631 -1.0742 -0.4641
11610TIP3   OH256320   5.447   5.295   5.714 -0.5208  0.1923 -0.4470
11610TIP3    H156321   5.461   5.267   5.804  0.5428 -2.8636 -1.4061
11610TIP3    H256322   5.364   5.252   5.689  0.9048 -1.9539 -1.8377
11611TIP3   OH256323   3.548   2.988  10.060  0.2189  0.0511 -0.2412
11611TIP3    H156324   3.600   2.912  10.034  0.0273 -1.5832  3.5464
11611TIP3    H256325   3.586   3.016  10.144 -0.9335  3.0011 -0.5701
11612TIP3   OH256326   0.842   0.565   4.045  0.1486 -0.0232  0.1164
11612TIP3    H156327   0.872   0.566   4.136 -1.8021 -0.2727  0.8145
11612TIP3    H256328   0.830   0.657   4.023  0.4173  0.0289  0.1860
11613TIP3   OH256329   2.804   4.247  17.135  0.3166 -0.2372 -0.5034
11613TIP3    H156330   2.831   4.157  17.120 -0.9525 -0.8157  0.4220
11613TIP3    H256331   2.744   4.267  17.064  0.1861 -0.3113 -0.4146
11614TIP3   OH256332   5.848   0.728  12.922  0.4970  0.2541  0.2129
11614TIP3    H156333   5.816   0.685  12.843  3.0564  0.5687 -1.1254
11614TIP3    H256334   5.826   0.668  12.993 -1.0595 -0.4781 -0.8338
11615TIP3   OH256335   2.313   3.339  16.269 -0.1440  0.0528  0.2509
11615TIP3    H156336   2.299   3.431  16.288 -0.2839  0.0865 -0.0074
11615TIP3    H256337   2.300   3.295  16.353 -1.5555  0.1074  0.0986
11616TIP3   OH256338   1.370   2.808   0.861 -0.3338  0.5849  0.4682
11616TIP3    H156339   1.461   2.783   0.848 -0.4765  0.2165  0.1796
11616TIP3    H256340   1.366   2.838   0.952  0.2381  1.3322  0.2584
11617TIP3   OH256341   0.836   5.601   2.236  0.4845 -0.0285  0.0127
11617TIP3    H156342   0.836   5.680   2.289 -0.1993  0.2219 -0.3441
11617TIP3    H256343   0.743   5.577   2.229  0.3969  0.6978 -2.1493
11618TIP3   OH256344   4.072   5.089  11.687 -0.0728 -0.5845 -0.4442
11618TIP3    H156345   4.069   5.176  11.647  0.4693 -0.4902 -0.2870
11618TIP3    H256346   4.003   5.090  11.754  0.5092  0.0290  0.1600
11619TIP3   OH256347   4.212   2.100   1.662  0.2729 -0.0132  0.2556
11619TIP3    H156348   4.262   2.025   1.695  0.8779  0.4747  0.4487
11619TIP3    H256349   4.257   2.127   1.583 -0.2180 -0.1352 -0.0752
11620TIP3   OH256350   6.352   6.180  16.364  0.1558  0.1644  0.5359
11620TIP3    H156351   6.367   6.259  16.311  1.6188 -0.0132  0.6279
11620TIP3    H256352   6.362   6.108  16.301  1.4595 -0.0296  0.9356
11621TIP3   OH256353   6.554   1.967  14.828  0.1372  0.2956 -0.0282
11621TIP3    H156354   6.506   1.957  14.746  0.1009  0.7436 -0.0656
11621TIP3    H256355   6.525   1.894  14.882  1.0037 -0.6569 -0.8180
11622TIP3   OH256356   3.686   3.745   1.133 -0.2294  0.0140 -0.4174
11622TIP3    H156357   3.603   3.780   1.101  0.4295  2.0245 -0.0962
11622TIP3    H256358   3.661   3.683   1.201 -1.4900  0.8139 -0.1134
11623TIP3   OH256359   4.034   4.904   1.012  0.0470 -0.4368 -0.1717
11623TIP3    H156360   3.965   4.958   1.050 -0.0442  0.6232 -1.7297
11623TIP3    H256361   3.988   4.830   0.972 -0.3102  0.5770 -1.7360
11624TIP3   OH256362   6.403   1.811   4.431  0.3102  0.1531  0.1882
11624TIP3    H156363   6.384   1.899   4.463 -0.9866 -0.3242  0.7885
11624TIP3    H256364   6.405   1.820   4.335 -0.6036  0.6928  0.2095
11625TIP3   OH256365   5.988   1.833   4.691 -0.0930 -0.0606 -0.6936
11625TIP3    H156366   6.025   1.765   4.635 -0.3585 -0.6535 -0.1539
11625TIP3    H256367   5.934   1.786   4.755  2.2209  0.3362  1.7100
11626TIP3   OH256368   0.921   1.587   3.405  0.3812 -0.1186 -0.2781
11626TIP3    H156369   0.877   1.632   3.476 -1.1320  0.5534 -1.5835
11626TIP3    H256370   0.909   1.494   3.423 -0.4456  0.0545  0.0616
11627TIP3   OH256371   2.362   1.409   3.268  0.5963 -0.4082 -0.3889
11627TIP3    H156372   2.320   1.431   3.352  0.1964 -0.8514 -0.4687
11627TIP3    H256373   2.305   1.343   3.230  1.9312 -1.8372  0.0022
11628TIP3   OH256374   6.726   1.800   6.298  0.0325  0.0855 -0.3714
11628TIP3    H156375   6.718   1.841   6.384  1.3153  0.1123 -0.2483
11628TIP3    H256376   6.789   1.855   6.251 -0.3867 -0.1333 -1.2110
11629TIP3   OH256377   5.366   3.077  11.267 -0.2112  0.7074  0.0467
11629TIP3    H156378   5.418   3.099  11.190  0.8342 -0.2102  0.4669
11629TIP3    H256379   5.388   2.985  11.285 -0.2926  0.9635  1.5425
11630TIP3   OH256380   1.344   0.841   4.340  0.2595  1.1918 -0.8593
11630TIP3    H156381   1.314   0.754   4.367  0.1235  1.4858 -0.0571
11630TIP3    H256382   1.342   0.838   4.244  0.4362  0.2490 -0.8439
11631TIP3   OH256383   5.638   5.969   0.648 -0.0951  0.1050  0.4804
11631TIP3    H156384   5.594   6.022   0.582  1.4686  1.3928  0.4219
11631TIP3    H256385   5.567   5.920   0.690 -1.2537  0.0557 -1.3963
11632TIP3   OH256386   0.448   4.286   1.871  0.2620 -0.0780 -0.0622
11632TIP3    H156387   0.454   4.191   1.871  1.9670  0.0015  0.3170
11632TIP3    H256388   0.393   4.307   1.795  0.2951 -1.3329 -0.4482
11633TIP3   OH256389   2.930   6.634   5.631 -0.3522  0.0632 -0.8685
11633TIP3    H156390   2.840   6.603   5.623  0.1451 -2.3968  1.6318
11633TIP3    H256391   2.984   6.558   5.611  1.0658  0.3682  1.3973
11634TIP3   OH256392   0.751   4.973  13.863  0.1660  0.6778 -0.4348
11634TIP3    H156393   0.737   4.950  13.771 -1.1182 -0.0525 -0.0774
11634TIP3    H256394   0.827   4.921  13.889  0.4830  0.8218 -1.0451
11635TIP3   OH256395   5.874   4.837   3.765 -0.2686 -0.3178  0.6668
11635TIP3    H156396   5.845   4.746   3.755 -1.0905 -0.2905  2.4650
11635TIP3    H256397   5.805   4.888   3.722 -0.7564 -0.4619  1.2701
11636TIP3   OH256398   1.285   6.314  15.380  0.0968  0.2500  0.2783
11636TIP3    H156399   1.360   6.367  15.407  0.3593  0.8535 -1.5395
11636TIP3    H256400   1.237   6.370  15.319 -0.8632 -0.7947  0.0508
11637TIP3   OH256401   4.303   5.999  12.318 -0.5141  0.0516 -0.2543
11637TIP3    H156402   4.208   6.000  12.330 -0.2664  0.0029  2.0405
11637TIP3    H256403   4.334   6.079  12.361  0.3998  0.9645 -2.4181
11638TIP3   OH256404   4.879   0.020   2.227 -0.1974  0.3724 -0.4591
11638TIP3    H156405   4.863   0.078   2.152 -0.2565  0.9832  0.0230
11638TIP3    H256406   4.973   0.003   2.224 -0.2831 -0.0229 -0.9750
11639TIP3   OH256407   5.173   6.111  16.202  0.1961  0.1950  0.0458
11639TIP3    H156408   5.146   6.148  16.286 -1.1492  0.8744 -0.6582
11639TIP3    H256409   5.216   6.183  16.156 -1.7716  0.7583 -1.0326
11640TIP3   OH256410   5.495   3.425  13.275 -0.1172  0.3178 -0.0135
11640TIP3    H156411   5.509   3.404  13.183 -0.3354 -0.7500  0.1923
11640TIP3    H256412   5.421   3.487  13.274  1.1680  1.9306 -0.6916
11641TIP3   OH256413   3.018   3.776   0.963 -0.5182  0.0108  0.0626
11641TIP3    H156414   3.065   3.759   0.882 -1.1647 -1.5411 -0.0173
11641TIP3    H256415   2.925   3.772   0.938 -0.7401  1.5282  0.5079
11642TIP3   OH256416   4.530   0.065   3.157 -0.0244 -0.0201 -0.0730
11642TIP3    H156417   4.505   0.050   3.248 -1.2275  2.7650  0.1473
11642TIP3    H256418   4.591   0.138   3.160  0.8064 -0.6066 -1.4629
11643TIP3   OH256419   2.469   3.243  11.123 -0.3219 -0.3399  0.0531
11643TIP3    H156420   2.387   3.286  11.150  0.1804 -0.2737  1.5814
11643TIP3    H256421   2.458   3.228  11.029 -0.7728  2.5829 -0.4748
11644TIP3   OH256422   3.291   1.016  15.846  0.4225 -0.0954 -0.4849
11644TIP3    H156423   3.314   1.072  15.773 -0.8344 -1.6986 -2.1919
11644TIP3    H256424   3.196   1.007  15.842  0.1225  0.8930  2.2364
11645TIP3   OH256425   2.074   3.420  16.971 -0.2614  0.6239 -0.4315
11645TIP3    H156426   2.000   3.361  16.951 -0.1486  0.7362 -1.2025
11645TIP3    H256427   2.041   3.507  16.951  0.9260  0.4843 -3.5336
11646TIP3   OH256428   3.293   0.414   6.381  0.0106  0.4083 -0.0192
11646TIP3    H156429   3.234   0.357   6.431 -0.6389  0.1818 -1.0135
11646TIP3    H256430   3.319   0.482   6.443 -2.7561  1.5827 -0.0234
11647TIP3   OH256431   3.226   5.173   5.387 -0.0740  0.0157 -0.2833
11647TIP3    H156432   3.205   5.220   5.467  0.3811  0.7082 -0.5618
11647TIP3    H256433   3.316   5.144   5.399 -0.6734 -1.7362  0.3279
11648TIP3   OH256434   5.215   5.841   2.953  0.4501  0.2197  0.2007
11648TIP3    H156435   5.134   5.789   2.955 -0.2966  1.3655  2.2322
11648TIP3    H256436   5.243   5.836   2.861 -2.0033 -0.1126 -0.6258
11649TIP3   OH256437   5.078   3.924   3.032  0.4081  0.5371 -0.1517
11649TIP3    H156438   5.037   3.909   2.948 -0.5645 -1.4966  0.6323
11649TIP3    H256439   5.136   3.849   3.046  0.0875  0.5050  1.2366
11650TIP3   OH256440   4.860   2.847  16.235 -0.4625 -0.5515 -0.3160
11650TIP3    H156441   4.863   2.892  16.151  0.9755 -0.0217 -0.0108
11650TIP3    H256442   4.920   2.772  16.225 -0.4890 -0.6395  0.1465
11651TIP3   OH256443   4.552   5.359  14.289 -0.4300 -0.4731  0.3534
11651TIP3    H156444   4.497   5.413  14.345 -0.5770  0.1287 -0.3568
11651TIP3    H256445   4.491   5.316  14.230 -0.2933 -1.2438  0.7627
11652TIP3   OH256446   0.296   3.608  12.207  0.0111 -0.4041  0.5089
11652TIP3    H156447   0.274   3.701  12.207  0.1652 -0.1809 -3.9031
11652TIP3    H256448   0.329   3.592  12.296 -0.3161  3.6143  1.5747
11653TIP3   OH256449   4.320   4.857   5.453 -0.3283  0.1207 -0.1437
11653TIP3    H156450   4.370   4.934   5.481  0.4736 -0.2506 -0.5175
11653TIP3    H256451   4.386   4.797   5.420 -1.0321 -0.3985 -0.6323
11654TIP3   OH256452   1.826   5.407  15.841 -0.3210 -0.2529  0.4686
11654TIP3    H156453   1.910   5.400  15.886  0.1178  1.8306  0.0722
11654TIP3    H256454   1.766   5.438  15.909 -1.2485 -3.3003  1.1858
11655TIP3   OH256455   6.078   6.428   3.728 -0.2180  0.6330 -0.0836
11655TIP3    H156456   6.064   6.520   3.705  0.5224  0.6199 -0.6474
11655TIP3    H256457   6.173   6.419   3.729 -0.2864 -0.0798  0.1862
11656TIP3   OH256458   0.281   2.591   3.904 -0.3316  0.4159  0.3277
11656TIP3    H156459   0.355   2.606   3.962 -0.3245  3.3676 -0.2854
11656TIP3    H256460   0.213   2.652   3.936 -1.0687  0.5890 -1.4423
11657TIP3   OH256461   5.590   6.050  12.157  0.4828 -0.0012 -0.1797
11657TIP3    H156462   5.501   6.075  12.179  0.4223 -0.1799 -0.2205
11657TIP3    H256463   5.629   6.129  12.120  0.1397 -0.1071 -0.7689
11658TIP3   OH256464   3.706   6.667   0.058 -0.5917  0.2182 -0.3527
11658TIP3    H156465   3.701   6.584   0.105  1.1888 -0.5325 -1.4239
11658TIP3    H256466   3.632   6.664  -0.003 -0.9789 -0.2343  0.1269
11659TIP3   OH256467   4.845   2.980  15.488  1.0892 -0.0609 -0.1754
11659TIP3    H156468   4.925   3.028  15.510  2.0721 -1.6861 -0.1009
11659TIP3    H256469   4.825   3.006  15.398  0.0241  2.5627  0.7102
11660TIP3   OH256470   6.437   0.974  13.603 -0.4322 -0.8079 -0.1143
11660TIP3    H156471   6.370   0.998  13.667  0.4621 -2.3880  1.5078
11660TIP3    H256472   6.493   1.051  13.597 -0.0433 -0.9028  1.7048
11661TIP3   OH256473   4.487   4.499   3.517  0.0477  0.3861 -0.5576
11661TIP3    H156474   4.527   4.422   3.556 -0.7428 -0.0085 -0.5062
11661TIP3    H256475   4.448   4.546   3.590 -0.3304  0.3148 -0.7108
11662TIP3   OH256476   4.438   3.620   1.022 -0.2212 -0.3765  0.0711
11662TIP3    H156477   4.363   3.665   0.983 -0.8623 -1.0604  0.4878
11662TIP3    H256478   4.514   3.663   0.984 -0.8232  0.4078 -0.2756
11663TIP3   OH256479   0.076   0.047  11.702  0.0051  0.0271  0.1297
11663TIP3    H156480   0.126   0.126  11.680  1.0564 -1.0825 -1.7168
11663TIP3    H256481   0.028   0.070  11.782  1.3780  2.0351  0.4371
11664TIP3   OH256482   2.256   2.673   0.921 -0.2597 -0.1140 -0.1105
11664TIP3    H156483   2.174   2.624   0.928 -0.9283  0.7846 -1.1290
11664TIP3    H256484   2.275   2.703   1.010 -0.6326 -0.9555  0.2572
11665TIP3   OH256485   0.034   5.557   2.726 -0.1471 -0.7414  0.1986
11665TIP3    H156486  -0.046   5.598   2.692  0.0787 -0.3405  0.1404
11665TIP3    H256487   0.007   5.514   2.806 -0.7105 -1.7594 -0.5165
11666TIP3   OH256488   6.698   6.758   1.556  0.0563 -0.1808  0.2092
11666TIP3    H156489   6.782   6.785   1.594 -0.6676  0.9614  1.0693
11666TIP3    H256490   6.709   6.770   1.462  0.5031  1.0076  0.3983
11667TIP3   OH256491   6.055   5.678   5.010  0.6345  0.3796  0.0100
11667TIP3    H156492   6.048   5.759   5.061  0.7714  0.3067  0.1475
11667TIP3    H256493   6.038   5.608   5.074 -0.5878  0.3386 -0.3312
11668TIP3   OH256494   3.853   5.692  16.362 -0.6233 -0.1147 -0.4514
11668TIP3    H156495   3.926   5.661  16.309 -0.4842  0.8538 -0.8515
11668TIP3    H256496   3.870   5.659  16.450  0.4135  0.2717 -0.4977
11669TIP3   OH256497   4.522   0.173  16.888 -0.0565  0.0483  0.5950
11669TIP3    H156498   4.459   0.170  16.960 -0.4432 -0.9946  0.2351
11669TIP3    H256499   4.608   0.169  16.931 -0.2908 -0.9712  0.9863
11670TIP3   OH256500   5.999   3.985  13.168  0.5947  0.7121  0.3549
11670TIP3    H156501   5.961   3.911  13.215 -0.5519  0.5611 -0.7548
11670TIP3    H256502   5.944   4.059  13.192 -0.7910  0.4031 -1.6324
11671TIP3   OH256503   3.946   2.577  11.960 -0.2061  1.1083  0.9026
11671TIP3    H156504   3.941   2.596  12.053 -1.2134 -0.3582  1.1666
11671TIP3    H256505   3.856   2.561  11.933  0.3441 -1.9926  0.4819
11672TIP3   OH256506   3.821   5.696  12.239  0.4789  0.3564 -0.4082
11672TIP3    H156507   3.821   5.764  12.306  0.9332 -1.2623  1.3157
11672TIP3    H256508   3.911   5.694  12.206  1.0132 -0.7454  1.0241
11673TIP3   OH256509   3.752   0.921   4.242  0.4092 -0.6097 -0.0927
11673TIP3    H156510   3.689   0.874   4.188 -1.0507  0.0380  0.9952
11673TIP3    H256511   3.750   0.876   4.327  0.6069  0.0603  0.2793
11674TIP3   OH256512   0.165   6.799  16.265 -0.4911 -0.4766  0.1728
11674TIP3    H156513   0.254   6.804  16.231 -1.0036  1.0268 -1.1190
11674TIP3    H256514   0.148   6.887  16.299 -1.1385 -1.0384  1.3623
11675TIP3   OH256515   3.701   5.784   5.501 -0.1417  0.5395 -0.2127
11675TIP3    H156516   3.743   5.736   5.430 -0.0652  1.7780 -1.0295
11675TIP3    H256517   3.607   5.775   5.483 -0.2803 -1.4601  1.1087
11676TIP3   OH256518   6.079   0.881  15.108  0.0718  0.1537  0.2330
11676TIP3    H156519   5.987   0.895  15.086 -0.4068  0.7994  2.4369
11676TIP3    H256520   6.085   0.790  15.134 -0.3141  0.4968  1.5967
11677TIP3   OH256521   2.793   0.885   1.954  0.4775 -0.2095 -0.0982
11677TIP3    H156522   2.864   0.943   1.927 -0.1877  0.2116 -0.9837
11677TIP3    H256523   2.713   0.933   1.934 -0.1102  0.2105  2.7852
11678TIP3   OH256524   1.624   1.057  12.548 -0.2792  0.1858 -0.0474
11678TIP3    H156525   1.589   1.063  12.459  0.3124 -1.0231 -0.3881
11678TIP3    H256526   1.547   1.043  12.603 -0.5101 -0.7676 -0.5876
11679TIP3   OH256527   0.746   1.688   0.311 -0.3697  0.6012 -0.0581
11679TIP3    H156528   0.800   1.756   0.270 -0.0069  0.2885 -0.1071
11679TIP3    H256529   0.656   1.719   0.300 -0.1333  1.9320  1.4585
11680TIP3   OH256530   2.510   2.547  16.900  0.0583 -0.2254  0.4901
11680TIP3    H156531   2.533   2.638  16.879  0.3530 -0.1500  1.0932
11680TIP3    H256532   2.542   2.535  16.990 -0.5894 -0.7127  0.6647
11681TIP3   OH256533   4.851   0.699   1.004 -0.3432 -0.2299  0.2279
11681TIP3    H156534   4.890   0.775   1.048 -1.9411  1.2920 -0.8172
11681TIP3    H256535   4.925   0.657   0.960  0.6292  0.5748  1.0262
11682TIP3   OH256536   3.681   1.671   5.709 -0.6855 -0.6034  0.5509
11682TIP3    H156537   3.637   1.586   5.700 -1.0297 -0.2908 -1.1867
11682TIP3    H256538   3.738   1.676   5.632 -0.4253  0.5977  0.8051
11683TIP3   OH256539   2.101   3.315  16.600  0.2158 -0.5346 -0.0426
11683TIP3    H156540   2.070   3.290  16.514 -0.2298 -0.6872  0.1595
11683TIP3    H256541   2.065   3.249  16.659  0.1087 -0.1520  0.3233
11684TIP3   OH256542   4.708   6.389   3.851 -0.2148  0.0131 -0.3390
11684TIP3    H156543   4.672   6.343   3.927  0.7353 -0.2836 -0.0564
11684TIP3    H256544   4.748   6.320   3.798  1.9111  0.5649  0.4690
11685TIP3   OH256545   1.854   2.550  13.333 -0.0925 -0.2732 -0.1962
11685TIP3    H156546   1.829   2.457  13.327 -0.8420 -0.0507 -0.7748
11685TIP3    H256547   1.892   2.559  13.420 -0.7007 -0.9685  0.1613
11686TIP3   OH256548   4.286   2.633  16.972  0.4653 -0.0369  0.2274
11686TIP3    H156549   4.244   2.570  16.913  2.0309 -1.3358  0.4156
11686TIP3    H256550   4.282   2.592  17.058 -0.4577  1.1644  0.7894
11687TIP3   OH256551   1.840   2.546   1.398  0.6393  0.6930 -0.0115
11687TIP3    H156552   1.905   2.492   1.352 -0.9511  0.3500 -2.0226
11687TIP3    H256553   1.843   2.630   1.353  0.2294  0.9211  0.3826
11688TIP3   OH256554   5.367   6.544  11.481 -0.0131  0.2658  0.3707
11688TIP3    H156555   5.398   6.597  11.407  0.0129  0.3322  0.4297
11688TIP3    H256556   5.275   6.526  11.460 -0.0093  0.2933  0.3273
11689TIP3   OH256557   0.815   6.716   5.381  0.0276  0.2439  0.3837
11689TIP3    H156558   0.881   6.647   5.374 -0.7374 -0.6717  1.6187
11689TIP3    H256559   0.854   6.792   5.338  1.6808 -0.4015  0.6795
11690TIP3   OH256560   1.586   6.286   2.568 -0.3497  0.3505 -0.5348
11690TIP3    H156561   1.546   6.233   2.637 -0.1914  1.1081  0.1573
11690TIP3    H256562   1.566   6.376   2.592  0.8794  0.6946 -0.7296
11691TIP3   OH256563   2.812   4.635   0.147 -0.3283  0.4205 -0.2468
11691TIP3    H156564   2.829   4.541   0.158 -1.1658  0.3518  0.5281
11691TIP3    H256565   2.894   4.677   0.172  0.4450 -0.1374 -1.6965
11692TIP3   OH256566   1.970   4.986  11.378  0.4544 -0.0437 -0.3183
11692TIP3    H156567   1.948   5.038  11.301  1.4157 -1.6150 -1.7287
11692TIP3    H256568   1.895   4.926  11.389  0.0856  0.5227  0.3000
11693TIP3   OH256569   2.144   1.407  10.524  0.4277 -0.1658 -0.2845
11693TIP3    H156570   2.237   1.426  10.506  0.0831  1.0691 -0.8910
11693TIP3    H256571   2.103   1.494  10.528 -0.5168 -0.6416  1.0719
11694TIP3   OH256572   4.387   3.645   4.945  0.4824  0.0052  0.5275
11694TIP3    H156573   4.431   3.709   4.890 -0.0583  0.1048  0.2025
11694TIP3    H256574   4.419   3.663   5.034 -1.2004  2.1466  0.7943
11695TIP3   OH256575   6.374   5.614  13.279 -0.3282 -0.6277 -0.1947
11695TIP3    H156576   6.432   5.553  13.234  0.7606 -0.3067  0.7298
11695TIP3    H256577   6.430   5.659  13.342 -1.5292 -0.1340  0.5678
11696TIP3   OH256578   4.928   2.082   4.729  0.1085  0.4586 -0.3174
11696TIP3    H156579   5.023   2.070   4.739 -0.0071  0.3734  0.7530
11696TIP3    H256580   4.915   2.086   4.634  1.0309 -0.7199 -0.5142
11697TIP3   OH256581   1.833   1.047  11.463 -0.3015  0.4503  0.4958
11697TIP3    H156582   1.922   1.051  11.497  0.5962  0.6597 -1.7262
11697TIP3    H256583   1.838   1.090  11.377 -1.8711 -2.0560 -0.9640
11698TIP3   OH256584   0.799   4.916   2.047  0.6456  0.0493  0.1079
11698TIP3    H156585   0.722   4.893   1.996  1.0194 -3.1365  0.7724
11698TIP3    H256586   0.768   4.919   2.138  1.1454 -0.5835  0.3091
11699TIP3   OH256587   4.135   1.568   5.042  0.2371 -0.1927 -0.0574
11699TIP3    H156588   4.151   1.575   5.136  0.4285 -2.0717  0.0898
11699TIP3    H256589   4.203   1.621   5.002  0.6340 -0.0002  0.8448
11700TIP3   OH256590   3.184   4.611  17.182 -0.0508  0.0012 -0.4792
11700TIP3    H156591   3.104   4.561  17.165 -2.1252  3.0747 -0.5464
11700TIP3    H256592   3.189   4.617  17.277  0.7366 -1.0125 -0.4330
11701TIP3   OH256593   6.018   0.680   3.655  0.0814 -0.1058 -0.3074
11701TIP3    H156594   5.996   0.773   3.651  0.2402 -0.0975 -1.5956
11701TIP3    H256595   5.939   0.635   3.624  0.3349 -0.3373 -0.6278
11702TIP3   OH256596   2.563   0.222  14.298  0.0000  0.3888 -0.4034
11702TIP3    H156597   2.509   0.182  14.366  0.4555 -0.4686 -0.5385
11702TIP3    H256598   2.578   0.152  14.235 -1.6822  1.5439 -2.2115
11703TIP3   OH256599   5.656   5.673   2.861  0.1302 -0.1007 -0.0159
11703TIP3    H156600   5.650   5.767   2.878 -2.0401 -0.1373 -0.3499
11703TIP3    H256601   5.750   5.654   2.866  0.5470  1.9262  0.8223
11704TIP3   OH256602   0.157   5.523   3.790 -0.5338 -0.3856  0.1329
11704TIP3    H156603   0.075   5.481   3.815 -1.1638  0.5348 -0.3604
11704TIP3    H256604   0.192   5.559   3.872 -1.1419  0.1210  0.1705
11705TIP3   OH256605   2.736   4.882   4.462  0.4920 -0.0944  0.3838
11705TIP3    H156606   2.662   4.870   4.521 -0.9412  2.4840 -0.7161
11705TIP3    H256607   2.805   4.919   4.516  0.0685 -0.0903  0.9232
11706TIP3   OH256608   5.540   4.509  14.883 -0.1534 -0.2881 -0.3971
11706TIP3    H156609   5.558   4.464  14.800  1.7450  0.5269 -0.4731
11706TIP3    H256610   5.487   4.585  14.859  1.3904  0.6138 -1.0739
11707TIP3   OH256611   0.185   5.566  13.919 -0.4055 -0.4445 -0.4246
11707TIP3    H156612   0.166   5.656  13.945  2.2846  0.3363 -0.8504
11707TIP3    H256613   0.244   5.533  13.987  0.1131 -1.2275 -1.2191
11708TIP3   OH256614   6.687   6.051   4.439  0.4801 -0.7971  0.3897
11708TIP3    H156615   6.632   6.088   4.508  0.2109 -1.0085  0.2929
11708TIP3    H256616   6.670   5.957   4.443  0.8255 -0.8614  0.3486
11709TIP3   OH256617   4.360   2.583   4.551 -0.2840  0.4170 -0.7144
11709TIP3    H156618   4.363   2.670   4.591  0.3215  0.4809 -0.8862
11709TIP3    H256619   4.425   2.587   4.481  1.6185 -0.9740  0.8921
11710TIP3   OH256620   4.942   3.275   1.294  0.1879  0.2960 -0.1312
11710TIP3    H156621   4.976   3.249   1.380  0.6588  0.8862 -0.1315
11710TIP3    H256622   4.848   3.255   1.299 -0.3870  2.9460  1.5913
11711TIP3   OH256623   2.793   4.038   6.051 -0.1803 -0.7693 -0.0018
11711TIP3    H156624   2.887   4.038   6.071  0.0282 -0.3004 -0.9572
11711TIP3    H256625   2.751   4.016   6.135  0.6114  2.0335  1.2329
11712TIP3   OH256626   1.124   3.735  14.485 -0.1504 -0.3968  0.2938
11712TIP3    H156627   1.063   3.675  14.442 -0.3398 -0.9674  1.3119
11712TIP3    H256628   1.197   3.743  14.424 -0.7846 -0.5141 -0.4961
11713TIP3   OH256629   2.203   3.926  11.316  0.0455  0.3510 -0.9847
11713TIP3    H156630   2.154   3.936  11.235 -0.0935  0.2416 -0.9163
11713TIP3    H256631   2.293   3.908  11.289 -0.0094  0.2701 -1.1151
11714TIP3   OH256632   5.492   2.546  12.918 -0.0191  0.1545  0.2173
11714TIP3    H156633   5.449   2.536  12.833 -1.0922  2.8161  0.3590
11714TIP3    H256634   5.573   2.592  12.899  0.3413 -0.3484  0.5158
11715TIP3   OH256635   2.889   0.486   1.952 -0.5006 -0.1162  0.3202
11715TIP3    H156636   2.813   0.429   1.949  0.1700 -1.0432  0.6230
11715TIP3    H256637   2.910   0.493   2.045 -0.1093 -0.0096  0.2273
11716TIP3   OH256638   4.066   5.732   2.113 -0.0002  0.1423  0.2355
11716TIP3    H156639   4.065   5.827   2.102 -1.0498 -0.0410 -1.6375
11716TIP3    H256640   4.075   5.719   2.208  0.5740  2.0834  0.4845
11717TIP3   OH256641   4.927   5.606  13.046 -0.1427  0.1667 -0.3337
11717TIP3    H156642   4.977   5.687  13.050  3.9554 -2.0655  4.4762
11717TIP3    H256643   4.876   5.604  13.127  0.0215 -2.0538 -0.2091
11718TIP3   OH256644   6.619   3.945  14.437  0.3967 -0.6333  0.5797
11718TIP3    H156645   6.689   3.892  14.475  2.4458  1.6279  0.1781
11718TIP3    H256646   6.632   3.937  14.342  0.2985  0.0267  0.5051
11719TIP3   OH256647   0.037   4.137  11.551 -0.4456  0.3556 -0.3277
11719TIP3    H156648   0.119   4.138  11.502 -1.8339  0.9695 -2.8325
11719TIP3    H256649   0.004   4.048  11.541 -1.0352  0.6481 -1.1087
11720TIP3   OH256650   4.100   4.591   2.780  0.1893 -0.1596  0.3957
11720TIP3    H156651   4.145   4.570   2.863  0.6778 -0.0672  0.1597
11720TIP3    H256652   4.115   4.685   2.769 -0.5631 -0.0095  0.6048
11721TIP3   OH256653   1.506   6.584   3.492  0.2501  0.3203 -0.3633
11721TIP3    H156654   1.421   6.558   3.456  0.1766  0.2905 -0.1678
11721TIP3    H256655   1.548   6.633   3.421 -1.0120  2.7089  0.4156
11722TIP3   OH256656   1.918   6.004  15.995  0.1500 -0.2377  0.0020
11722TIP3    H156657   1.911   5.986  15.901 -0.2339  0.2078 -0.0542
11722TIP3    H256658   1.920   6.099  16.002  0.1591 -0.2679  0.4480
11723TIP3   OH256659   3.016   4.870   3.584 -0.6946 -0.3012  0.1087
11723TIP3    H156660   3.027   4.933   3.513 -1.7092 -0.8875 -0.5977
11723TIP3    H256661   3.038   4.919   3.663  0.9461  0.2290 -0.6222
11724TIP3   OH256662   4.836   2.103   3.531 -0.1752  0.1227  0.2902
11724TIP3    H156663   4.905   2.169   3.537  0.4515 -0.5939  1.6996
11724TIP3    H256664   4.763   2.148   3.490  0.9025  1.0945 -0.6485
11725TIP3   OH256665   0.360   4.391   0.634  0.3051  0.1633  0.0894
11725TIP3    H156666   0.448   4.370   0.603  0.3149  0.0733  0.1787
11725TIP3    H256667   0.374   4.445   0.712  0.2891  1.7158 -0.9283
11726TIP3   OH256668   1.723   3.614  16.500  0.2484  0.5873 -0.1697
11726TIP3    H156669   1.815   3.605  16.526  1.2084  0.6648 -3.1343
11726TIP3    H256670   1.690   3.524  16.496  0.2048  0.5518  0.8047
11727TIP3   OH256671   4.006   6.692  11.148  0.3231  0.0269  0.1416
11727TIP3    H156672   4.072   6.742  11.195  1.0636 -1.5350  0.8603
11727TIP3    H256673   3.987   6.743  11.070  0.9020  1.4739  0.9149
11728TIP3   OH256674   3.078   1.232   4.418 -0.2460 -0.0753  0.1088
11728TIP3    H156675   3.143   1.283   4.370 -2.4560  2.2067 -0.7024
11728TIP3    H256676   3.106   1.234   4.509  0.9846  0.5114 -0.2702
11729TIP3   OH256677   3.210   1.102  16.115  0.5849  0.4055 -0.1191
11729TIP3    H156678   3.250   1.110  16.029  1.7373  1.3645  0.4658
11729TIP3    H256679   3.129   1.053  16.100  0.2318  1.4317 -1.9020
11730TIP3   OH256680   5.745   0.242  16.562 -0.0418 -0.1193 -0.0533
11730TIP3    H156681   5.652   0.256  16.547 -0.3296  0.3908  1.8890
11730TIP3    H256682   5.760   0.150  16.539 -0.9741 -0.1415 -0.5878
11731TIP3   OH256683   4.982   3.579   6.567  0.2457  0.4053 -0.0652
11731TIP3    H156684   5.061   3.605   6.613 -0.0232  0.0589  0.6010
11731TIP3    H256685   4.918   3.648   6.589  0.7038  1.3731 -1.6157
11732TIP3   OH256686   3.167   1.814  16.770  0.0036 -0.1547 -0.0805
11732TIP3    H156687   3.135   1.833  16.858 -0.4794 -1.1614 -0.0277
11732TIP3    H256688   3.239   1.752  16.784 -0.1999 -0.4667 -0.4067
11733TIP3   OH256689   5.891   0.174  15.490 -0.5011  0.3252  0.6736
11733TIP3    H156690   5.807   0.200  15.527 -1.2008  0.4402 -0.9116
11733TIP3    H256691   5.931   0.256  15.461 -0.1242  0.2076  0.8575
11734TIP3   OH256692   2.225   3.257   3.944 -0.5106 -0.1844  0.4302
11734TIP3    H156693   2.139   3.233   3.980  0.3379 -1.8167  1.4827
11734TIP3    H256694   2.288   3.223   4.007  0.9478  0.5624 -0.5651
11735TIP3   OH256695   3.701   3.735   5.440 -0.2643 -0.2146 -0.3172
11735TIP3    H156696   3.637   3.746   5.510 -0.9044 -1.5407 -0.6528
11735TIP3    H256697   3.781   3.775   5.474 -0.8072 -0.0190  0.7864
11736TIP3   OH256698   6.589   6.130   4.187  0.0062  0.0420  0.4314
11736TIP3    H156699   6.649   6.060   4.161 -1.8565 -1.3450 -0.3762
11736TIP3    H256700   6.630   6.170   4.264  2.2881 -0.3278 -0.5170
11737TIP3   OH256701   3.806   1.773  12.318 -1.1640  0.1079  0.4778
11737TIP3    H156702   3.779   1.805  12.404 -1.2177  0.7535  0.2264
11737TIP3    H256703   3.889   1.817  12.300 -2.0342  1.4082 -0.5765
11738TIP3   OH256704   2.460   1.008  15.085 -0.0767 -0.9191  0.4843
11738TIP3    H156705   2.438   0.995  14.993 -1.7432 -1.5906  0.9415
11738TIP3    H256706   2.540   0.958  15.098  0.8213  0.1027 -0.8412
11739TIP3   OH256707   4.533   1.240   0.592  0.3274  0.4669 -0.2879
11739TIP3    H156708   4.539   1.318   0.648  2.4427  0.8805 -0.9827
11739TIP3    H256709   4.578   1.172   0.642 -0.0045  0.1525 -0.4168
11740TIP3   OH256710   3.815   1.530   3.572  0.1185 -0.3218 -0.3944
11740TIP3    H156711   3.723   1.505   3.562  0.2076 -0.6953 -0.2935
11740TIP3    H256712   3.839   1.498   3.659 -0.2088  1.5276  0.4381
11741TIP3   OH256713   4.644   1.720   4.906 -0.0556  0.3804  0.2873
11741TIP3    H156714   4.627   1.809   4.875  0.2062  0.0106 -0.9628
11741TIP3    H256715   4.643   1.666   4.827 -2.0569 -1.0500  1.2039
11742TIP3   OH256716   4.950   2.288   3.896  0.0725 -0.1159  0.2702
11742TIP3    H156717   4.965   2.366   3.843  1.4313 -0.4080  0.1722
11742TIP3    H256718   5.030   2.280   3.949 -0.6078 -0.7028  1.2256
11743TIP3   OH256719   5.922   0.730  15.911 -0.4121  1.0031 -0.2086
11743TIP3    H156720   5.971   0.801  15.952  1.0151 -0.1411  0.1399
11743TIP3    H256721   5.975   0.704  15.836 -0.7949  0.1568 -0.1941
11744TIP3   OH256722   1.340   0.697   2.265 -0.3891  0.3485 -0.3591
11744TIP3    H156723   1.353   0.769   2.203  2.1136 -1.3632 -2.0413
11744TIP3    H256724   1.372   0.620   2.218 -0.7019 -1.4688  2.2183
11745TIP3   OH256725   3.898   1.597  11.167  0.1892  0.1538 -0.2995
11745TIP3    H156726   3.882   1.683  11.127 -1.4024  1.0821  2.0861
11745TIP3    H256727   3.811   1.559  11.177  0.6696 -0.7194  0.7752
11746TIP3   OH256728   1.101   2.976   3.981  0.5538 -0.0551  0.4213
11746TIP3    H156729   1.082   2.921   3.905  2.1866 -0.3318  0.1767
11746TIP3    H256730   1.192   3.004   3.969  0.8646 -0.1139  2.2679
11747TIP3   OH256731   2.452   5.333  16.681 -0.3200  0.3729 -0.0985
11747TIP3    H156732   2.366   5.360  16.648 -0.4747 -0.1264 -0.1098
11747TIP3    H256733   2.440   5.242  16.708  0.0652  0.4631  0.4056
11748TIP3   OH256734   5.350   6.681   4.167 -0.1106  1.0071 -0.3665
11748TIP3    H156735   5.320   6.630   4.092 -0.5553 -0.8866  1.0328
11748TIP3    H256736   5.445   6.671   4.167 -0.2827 -0.9273  0.6063
11749TIP3   OH256737   5.082   2.042  11.905 -0.1853  0.1855 -0.3035
11749TIP3    H156738   5.078   2.114  11.967  1.3598 -0.4566  0.6082
11749TIP3    H256739   5.018   1.979  11.937  0.5378 -0.0997  0.6211
11750TIP3   OH256740   4.315   4.587   4.314 -0.4931 -0.3746 -0.6422
11750TIP3    H156741   4.372   4.530   4.366  0.5372 -0.5184 -1.8911
11750TIP3    H256742   4.370   4.619   4.243 -2.0888 -0.9220 -2.1984
11751TIP3   OH256743   1.738   5.035  15.190  0.4136  0.0121 -0.3376
11751TIP3    H156744   1.650   5.073  15.194  0.0441 -0.6685 -1.7538
11751TIP3    H256745   1.778   5.074  15.112  0.2103 -2.0699 -1.5344
11752TIP3   OH256746   4.697   4.281   0.876  0.0636  0.2488  0.1460
11752TIP3    H156747   4.657   4.254   0.793  1.0197 -1.6010  0.2187
11752TIP3    H256748   4.657   4.223   0.941  1.6254 -0.5528  0.4543
11753TIP3   OH256749   3.161   4.067   5.154 -0.9975  0.5205 -0.0550
11753TIP3    H156750   3.187   4.159   5.160 -1.8921  0.8186 -0.5762
11753TIP3    H256751   3.123   4.048   5.240  1.8202 -0.2356  1.1137
11754TIP3   OH256752   1.944   4.055   3.041 -0.2503 -0.0855 -0.2039
11754TIP3    H156753   1.861   4.073   3.086  0.4472  0.9381  0.7168
11754TIP3    H256754   1.944   3.960   3.030 -1.8159 -0.0578 -0.7692
11755TIP3   OH256755   6.258   2.830   0.695  0.1042  0.7115  0.4251
11755TIP3    H156756   6.310   2.867   0.623  0.8734  1.0073  1.1242
11755TIP3    H256757   6.183   2.888   0.702 -0.2078  0.4269 -0.4306
11756TIP3   OH256758   4.532   1.421  13.613  0.5402  0.7735 -0.1306
11756TIP3    H156759   4.483   1.384  13.687 -0.1502  1.1914 -0.3725
11756TIP3    H256760   4.477   1.492  13.581  0.3642 -0.0200 -1.6635
11757TIP3   OH256761   1.780   1.459   4.396 -0.0996  0.0240 -0.3463
11757TIP3    H156762   1.705   1.464   4.335 -0.2559 -2.8337 -0.5311
11757TIP3    H256763   1.747   1.499   4.476 -0.9916  0.9853 -1.1493
11758TIP3   OH256764   6.424   5.263  12.118  0.7054 -0.0216 -0.1969
11758TIP3    H156765   6.429   5.222  12.031  0.3341 -0.3012 -0.0883
11758TIP3    H256766   6.511   5.301  12.131  0.8684 -0.2600 -0.5529
11759TIP3   OH256767   2.838   4.648   3.009  0.5340  0.4563  0.0835
11759TIP3    H156768   2.882   4.614   3.086 -0.0010 -0.8228 -0.1527
11759TIP3    H256769   2.748   4.616   3.016 -0.0139  1.8559 -0.1525
11760TIP3   OH256770   3.488   3.810   4.314 -0.3058  0.5943  0.3810
11760TIP3    H156771   3.535   3.871   4.257  1.2744  0.2326  1.2629
11760TIP3    H256772   3.399   3.810   4.279 -0.2382  3.0007  0.0428
11761TIP3   OH256773   6.648   2.915  13.961 -0.0403 -0.1884 -0.7145
11761TIP3    H156774   6.612   2.967  13.889  1.8243  0.8446 -0.9682
11761TIP3    H256775   6.608   2.950  14.040 -2.4720 -1.6374 -1.2015
11762TIP3   OH256776   3.906   5.253   4.741 -0.4978  0.1836 -0.0086
11762TIP3    H156777   3.836   5.189   4.736 -2.5377  2.3245 -0.3016
11762TIP3    H256778   3.897   5.306   4.662  0.4329  1.5064  0.7238
11763TIP3   OH256779   2.150   0.987  16.009  0.3202 -0.4428  0.4853
11763TIP3    H156780   2.179   0.901  15.980  2.2501  0.6698 -1.1675
11763TIP3    H256781   2.225   1.022  16.057  0.3024  0.9867 -0.4598
11764TIP3   OH256782   1.889   5.086   4.147  0.5003 -0.4882 -0.0344
11764TIP3    H156783   1.919   5.036   4.071  2.1827 -0.6183  0.6637
11764TIP3    H256784   1.966   5.133   4.177 -0.7290  1.5097  0.1468
11765TIP3   OH256785   5.075   2.288   3.546 -0.0438  0.3703 -0.9991
11765TIP3    H156786   5.121   2.253   3.623 -1.1778  3.5964  1.3389
11765TIP3    H256787   5.134   2.268   3.473  2.7814  0.1337  1.1505
11766TIP3   OH256788   2.819   6.085   2.044  0.2509 -0.4683  0.0063
11766TIP3    H156789   2.871   6.161   2.019 -1.0876  0.4333 -0.1279
11766TIP3    H256790   2.881   6.028   2.090  0.9633  1.3270  1.3927
11767TIP3   OH256791   5.709   3.178  11.383 -0.2665 -0.0151  0.4143
11767TIP3    H156792   5.759   3.097  11.392  0.7000  0.4928 -0.1728
11767TIP3    H256793   5.660   3.167  11.302 -2.5008 -1.2060  1.8261
11768TIP3   OH256794   5.702   3.897   6.116 -0.3830  0.5608 -0.4775
11768TIP3    H156795   5.645   3.871   6.043  0.7143  1.0445 -1.5452
11768TIP3    H256796   5.668   3.982   6.143  0.3768  1.3075 -1.7572
11769TIP3   OH256797   0.775   6.010  17.086 -0.7248  0.3492  0.4341
11769TIP3    H156798   0.851   5.955  17.105 -0.5024  0.4854 -0.0426
11769TIP3    H256799   0.708   5.948  17.057  0.3710  0.5051 -2.7953
11770TIP3   OH256800   4.135   3.319  15.785  0.2381 -0.4378  0.0806
11770TIP3    H156801   4.195   3.302  15.859  0.8320  0.5743 -0.1420
11770TIP3    H256802   4.057   3.356  15.826  0.6228  0.2572  0.2101
11771TIP3   OH256803   3.445   5.984  13.060 -0.4200 -0.7134 -0.3056
11771TIP3    H156804   3.423   5.893  13.081 -0.0168 -0.6944  0.2339
11771TIP3    H256805   3.525   6.001  13.110  0.4076 -0.5623 -1.6345
11772TIP3   OH256806   2.270   3.498   4.675 -1.2877 -0.4316 -0.1531
11772TIP3    H156807   2.329   3.573   4.680 -0.5229 -1.0299  0.0950
11772TIP3    H256808   2.184   3.533   4.698 -1.2138  0.6447 -1.4259
11773TIP3   OH256809   3.980   5.536  15.183  0.2431 -0.0294 -0.5275
11773TIP3    H156810   4.015   5.622  15.206 -1.6702  0.7858 -0.5062
11773TIP3    H256811   4.043   5.474  15.221  0.6688  1.3304  1.1070
11774TIP3   OH256812   2.989   0.342   4.903 -0.5582 -0.3081  0.4419
11774TIP3    H156813   3.033   0.407   4.849 -2.6957 -1.7330 -3.5191
11774TIP3    H256814   3.050   0.269   4.908 -0.1533  0.0222  0.3270
11775TIP3   OH256815   4.508   2.871  14.411  0.2020 -0.5507  0.3018
11775TIP3    H156816   4.450   2.946  14.422  1.8465  0.5866  1.8874
11775TIP3    H256817   4.594   2.904  14.438  1.2765 -2.5900 -0.4523
11776TIP3   OH256818   2.794   2.643  16.314  1.0817 -0.1299  0.3190
11776TIP3    H156819   2.866   2.638  16.252 -0.0893  1.0220 -1.2042
11776TIP3    H256820   2.739   2.715  16.282 -0.6460 -0.8484  1.5176
11777TIP3   OH256821   1.837   6.003   0.187 -0.3546  0.3037  0.6187
11777TIP3    H156822   1.782   6.055   0.245 -1.4342 -0.4202  0.2688
11777TIP3    H256823   1.865   5.928   0.241 -2.2292 -0.9396 -0.0370
11778TIP3   OH256824   3.531   5.716  11.048  0.1276 -0.6193 -0.6477
11778TIP3    H156825   3.594   5.645  11.034  0.8317 -0.9543  3.1221
11778TIP3    H256826   3.579   5.781  11.099 -1.7883  0.4689 -0.1287
11779TIP3   OH256827   3.715   1.185   5.201 -0.6108 -0.3060 -0.8926
11779TIP3    H156828   3.704   1.090   5.210 -2.3130 -0.1068 -0.3850
11779TIP3    H256829   3.629   1.220   5.225  0.4932  1.4801  0.7015
11780TIP3   OH256830   6.391   6.061   0.248  0.2492  0.5974  1.1538
11780TIP3    H156831   6.408   5.972   0.278  1.5561 -0.4232 -2.2109
11780TIP3    H256832   6.476   6.105   0.254 -0.0566  1.1688  1.3734
11781TIP3   OH256833   6.096   3.130  14.092  0.1824 -0.7352  0.0404
11781TIP3    H156834   6.096   3.179  14.010 -0.8987 -1.5389 -0.4614
11781TIP3    H256835   6.164   3.063  14.080 -0.9887 -1.8012 -0.8077
11782TIP3   OH256836   5.705   0.877   1.305 -0.1334 -0.4892 -0.4763
11782TIP3    H156837   5.716   0.933   1.228 -1.5164  0.2430 -0.1762
11782TIP3    H256838   5.787   0.828   1.311  0.4170  0.2185 -1.7831
11783TIP3   OH256839   2.295   0.058  13.064  0.5360  0.2524  0.0365
11783TIP3    H156840   2.274   0.035  12.974 -0.5031 -1.7335  0.7242
11783TIP3    H256841   2.220   0.026  13.115  1.6116  0.2985  1.7306
11784TIP3   OH256842   4.905   1.298   2.736  0.5836  0.0213 -0.2505
11784TIP3    H156843   4.874   1.243   2.809 -2.0787 -0.4975 -1.6587
11784TIP3    H256844   4.846   1.374   2.737  1.5193  0.7734 -0.9299
11785TIP3   OH256845   3.719   5.115  12.866 -0.0962 -0.7017 -0.4967
11785TIP3    H156846   3.735   5.051  12.935 -0.7773 -1.1408 -0.7248
11785TIP3    H256847   3.761   5.195  12.896 -0.4250 -0.8728  0.4518
11786TIP3   OH256848   6.528   1.007  11.782  0.5432  0.2018 -0.2686
11786TIP3    H156849   6.574   0.923  11.781  2.1024  0.9699  1.3121
11786TIP3    H256850   6.562   1.054  11.706 -0.2955 -0.5437 -1.1274
11787TIP3   OH256851   1.173   1.375   3.449  0.2005  0.2443  0.2960
11787TIP3    H156852   1.217   1.304   3.402 -3.4924 -0.5258 -2.4522
11787TIP3    H256853   1.088   1.338   3.474 -0.8571  2.9551  1.0924
11788TIP3   OH256854   5.236   3.279   2.481 -0.3772 -0.4025 -0.5071
11788TIP3    H156855   5.245   3.195   2.437  1.2831 -1.3105  1.4312
11788TIP3    H256856   5.152   3.274   2.525  0.5989 -1.9720  1.3149
11789TIP3   OH256857   2.180   4.334   2.778  0.5136 -0.1758 -0.0750
11789TIP3    H156858   2.154   4.296   2.862  1.3378  0.6720  0.5903
11789TIP3    H256859   2.267   4.299   2.761 -0.2725 -1.6301 -1.4272
11790TIP3   OH256860   4.023   2.982   1.716  0.5062 -0.2897 -0.5658
11790TIP3    H156861   4.042   2.974   1.810  0.5097 -0.2958 -0.5670
11790TIP3    H256862   4.005   2.892   1.688  0.1518 -0.2412 -0.4951
11791TIP3   OH256863   0.368   6.146  14.499 -0.6122 -0.1311 -0.0562
11791TIP3    H156864   0.408   6.226  14.467 -2.2748  0.5325 -0.5598
11791TIP3    H256865   0.341   6.167  14.589  1.0736 -0.9254  0.6784
11792TIP3   OH256866   5.610   2.238   2.810 -0.0583 -0.2374  0.0618
11792TIP3    H156867   5.543   2.296   2.772  2.3742  1.2291 -2.3580
11792TIP3    H256868   5.589   2.152   2.774 -2.2412 -0.4760  1.6727
11793TIP3   OH256869   6.273   0.210   0.517 -0.5739  0.1671 -0.4372
11793TIP3    H156870   6.257   0.120   0.491 -2.6978  0.6897 -1.1010
11793TIP3    H256871   6.225   0.263   0.454  1.6843  1.8679 -0.8670
11794TIP3   OH256872   1.372   4.263  16.387  0.3189 -0.4151  0.3986
11794TIP3    H156873   1.277   4.264  16.396  0.0219 -1.0332 -2.1049
11794TIP3    H256874   1.399   4.181  16.427 -0.4325 -1.1543 -0.5808
11795TIP3   OH256875   3.537   4.624  12.122 -0.3911 -0.1083  0.1063
11795TIP3    H156876   3.455   4.620  12.073  0.5549  0.7778 -1.6335
11795TIP3    H256877   3.539   4.713  12.157 -0.6606 -0.4738  1.0967
11796TIP3   OH256878   0.299   1.715  12.028 -0.5294 -0.3873  0.2286
11796TIP3    H156879   0.364   1.781  12.053 -1.2911 -0.5381  2.8982
11796TIP3    H256880   0.349   1.633  12.023 -0.1612 -0.1652  0.2414
11797TIP3   OH256881   4.402   0.831   2.838  0.2752 -0.1228 -0.9073
11797TIP3    H156882   4.329   0.893   2.830  0.2520 -0.1166 -0.6371
11797TIP3    H256883   4.478   0.886   2.857  0.1734 -0.2172 -0.2209
11798TIP3   OH256884   0.957   2.307   0.193  0.9374 -0.1712  0.2227
11798TIP3    H156885   0.899   2.329   0.120  2.0128 -1.7071 -1.1609
11798TIP3    H256886   0.983   2.392   0.229  1.4901  0.7288 -2.1163
11799TIP3   OH256887   3.403   4.339  15.750 -0.5156  0.1933 -0.1893
11799TIP3    H156888   3.385   4.420  15.702  1.4831  1.1321  0.5323
11799TIP3    H256889   3.348   4.345  15.828  1.5306  2.2645  1.2319
11800TIP3   OH256890   5.050   1.860  15.807 -0.3299  0.9572  0.1057
11800TIP3    H156891   4.957   1.841  15.816 -0.3150 -0.4958 -2.0470
11800TIP3    H256892   5.057   1.912  15.727  0.9069 -1.5968 -1.5883
11801TIP3   OH256893   3.806   6.372  12.293 -0.2129  0.4472  0.1719
11801TIP3    H156894   3.763   6.438  12.348 -0.6225  0.5956 -0.3285
11801TIP3    H256895   3.743   6.353  12.224  0.0687 -0.1742  0.0793
11802TIP3   OH256896   6.639   5.005   2.070  0.0605 -0.5545  0.4375
11802TIP3    H156897   6.659   5.055   2.149 -1.0536 -1.7365  1.5165
11802TIP3    H256898   6.549   5.030   2.048 -1.2769 -3.3531  2.1276
11803TIP3   OH256899   4.736   4.624  10.709 -0.2360  0.0292  0.1289
11803TIP3    H156900   4.726   4.711  10.669 -0.5935  0.1913  0.5632
11803TIP3    H256901   4.742   4.564  10.635 -1.2968  0.2781 -0.1712
11804TIP3   OH256902   4.749   4.366  13.540 -0.0510  0.1000 -0.1925
11804TIP3    H156903   4.772   4.451  13.502  1.3966  0.2013  0.8363
11804TIP3    H256904   4.740   4.384  13.634  0.2330 -0.8747  0.0272
11805TIP3   OH256905   2.868   6.414  12.915  0.0079  0.1524  0.2974
11805TIP3    H156906   2.952   6.376  12.890 -0.7517 -1.8413  0.5762
11805TIP3    H256907   2.803   6.357  12.874 -1.2132  0.3064  1.9268
11806TIP3   OH256908   1.715   3.966   3.155  0.6076  0.0671 -0.2736
11806TIP3    H156909   1.662   3.928   3.086  1.2706  0.9775 -1.3093
11806TIP3    H256910   1.751   3.891   3.203 -0.0063 -0.5611 -0.7922
11807TIP3   OH256911   2.344   0.090  14.858 -0.0907  0.1130 -0.2005
11807TIP3    H156912   2.414   0.028  14.877 -0.9103 -1.0287 -0.8531
11807TIP3    H256913   2.287   0.045  14.796 -0.2785  1.8077 -1.3358
11808TIP3   OH256914   2.777   3.297  13.241  0.9874 -0.1659  0.1372
11808TIP3    H156915   2.824   3.351  13.177 -0.0308  1.9239  1.0260
11808TIP3    H256916   2.686   3.297  13.210  0.4950  0.7985  1.4477
11809TIP3   OH256917   1.958   2.637  16.743 -0.1267 -0.1970  0.0690
11809TIP3    H156918   2.041   2.673  16.712  0.7281 -0.7770  1.5841
11809TIP3    H256919   1.928   2.580  16.672  0.9205 -0.2265 -0.3576
11810TIP3   OH256920   3.632   2.964   6.601 -0.4431 -0.0746 -0.3349
11810TIP3    H156921   3.704   2.946   6.662 -0.6963 -2.6806 -0.6602
11810TIP3    H256922   3.554   2.965   6.657 -0.5973 -1.7745 -0.4609
11811TIP3   OH256923   1.445   1.673   5.580  0.0122  0.0509  0.2189
11811TIP3    H156924   1.351   1.691   5.576 -0.2644 -1.3837 -0.3326
11811TIP3    H256925   1.466   1.677   5.673 -0.6179  0.2250  0.3641
11812TIP3   OH256926   0.514   2.901   0.946  0.2294  0.0527  0.1312
11812TIP3    H156927   0.569   2.979   0.943  0.2921 -0.0078 -0.3938
11812TIP3    H256928   0.528   2.859   0.862 -1.1839  0.4232 -0.3038
11813TIP3   OH256929   4.062   0.300  10.829  0.6676 -0.0555 -0.1334
11813TIP3    H156930   4.028   0.219  10.789  0.9213 -0.6821  0.9008
11813TIP3    H256931   3.990   0.363  10.819  0.1259 -0.6610 -0.1408
11814TIP3   OH256932   4.479   2.798   2.416 -0.2892  0.2129  0.0944
11814TIP3    H156933   4.571   2.812   2.440 -0.2825 -0.0199  0.2113
11814TIP3    H256934   4.468   2.843   2.333 -0.1053  0.3635  0.1515
11815TIP3   OH256935   3.396   3.061  15.702 -0.3057 -0.0366  0.2811
11815TIP3    H156936   3.371   3.108  15.622  1.1987  0.9022  0.3319
11815TIP3    H256937   3.350   3.107  15.772  1.1359  1.4195  0.3275
11816TIP3   OH256938   2.104   0.742  11.196 -0.4085 -0.1920  0.0535
11816TIP3    H156939   2.035   0.680  11.219 -0.2427 -0.2699  0.3481
11816TIP3    H256940   2.125   0.723  11.105  0.4287 -1.3339  0.4537
11817TIP3   OH256941   3.148   5.904  13.914 -0.2245  0.1076  0.2198
11817TIP3    H156942   3.060   5.938  13.899  0.9631  2.8133 -1.2935
11817TIP3    H256943   3.188   5.900  13.827  1.1683 -1.0249  0.8683
11818TIP3   OH256944   2.868   1.318  16.105 -0.1239  0.4768  0.3347
11818TIP3    H156945   2.936   1.355  16.049 -0.6328 -1.4553 -1.6941
11818TIP3    H256946   2.793   1.377  16.093 -0.1749  0.1729 -0.9569
11819TIP3   OH256947   0.838   1.370   5.109  0.3863  0.0008  0.4353
11819TIP3    H156948   0.859   1.450   5.063  0.5396 -0.5702 -0.5144
11819TIP3    H256949   0.744   1.378   5.130  0.7906  1.2156  2.0031
11820TIP3   OH256950   5.510   1.103  14.986 -0.3349 -0.4663  0.2028
11820TIP3    H156951   5.578   1.068  14.928 -0.1608  1.1451 -0.6245
11820TIP3    H256952   5.435   1.044  14.974 -0.2355 -0.2954 -1.5461
11821TIP3   OH256953   1.309   0.865   4.060  0.2800  0.0904 -0.3141
11821TIP3    H156954   1.318   0.789   4.003  1.0496  0.0426 -0.1430
11821TIP3    H256955   1.274   0.934   4.003 -0.0651 -0.2804 -0.5574
11822TIP3   OH256956   3.466   2.470   0.401 -0.2080 -0.3707  0.6951
11822TIP3    H156957   3.536   2.472   0.466  1.0219 -0.0307 -0.6090
11822TIP3    H256958   3.460   2.379   0.375 -1.0526 -0.6027  1.5976
11823TIP3   OH256959   2.510   0.299   6.412  0.0293  0.7368 -0.2394
11823TIP3    H156960   2.587   0.345   6.446  0.0628  1.1343 -0.8492
11823TIP3    H256961   2.436   0.343   6.455  0.1654 -0.0651  0.8404
11824TIP3   OH256962   6.492   2.978   2.390  0.4861  0.0629 -0.9843
11824TIP3    H156963   6.427   2.981   2.320 -2.2525  0.7933  1.4020
11824TIP3    H256964   6.469   3.051   2.447  0.4728 -2.3155  2.3435
11825TIP3   OH256965   1.355   0.111  12.464  0.0752 -0.6734  0.4084
11825TIP3    H156966   1.323   0.201  12.455  0.0366 -0.5870  1.3433
11825TIP3    H256967   1.360   0.079  12.374  1.1333  0.6152 -0.0358
11826TIP3   OH256968   2.912   2.685  11.300 -0.3055 -0.1049 -0.3322
11826TIP3    H156969   2.993   2.709  11.345  1.1108  0.0854 -2.8303
11826TIP3    H256970   2.923   2.592  11.280 -2.2421 -0.9934  2.1928
11827TIP3   OH256971   3.134   0.494  12.949  0.5083 -0.4279  0.7260
11827TIP3    H156972   3.067   0.528  12.888  2.0038  1.3471 -0.0186
11827TIP3    H256973   3.163   0.413  12.908 -0.2912 -0.5593  0.3907
11828TIP3   OH256974   3.577   5.140   4.242  0.1133  0.2156  0.2037
11828TIP3    H156975   3.651   5.168   4.297 -0.0182  0.0559  0.4652
11828TIP3    H256976   3.514   5.211   4.250  1.0031  1.2541 -1.5365
11829TIP3   OH256977   2.204   4.072  14.033 -0.0799  0.5064 -0.0531
11829TIP3    H156978   2.162   4.121  13.962  0.0756  0.7518  0.0212
11829TIP3    H256979   2.284   4.038  13.994 -0.7993 -0.7696 -0.4658
11830TIP3   OH256980   4.224   4.856  15.461 -0.6222 -0.7151  0.2916
11830TIP3    H156981   4.261   4.917  15.397 -0.9141 -0.1137  0.6794
11830TIP3    H256982   4.143   4.825  15.421 -0.1796 -1.3044 -0.1574
11831TIP3   OH256983   6.306   4.367   4.804 -0.0278 -0.0681  0.2687
11831TIP3    H156984   6.228   4.421   4.816  0.8820  1.6247 -1.0203
11831TIP3    H256985   6.297   4.328   4.718  0.0203 -0.8017  0.5872
11832TIP3   OH256986   3.768   3.268  12.285  0.3655 -0.1356  0.0026
11832TIP3    H156987   3.699   3.258  12.220 -0.5544 -0.2869  0.9721
11832TIP3    H256988   3.824   3.338  12.251 -0.8528  0.7184 -0.2977
11833TIP3   OH256989   2.288   3.513   1.628 -0.0903 -0.0494  0.3297
11833TIP3    H156990   2.369   3.469   1.652  1.2854  1.9481 -0.4354
11833TIP3    H256991   2.287   3.512   1.532 -0.5057  0.7303  0.3172
11834TIP3   OH256992   5.736   0.293   3.463  0.0130 -0.3919  0.5423
11834TIP3    H156993   5.799   0.334   3.404 -0.0023 -0.0035  0.7938
11834TIP3    H256994   5.737   0.200   3.439 -0.4783 -0.1433 -0.5248
11835TIP3   OH256995   2.321   4.335   1.695  0.1287 -0.1889 -0.7392
11835TIP3    H156996   2.313   4.253   1.743  0.5126  0.1187 -0.1278
11835TIP3    H256997   2.349   4.310   1.607 -0.6536 -0.7709 -0.8302
11836TIP3   OH256998   2.961   0.777  10.868 -0.3419 -0.4851  0.4521
11836TIP3    H156999   2.975   0.869  10.843  0.3207  0.1591  2.8944
11836TIP3    H257000   2.896   0.745  10.805 -0.2158  1.4909 -0.7846
11837TIP3   OH257001   0.598   0.622  15.168 -0.2662 -0.3447 -0.4960
11837TIP3    H157002   0.571   0.629  15.259 -0.1496  0.0717 -0.4913
11837TIP3    H257003   0.666   0.688  15.157 -0.8974  0.2283 -1.1062
11838TIP3   OH257004   4.717   5.322  13.971  0.5110  0.0592  0.8350
11838TIP3    H157005   4.659   5.316  14.047 -1.1990  1.2268 -0.3165
11838TIP3    H257006   4.722   5.232  13.937 -2.4489  0.2437 -0.3029
11839TIP3   OH257007   3.354   2.396   4.559  0.3180  0.1376 -0.0086
11839TIP3    H157008   3.279   2.456   4.563  0.5437  0.4838 -0.7399
11839TIP3    H257009   3.419   2.436   4.618  0.4695  0.6257 -0.4977
11840TIP3   OH257010   1.849   2.902  11.529  0.5564  0.2088 -0.4199
11840TIP3    H157011   1.763   2.930  11.497  0.1889 -0.4489 -0.0040
11840TIP3    H257012   1.870   2.824  11.477 -0.3083 -1.2288  1.3032
11841TIP3   OH257013   0.256   0.235  13.217  0.3239 -0.2156 -0.4363
11841TIP3    H157014   0.282   0.288  13.141 -0.8181 -1.4434 -1.7414
11841TIP3    H257015   0.212   0.160  13.179 -1.6678 -0.1271  1.5367
11842TIP3   OH257016   2.048   4.482  13.741 -0.2137  0.6486 -0.4885
11842TIP3    H157017   2.036   4.573  13.769  1.9849  0.7909  0.2028
11842TIP3    H257018   2.030   4.483  13.647 -0.6924  1.6904 -0.4008
11843TIP3   OH257019   3.268   3.038   2.321  0.0888 -0.0201 -0.2027
11843TIP3    H157020   3.240   3.118   2.274  0.4007  0.5298  0.5289
11843TIP3    H257021   3.199   3.023   2.385  0.3191  0.0077  0.0552
11844TIP3   OH257022   2.288   3.090  16.449  0.3242  0.2623 -0.3916
11844TIP3    H157023   2.328   3.016  16.403 -0.6107 -0.5953  0.1442
11844TIP3    H257024   2.214   3.116  16.394  1.5113  1.7883 -1.3355
11845TIP3   OH257025   3.454   1.961   5.302 -0.1181  0.5007  0.1498
11845TIP3    H157026   3.443   1.946   5.396  0.7338 -0.6461  0.0818
11845TIP3    H257027   3.452   2.056   5.293  1.4691  0.7198  1.5483
11846TIP3   OH257028   5.282   0.421   5.581 -0.0065 -0.0187  0.1687
11846TIP3    H157029   5.324   0.436   5.497  0.3120 -1.7136 -0.0211
11846TIP3    H257030   5.200   0.376   5.560 -1.3669  2.1269  0.6171
11847TIP3   OH257031   2.007   0.311   3.983 -0.1491 -0.6436  0.0456
11847TIP3    H157032   1.923   0.283   3.948  0.3332 -2.4848  0.2419
11847TIP3    H257033   2.072   0.276   3.921  0.4961  0.1352  0.2710
11848TIP3   OH257034   2.320   3.784   4.335  0.5449  0.0413  0.2103
11848TIP3    H157035   2.385   3.765   4.403 -0.0170  0.4023  0.8563
11848TIP3    H257036   2.320   3.707   4.279 -0.8300 -1.4052  2.0866
11849TIP3   OH257037   5.615   5.339  17.174  0.1987  1.0286 -0.0127
11849TIP3    H157038   5.549   5.284  17.216  1.2482  0.7411  1.3482
11849TIP3    H257039   5.612   5.421  17.223  2.6029  0.0993  1.8612
11850TIP3   OH257040   0.732   5.157  15.683 -0.5759 -0.5054 -0.2062
11850TIP3    H157041   0.816   5.175  15.725  0.0683 -1.2313 -1.1390
11850TIP3    H257042   0.725   5.062  15.681 -2.1820 -0.4548  1.2748
11851TIP3   OH257043   1.120   5.818   1.134 -0.2880 -0.1308 -0.3068
11851TIP3    H157044   1.111   5.825   1.230 -0.9526 -0.4277 -0.3388
11851TIP3    H257045   1.135   5.725   1.118 -0.8943 -0.1926 -0.5391
11852TIP3   OH257046   5.317   0.395  13.267  0.3702 -0.0325  0.5035
11852TIP3    H157047   5.254   0.331  13.234 -0.2701  0.7230  0.2448
11852TIP3    H257048   5.337   0.366  13.356 -0.7157 -0.0108  0.7657
11853TIP3   OH257049   5.844   1.733   4.444  0.2036 -0.1051 -0.2679
11853TIP3    H157050   5.797   1.815   4.431  0.3280  0.2338  1.1863
11853TIP3    H257051   5.897   1.749   4.523 -1.4307 -2.2676  1.3972
11854TIP3   OH257052   3.357   1.758  10.860  0.4741 -0.0408  0.3384
11854TIP3    H157053   3.331   1.684  10.806  0.7430 -1.0514  1.5309
11854TIP3    H257054   3.386   1.825  10.798 -1.7210 -0.1248 -0.8682
11855TIP3   OH257055   3.174   6.647  17.213  0.4734  0.2336  0.6036
11855TIP3    H157056   3.115   6.668  17.286 -0.9334  1.3376 -0.7878
11855TIP3    H257057   3.262   6.658  17.250 -0.2087  1.2593  2.0189
11856TIP3   OH257058   2.289   0.335   1.931 -0.4101  0.1872  0.6204
11856TIP3    H157059   2.323   0.424   1.935 -3.2909  1.3788  1.1792
11856TIP3    H257060   2.219   0.333   1.996 -0.5974 -2.4363  0.4433
11857TIP3   OH257061   2.302   1.334  14.934  0.4873 -0.2720 -0.2246
11857TIP3    H157062   2.263   1.269  14.993 -1.1047 -0.9689 -1.9519
11857TIP3    H257063   2.227   1.370  14.885  1.4851  1.9656 -0.2113
11858TIP3   OH257064   5.538   0.321   4.893 -0.5156 -0.2967 -0.0774
11858TIP3    H157065   5.525   0.241   4.944 -1.7366  0.8399  1.5205
11858TIP3    H257066   5.453   0.338   4.853 -0.6920  0.9031  0.7446
11859TIP3   OH257067   3.780   0.288  16.498 -0.4234 -0.0731  0.1627
11859TIP3    H157068   3.767   0.264  16.589 -0.1529 -1.9654 -0.2596
11859TIP3    H257069   3.752   0.380  16.493 -1.6791 -0.3164  1.8546
11860TIP3   OH257070   4.133   1.890   2.165 -0.0744 -0.1549  0.7273
11860TIP3    H157071   4.217   1.904   2.209 -0.1978 -0.3136  1.0177
11860TIP3    H257072   4.070   1.880   2.236 -0.3549  0.0540  0.5083
11861TIP3   OH257073   3.410   6.316   0.779 -0.4867 -0.6260 -0.6285
11861TIP3    H157074   3.495   6.272   0.774 -0.3441 -0.1808 -3.0799
11861TIP3    H257075   3.347   6.251   0.750 -0.7205 -0.3045 -0.8494
11862TIP3   OH257076   3.235   0.059  12.798 -0.0934  0.6512  0.1443
11862TIP3    H157077   3.205   0.125  12.736  0.7287  0.0594 -0.9230
11862TIP3    H257078   3.173  -0.013  12.787 -0.2253  0.7345  0.3502
11863TIP3   OH257079   1.630   6.586   2.501  0.2232 -0.3715  0.0252
11863TIP3    H157080   1.545   6.620   2.473  0.2976  0.0361  0.2885
11863TIP3    H257081   1.685   6.664   2.511  0.2421 -0.5061  1.1495
11864TIP3   OH257082   3.976   0.667  15.225  0.0301  0.0485 -0.5246
11864TIP3    H157083   3.946   0.753  15.255 -2.4369 -0.7288 -0.5371
11864TIP3    H257084   3.994   0.619  15.305  2.4336  0.8159 -0.5159
11865TIP3   OH257085   6.406   2.233  13.204 -0.1887 -0.2104 -0.3201
11865TIP3    H157086   6.337   2.224  13.139  1.0267 -0.0942 -1.6772
11865TIP3    H257087   6.459   2.306  13.173  1.0181 -0.8102  0.2452
11866TIP3   OH257088   5.103   3.391   5.380 -0.1698  1.1917 -0.3160
11866TIP3    H157089   5.172   3.456   5.393 -0.9171  1.9324  0.0351
11866TIP3    H257090   5.108   3.370   5.286 -0.1440  2.0234 -0.5133
11867TIP3   OH257091   5.419   6.335  10.368 -0.1371 -0.2307 -0.0096
11867TIP3    H157092   5.467   6.367  10.445  0.2661  0.5520 -0.5806
11867TIP3    H257093   5.338   6.386  10.368  0.2956  0.4583 -0.6534
11868TIP3   OH257094   0.407   6.088   5.389 -0.0462  0.2821 -0.2774
11868TIP3    H157095   0.501   6.078   5.403  0.1369  0.2251 -1.4525
11868TIP3    H257096   0.397   6.179   5.358 -0.8107  1.5084  3.1494
11869TIP3   OH257097   2.450   6.743   2.763 -0.2279 -0.2725  0.4165
11869TIP3    H157098   2.534   6.698   2.767 -0.3466 -0.4804  0.5769
11869TIP3    H257099   2.471   6.834   2.783  0.2416  0.0483 -1.3950
11870TIP3   OH257100   3.548   5.702   1.785  0.0025  0.2893  0.0850
11870TIP3    H157101   3.476   5.719   1.725  0.7674  0.0428 -0.9330
11870TIP3    H257102   3.587   5.620   1.754  1.3132  0.9133  0.0016
11871TIP3   OH257103   4.382   3.223  13.455  0.0783 -0.3617 -0.2177
11871TIP3    H157104   4.393   3.161  13.527 -1.0647 -1.6087 -1.0706
11871TIP3    H257105   4.308   3.277  13.481  1.3390  0.9761  0.7174
11872TIP3   OH257106   6.570   2.444  13.081  0.6481  0.6174  0.2573
11872TIP3    H157107   6.594   2.534  13.098 -2.9331  1.8732 -0.4642
11872TIP3    H257108   6.627   2.417  13.008  1.2003  2.5758 -0.0839
11873TIP3   OH257109   6.274   5.296   0.209  0.1948 -0.0718  0.4438
11873TIP3    H157110   6.241   5.303   0.120 -0.9631 -1.8828  0.6777
11873TIP3    H257111   6.224   5.362   0.258  1.0691  1.1616 -0.2562
11874TIP3   OH257112   3.146   4.024  15.285 -0.5189  0.4952  0.3090
11874TIP3    H157113   3.218   4.003  15.225 -0.4395  0.1479  0.5230
11874TIP3    H257114   3.111   3.938  15.311  0.1120  0.6047  1.5829
11875TIP3   OH257115   3.551   1.287   1.598  0.1327 -0.1368 -0.6641
11875TIP3    H157116   3.549   1.374   1.559  1.0344 -0.5554 -1.7014
11875TIP3    H257117   3.634   1.249   1.568  0.4740 -0.7958  1.0042
11876TIP3   OH257118   5.510   2.115   0.164  0.3151  0.1207 -0.4609
11876TIP3    H157119   5.576   2.184   0.157 -1.2147  1.6598 -0.3842
11876TIP3    H257120   5.476   2.106   0.075 -0.3581  0.3523 -0.2272
11877TIP3   OH257121   5.682   4.923   2.666  0.2143 -0.4023  0.3339
11877TIP3    H157122   5.711   4.975   2.591 -0.0957 -0.4504  0.1778
11877TIP3    H257123   5.588   4.941   2.673  0.2743 -0.2615  0.8218
11878TIP3   OH257124   1.517   0.274  15.572 -0.0705 -0.7937  0.0581
11878TIP3    H157125   1.422   0.277  15.585 -0.1718 -0.5540 -0.6992
11878TIP3    H257126   1.552   0.245  15.656 -0.8641 -1.5887  0.1250
11879TIP3   OH257127   0.688   3.554  15.970  0.2180 -0.0678 -0.3609
11879TIP3    H157128   0.723   3.617  15.907 -1.1512  0.2000 -0.8902
11879TIP3    H257129   0.596   3.543  15.945 -0.5756  0.5542  1.9661
11880TIP3   OH257130   6.071   0.692  15.681 -0.3518  0.2829 -0.0477
11880TIP3    H157131   6.135   0.738  15.627  0.5195  2.2550  2.4445
11880TIP3    H257132   6.003   0.664  15.620  2.2425 -0.8860 -2.6385
11881TIP3   OH257133   1.058   2.862  15.415 -0.0893 -0.1372 -0.3962
11881TIP3    H157134   1.039   2.842  15.323 -0.2021  0.3882 -0.4895
11881TIP3    H257135   1.031   2.954  15.426 -1.7974 -0.7069  0.6338
11882TIP3   OH257136   3.275   6.450  11.672  0.4651  0.3154  0.2969
11882TIP3    H157137   3.287   6.531  11.622  1.0422 -0.8519 -1.5733
11882TIP3    H257138   3.342   6.390  11.637 -0.9478 -1.4727  0.4883
11883TIP3   OH257139   0.387   2.276  12.400  0.0392 -0.0699 -0.1979
11883TIP3    H157140   0.370   2.341  12.332 -0.0403 -1.0443 -1.1444
11883TIP3    H257141   0.478   2.291  12.426 -0.0466  0.5543 -0.2573
11884TIP3   OH257142   6.079   2.556   6.228 -0.2486 -0.2147 -0.2610
11884TIP3    H157143   6.146   2.500   6.266 -1.1713 -1.2158 -0.0811
11884TIP3    H257144   6.049   2.509   6.151 -0.2406  0.5708 -0.7536
11885TIP3   OH257145   5.970   1.820   1.620  0.4924  0.2944  0.3934
11885TIP3    H157146   6.024   1.779   1.553  0.3997 -0.1763  0.6045
11885TIP3    H257147   5.917   1.884   1.573  1.0689  0.6022  0.1506
11886TIP3   OH257148   6.544   4.277   0.885  0.0695 -0.2072 -0.3085
11886TIP3    H157149   6.527   4.245   0.974  0.4844  2.1935  0.7113
11886TIP3    H257150   6.640   4.272   0.875  0.2061  1.1774  0.1013
11887TIP3   OH257151   5.193   1.587  16.724  0.1239  0.2419  0.1958
11887TIP3    H157152   5.148   1.502  16.726 -1.1062  0.8801  1.7773
11887TIP3    H257153   5.208   1.608  16.816  1.1914  1.3502 -0.2155
11888TIP3   OH257154   4.875   4.233  14.383 -0.3453  0.1339 -0.1563
11888TIP3    H157155   4.838   4.321  14.379 -2.5337 -0.7093  0.4385
11888TIP3    H257156   4.881   4.205  14.292 -1.1608  0.3124 -0.2726
11889TIP3   OH257157   1.775   5.622  15.681 -1.0055  0.0051 -0.0282
11889TIP3    H157158   1.738   5.580  15.603 -0.2142  0.1526 -0.4840
11889TIP3    H257159   1.805   5.548  15.735 -3.9390 -0.3015  1.4328
11890TIP3   OH257160   0.871   0.853   3.700 -0.0184  0.3662 -0.2162
11890TIP3    H157161   0.908   0.938   3.674  0.3475  0.0615 -0.7177
11890TIP3    H257162   0.936   0.789   3.670 -0.7513 -0.1516 -0.7247
11891TIP3   OH257163   0.090   3.872  12.173  0.4701 -0.4570  0.3344
11891TIP3    H157164   0.052   3.960  12.173 -0.3904 -0.8189  0.6483
11891TIP3    H257165   0.182   3.886  12.196  0.4722  0.4050 -0.1340
11892TIP3   OH257166   6.536   2.278  13.699 -0.0956 -0.0192 -0.3014
11892TIP3    H157167   6.543   2.308  13.609 -0.8749  0.8661 -0.0891
11892TIP3    H257168   6.442   2.282  13.718 -0.0474 -1.1318  0.2421
11893TIP3   OH257169   2.606   1.438   1.979 -0.1737 -0.0004 -0.4145
11893TIP3    H157170   2.542   1.508   1.994 -1.2233 -0.7817 -1.1231
11893TIP3    H257171   2.639   1.417   2.066 -0.8783  0.4320 -0.0325
11894TIP3   OH257172   5.394   0.354   1.252  0.2029  0.0894  0.2327
11894TIP3    H157173   5.455   0.427   1.248 -0.9987  1.1567 -3.3127
11894TIP3    H257174   5.310   0.394   1.275 -0.1998 -0.3651 -0.3893
11895TIP3   OH257175   5.064   2.516   3.785 -0.9986 -0.4452  0.3732
11895TIP3    H157176   5.096   2.580   3.849 -1.1393  0.4001 -0.3893
11895TIP3    H257177   5.074   2.560   3.700  0.3874 -2.0029 -0.3413
11896TIP3   OH257178   1.703   0.562  13.657 -0.5747  0.2059  0.1184
11896TIP3    H157179   1.731   0.520  13.739 -0.5874 -1.6026 -0.7609
11896TIP3    H257180   1.687   0.653  13.682  1.4569  0.2134  1.6862
11897TIP3   OH257181   5.561   5.231  12.785 -0.1343 -0.1584 -0.4864
11897TIP3    H157182   5.514   5.302  12.829  0.2159 -0.4381  0.3744
11897TIP3    H257183   5.493   5.178  12.743 -0.8084 -1.4321  1.9996
11898TIP3   OH257184   2.674   3.530   5.891  0.3808 -0.5492 -0.0936
11898TIP3    H157185   2.696   3.578   5.811  0.2825  0.7906  0.6645
11898TIP3    H257186   2.611   3.464   5.862  3.4105 -2.9011 -1.8642
11899TIP3   OH257187   5.105   2.427   1.972  0.5441 -0.1340  0.6287
11899TIP3    H157188   5.064   2.513   1.977  0.2356 -0.3302  1.8988
11899TIP3    H257189   5.196   2.444   1.951  0.7051  0.5809  1.8354
11900TIP3   OH257190   1.647   0.836  13.673 -0.1189  0.3702  0.1641
11900TIP3    H157191   1.639   0.931  13.673  1.4554  0.5473  1.8470
11900TIP3    H257192   1.619   0.810  13.586 -0.1450  2.4063 -0.4924
11901TIP3   OH257193   6.085   3.726  17.079  0.2774 -0.2461 -0.4578
11901TIP3    H157194   6.052   3.699  16.993  0.4990  0.1428 -0.6685
11901TIP3    H257195   6.062   3.819  17.084  1.1186 -0.0295 -0.5017
11902TIP3   OH257196   1.899   0.192  10.893  0.2807  0.2972  0.7178
11902TIP3    H157197   1.896   0.100  10.920  0.0523  0.5254  1.4822
11902TIP3    H257198   1.984   0.202  10.850 -0.6281 -0.8581 -1.5377
11903TIP3   OH257199   0.361   3.641  13.619 -0.2984  0.5324 -0.3444
11903TIP3    H157200   0.399   3.729  13.611 -1.5639  1.0188 -1.2824
11903TIP3    H257201   0.430   3.582  13.589  0.7627  1.1371  0.7999
11904TIP3   OH257202   0.875   5.763   1.765 -0.0692  0.2520 -0.2289
11904TIP3    H157203   0.835   5.703   1.827 -1.4675  0.4184 -0.9168
11904TIP3    H257204   0.836   5.738   1.680  1.4001  0.3510 -0.9565
11905TIP3   OH257205   3.506   0.195  17.199 -0.2785  0.1444 -0.0526
11905TIP3    H157206   3.537   0.222  17.113  0.2778  1.3587  0.5048
11905TIP3    H257207   3.585   0.167  17.245 -0.8197 -2.4737 -0.5699
11906TIP3   OH257208   1.844   0.133   4.303  0.3564 -0.5352  0.0859
11906TIP3    H157209   1.802   0.219   4.305  2.0786  0.3514 -0.1818
11906TIP3    H257210   1.771   0.072   4.292 -0.8260  0.9529 -0.8351
11907TIP3   OH257211   4.711   6.274  10.340 -0.3240 -0.1196 -0.6573
11907TIP3    H157212   4.793   6.259  10.294 -0.0619  2.4541 -1.1817
11907TIP3    H257213   4.737   6.301  10.428 -0.6729 -0.8107 -0.3386
11908TIP3   OH257214   6.267   0.321   1.055  0.1325  0.0690  0.1430
11908TIP3    H157215   6.316   0.281   0.983 -0.5640  1.3513 -1.0909
11908TIP3    H257216   6.176   0.294   1.040  0.2705 -1.7958  2.0687
11909TIP3   OH257217   5.872   5.715  12.318 -0.1679  0.1584 -0.4041
11909TIP3    H157218   5.789   5.708  12.269 -0.3507  0.2314 -0.1052
11909TIP3    H257219   5.939   5.695  12.253 -0.5340 -2.4758 -0.0496
11910TIP3   OH257220   1.454   2.426  16.428 -0.4472 -0.7859  1.0197
11910TIP3    H157221   1.361   2.420  16.451 -0.7759  0.4796  0.1460
11910TIP3    H257222   1.456   2.406  16.334 -0.1657  1.3598  0.5317
11911TIP3   OH257223   5.655   1.391   0.260  0.3625  0.3711 -0.0084
11911TIP3    H157224   5.724   1.376   0.196 -0.4362 -1.6436 -0.4882
11911TIP3    H257225   5.700   1.394   0.344  0.9751 -2.3299 -0.1642
11912TIP3   OH257226   4.467   6.465  16.510  0.5495 -0.1790 -0.4039
11912TIP3    H157227   4.375   6.461  16.484  0.1403  0.2500  0.9118
11912TIP3    H257228   4.477   6.393  16.572  0.9054  0.2387  0.0283
11913TIP3   OH257229   0.927   5.270   1.336 -0.1974  0.0741  0.0512
11913TIP3    H157230   1.012   5.254   1.296 -0.3816 -2.3202  0.5029
11913TIP3    H257231   0.942   5.344   1.395  1.2646  0.4198 -0.7066
11914TIP3   OH257232   3.083   5.980   2.917 -0.3538  0.4535 -0.6119
11914TIP3    H157233   3.096   5.890   2.889 -0.7015 -0.7181  2.6079
11914TIP3    H257234   3.152   6.029   2.873  0.2307 -1.4605 -1.9465
11915TIP3   OH257235   3.186   4.311   0.142 -0.2179 -0.2693 -0.0176
11915TIP3    H157236   3.163   4.230   0.187  0.5793 -1.0124 -0.8900
11915TIP3    H257237   3.103   4.344   0.107 -0.9749  0.6986  2.4852
11916TIP3   OH257238   3.826   3.868  15.301  0.7410  0.1762  0.6199
11916TIP3    H157239   3.814   3.959  15.327 -1.3005 -0.4371  2.1535
11916TIP3    H257240   3.918   3.849  15.320  1.7626  2.3845 -1.5978
11917TIP3   OH257241   2.849   1.381   1.184  0.5888  0.3152 -0.3517
11917TIP3    H157242   2.920   1.318   1.195 -0.6672 -0.9295  0.9790
11917TIP3    H257243   2.826   1.374   1.091  0.6790 -0.9782 -0.2994
11918TIP3   OH257244   5.752   2.471   5.261  0.2837 -0.2616 -0.1728
11918TIP3    H157245   5.847   2.468   5.273  0.3513  1.2251 -0.1175
11918TIP3    H257246   5.720   2.523   5.334 -0.5554 -0.5505 -0.3207
11919TIP3   OH257247   5.922   3.723  13.721 -0.4174 -0.2205  0.1451
11919TIP3    H157248   5.833   3.691  13.736 -0.7720  0.9090  0.5956
11919TIP3    H257249   5.914   3.819  13.726  0.3328  0.0493 -2.5150
11920TIP3   OH257250   1.246   5.241  13.642 -0.0079 -0.2472  0.0965
11920TIP3    H157251   1.161   5.269  13.608 -0.6559 -0.6122  1.3173
11920TIP3    H257252   1.306   5.249  13.568 -0.9429  0.7403 -0.5892
11921TIP3   OH257253   5.423   4.012   5.339 -0.6863  0.4380  0.1102
11921TIP3    H157254   5.491   4.069   5.377  1.1050 -0.8547 -0.9645
11921TIP3    H257255   5.397   4.057   5.258  1.2295 -0.4513 -1.1050
11922TIP3   OH257256   2.543   2.612  11.840 -0.1323 -0.2121 -0.2913
11922TIP3    H157257   2.568   2.519  11.839 -0.6283 -0.3492 -1.1674
11922TIP3    H257258   2.612   2.656  11.791 -0.9047 -0.4100 -1.5940
11923TIP3   OH257259   2.423   0.460  15.322 -0.2110  0.4044  0.5419
11923TIP3    H157260   2.455   0.377  15.287  0.1133  0.5415  0.5053
11923TIP3    H257261   2.493   0.491  15.379 -0.1468  0.8554  0.2286
11924TIP3   OH257262   3.196   4.095  15.952 -0.7832  0.1303 -0.2915
11924TIP3    H157263   3.252   4.077  15.876 -0.2083  1.0033 -0.0911
11924TIP3    H257264   3.257   4.115  16.023 -1.3350  0.2420  0.1599
11925TIP3   OH257265   1.742   5.918  14.719  0.5689 -0.0146 -0.5935
11925TIP3    H157266   1.686   5.892  14.792  0.7641 -1.1335 -0.8260
11925TIP3    H257267   1.744   5.841  14.662 -1.6260  1.5784 -3.1115
11926TIP3   OH257268   6.509   0.075  13.158  0.4686 -0.0920  0.3970
11926TIP3    H157269   6.507   0.078  13.254  2.1052  1.1999  0.4400
11926TIP3    H257270   6.481   0.163  13.131 -0.1820 -0.5138 -0.3294
11927TIP3   OH257271   4.228   5.144  12.561  0.1167  0.3406 -0.0231
11927TIP3    H157272   4.189   5.057  12.555 -0.7378  0.7692 -1.3463
11927TIP3    H257273   4.158   5.203  12.533  1.1696  1.3100 -0.7049
11928TIP3   OH257274   0.167   3.464   1.786  0.2140 -0.0054 -0.4657
11928TIP3    H157275   0.099   3.401   1.811  0.7483 -0.5185 -0.2593
11928TIP3    H257276   0.182   3.515   1.865  0.9774 -0.7612 -0.0982
11929TIP3   OH257277   3.516   4.303   0.514 -0.4525  0.5696 -0.0256
11929TIP3    H157278   3.596   4.308   0.461 -1.9802  1.5622 -2.4123
11929TIP3    H257279   3.509   4.210   0.537  1.5864  0.5278  0.6300
11930TIP3   OH257280   4.468   3.366   1.492  0.7077 -0.1448  0.4018
11930TIP3    H157281   4.528   3.321   1.432 -1.0563 -0.3405 -1.3221
11930TIP3    H257282   4.406   3.411   1.434 -1.0236 -0.2460  2.0812
11931TIP3   OH257283   5.537   0.604   4.912 -0.2585  0.1672  0.1611
11931TIP3    H157284   5.574   0.517   4.930  1.0866  0.3758 -1.3418
11931TIP3    H257285   5.558   0.620   4.820 -2.3352  1.2285 -0.1917
11932TIP3   OH257286   4.817   3.869  11.364 -0.0701 -0.2303  0.0424
11932TIP3    H157287   4.877   3.800  11.394 -0.1986 -1.5642 -2.5087
11932TIP3    H257288   4.845   3.888  11.275 -1.7436  1.0895 -0.2512
11933TIP3   OH257289   1.018   6.799   4.900  0.2638 -0.2181  0.0084
11933TIP3    H157290   0.966   6.855   4.957  0.6480 -0.2127  0.3586
11933TIP3    H257291   0.966   6.719   4.890  0.0209 -0.0649  0.0469
11934TIP3   OH257292   6.674   0.932  15.782 -0.1139  0.1294  0.1532
11934TIP3    H157293   6.687   0.882  15.863  0.4811 -1.5876 -0.9448
11934TIP3    H257294   6.748   0.993  15.780 -0.5054  0.6686  1.2138
11935TIP3   OH257295   1.304   4.310   1.533  0.4849  0.0158  0.0249
11935TIP3    H157296   1.389   4.340   1.565  0.7117 -0.1383 -0.4321
11935TIP3    H257297   1.242   4.339   1.600  0.7464  1.1653 -0.2013
11936TIP3   OH257298   1.173   6.439   2.267  0.0232  0.3249 -0.0055
11936TIP3    H157299   1.207   6.387   2.194  0.6677  1.6012 -0.6396
11936TIP3    H257300   1.172   6.529   2.234 -0.7096  0.7812  1.1982
11937TIP3   OH257301   6.508   1.790  13.718 -0.0043  0.2985 -0.2840
11937TIP3    H157302   6.599   1.785  13.690  0.9519 -0.6177  2.6420
11937TIP3    H257303   6.490   1.704  13.757 -1.8740  0.7230 -0.1268
11938TIP3   OH257304   4.228   2.914  16.020 -0.7388 -0.1305  0.5986
11938TIP3    H157305   4.275   2.984  15.974  0.2720 -1.9145 -1.2662
11938TIP3    H257306   4.267   2.911  16.107  0.4085  0.4959  0.1235
11939TIP3   OH257307   5.225   5.620   4.494 -0.2525 -0.0227 -0.7275
11939TIP3    H157308   5.172   5.544   4.469 -0.6752  0.2547 -0.6916
11939TIP3    H257309   5.310   5.605   4.453  0.0009 -1.0246  0.1275
11940TIP3   OH257310   5.876   4.440   5.830  0.0141  0.1938  0.7356
11940TIP3    H157311   5.838   4.353   5.817 -0.4821  0.2373  1.7781
11940TIP3    H257312   5.962   4.423   5.868 -0.1167  0.1556  1.0182
11941TIP3   OH257313   3.183   1.219   4.722 -0.0242 -0.2774  0.2352
11941TIP3    H157314   3.266   1.199   4.764  0.0195 -0.2233  0.1758
11941TIP3    H257315   3.196   1.307   4.685 -0.2458 -0.0988  0.5791
11942TIP3   OH257316   3.628   3.183   0.904 -0.7025  0.0174 -0.4309
11942TIP3    H157317   3.602   3.158   0.993  1.0067  1.3845  0.5143
11942TIP3    H257318   3.720   3.161   0.899 -1.2237 -2.0621 -2.6905
11943TIP3   OH257319   0.487   5.339  13.217  0.6160 -0.2338 -0.2403
11943TIP3    H157320   0.436   5.267  13.254  1.7882 -0.8726  0.1887
11943TIP3    H257321   0.543   5.368  13.289  2.0592 -0.6820 -1.1344
11944TIP3   OH257322   4.556   6.690   6.492  1.0727  0.2963 -0.0693
11944TIP3    H157323   4.531   6.778   6.462  1.1208  0.6036  0.7819
11944TIP3    H257324   4.473   6.647   6.509  0.8898 -0.8014 -3.0821
11945TIP3   OH257325   6.623   6.355   4.642  0.7639  0.0356 -0.3123
11945TIP3    H157326   6.535   6.319   4.649  1.0553 -0.4759  0.9878
11945TIP3    H257327   6.679   6.292   4.687  1.1168  2.6361  3.3568
11946TIP3   OH257328   5.266   3.373  16.235  0.6500 -0.1221  0.1575
11946TIP3    H157329   5.303   3.311  16.172 -1.9861 -0.7719 -0.9002
11946TIP3    H257330   5.193   3.415  16.187  1.2921  2.6360  1.3779
11947TIP3   OH257331   1.884   2.522   1.768 -1.1658  0.5084 -0.1705
11947TIP3    H157332   1.937   2.572   1.706  0.3066 -1.6295 -0.7410
11947TIP3    H257333   1.805   2.499   1.720 -1.7817  2.0623  0.0447
11948TIP3   OH257334   4.987   3.142  14.475  0.2615  0.2707  0.0854
11948TIP3    H157335   5.062   3.088  14.452 -0.2931 -0.5265  0.1048
11948TIP3    H257336   5.024   3.226  14.501  1.0452  0.4314 -1.4835
11949TIP3   OH257337   1.991   5.560  12.795 -0.0167 -0.1952 -0.6994
11949TIP3    H157338   1.976   5.654  12.784  0.0379 -0.4169 -3.0821
11949TIP3    H257339   1.912   5.519  12.762 -0.1854 -1.0181  0.6507
11950TIP3   OH257340   0.139   5.482   1.304 -0.3746  0.2222  0.2350
11950TIP3    H157341   0.203   5.459   1.237 -2.3678  0.4104 -1.8937
11950TIP3    H257342   0.085   5.404   1.315 -1.1272  0.7370  0.3235
11951TIP3   OH257343   0.117   5.685  16.614 -0.2901 -0.4071 -0.3472
11951TIP3    H157344   0.200   5.641  16.596  0.3921  0.2812  0.9890
11951TIP3    H257345   0.052   5.634  16.565  0.8396 -1.2236 -1.0612
11952TIP3   OH257346   1.067   2.436   3.411 -0.7243 -0.8760 -0.1685
11952TIP3    H157347   1.096   2.352   3.376  0.0656 -0.7438  0.1425
11952TIP3    H257348   1.034   2.484   3.336  0.7857 -0.6593 -0.7320
11953TIP3   OH257349   4.577   6.530   1.126  0.1255  0.1949  0.1393
11953TIP3    H157350   4.509   6.506   1.189 -1.4222  0.7343 -1.2396
11953TIP3    H257351   4.605   6.617   1.154 -1.0783  0.7471 -0.2866
11954TIP3   OH257352   6.513   4.789   4.883  0.0750 -0.0471 -0.4909
11954TIP3    H157353   6.602   4.761   4.904  0.6257 -0.7323 -3.3862
11954TIP3    H257354   6.457   4.729   4.932  1.2313 -1.1315 -0.4359
11955TIP3   OH257355   0.276   4.857  15.092 -0.1887 -0.7491  0.8016
11955TIP3    H157356   0.276   4.893  15.181  0.2666  0.1196  0.4653
11955TIP3    H257357   0.274   4.934  15.036 -1.5606 -1.3088  0.0512
11956TIP3   OH257358   0.132   1.738   4.561 -0.4233 -0.6498 -0.0611
11956TIP3    H157359   0.062   1.716   4.499 -0.8362  0.3468  0.0302
11956TIP3    H257360   0.128   1.834   4.569  1.5137 -0.4831 -0.7056
11957TIP3   OH257361   3.819   1.618  13.036  0.0435  0.0830 -0.0868
11957TIP3    H157362   3.812   1.540  12.982 -0.3277  0.9929 -1.4010
11957TIP3    H257363   3.734   1.625  13.079 -0.0663 -0.0017 -0.2902
11958TIP3   OH257364   4.223   6.068  11.177  0.0687 -0.1246  0.4176
11958TIP3    H157365   4.217   6.040  11.086  1.3135  0.4306  0.1372
11958TIP3    H257366   4.139   6.044  11.216 -0.5873 -0.1071 -0.9477
11959TIP3   OH257367   0.379   2.400  11.218  0.2637  0.6013  0.4007
11959TIP3    H157368   0.298   2.451  11.208  0.1962  0.2891 -0.7331
11959TIP3    H257369   0.443   2.446  11.164  0.5864  0.3029  0.5257
11960TIP3   OH257370   0.783   5.343  15.924 -0.2180  0.1043 -0.1232
11960TIP3    H157371   0.811   5.419  15.873  0.7142  0.4121  0.8186
11960TIP3    H257372   0.760   5.278  15.858  0.5852  0.6264 -0.9519
11961TIP3   OH257373   2.760   3.190  14.801 -0.2118  1.0582  0.0719
11961TIP3    H157374   2.692   3.123  14.788  1.5358 -0.4968 -1.5972
11961TIP3    H257375   2.739   3.258  14.737 -1.6178  1.8769  1.3273
11962TIP3   OH257376   6.733   1.109  11.949 -0.0043  0.1156 -0.4227
11962TIP3    H157377   6.728   1.077  12.039  0.8268 -0.6746 -0.6378
11962TIP3    H257378   6.662   1.065  11.904 -0.2162  0.2562 -0.2283
11963TIP3   OH257379   1.927   6.778  11.308  0.0412 -0.4863  0.5995
11963TIP3    H157380   1.897   6.707  11.250 -1.8252 -2.5334  3.7458
11963TIP3    H257381   2.011   6.747  11.342  1.8396  1.3506 -1.8230
11964TIP3   OH257382   4.611   6.750   4.136 -0.2284  0.2113 -0.1846
11964TIP3    H157383   4.678   6.713   4.079  0.2196  3.9225 -2.3783
11964TIP3    H257384   4.659   6.783   4.212  0.1991  1.1740 -0.8584
11965TIP3   OH257385   4.260   6.078   1.777  0.0660  0.2648 -0.1195
11965TIP3    H157386   4.295   6.118   1.857 -0.9419 -0.8312  0.9153
11965TIP3    H257387   4.308   6.120   1.706  2.4411 -0.1806  1.1410
11966TIP3   OH257388   4.339   0.029  12.070 -0.1763 -0.0628 -0.2444
11966TIP3    H157389   4.322  -0.063  12.051 -1.4124 -0.0414  0.6463
11966TIP3    H257390   4.255   0.064  12.100  0.1729  1.4584 -0.9313
11967TIP3   OH257391   2.282   0.600  16.827  0.1850  0.1621  0.5812
11967TIP3    H157392   2.368   0.627  16.859  0.4808  0.4493 -0.4008
11967TIP3    H257393   2.296   0.510  16.797  0.2019  0.2669  0.2625
11968TIP3   OH257394   6.322   3.739  15.053 -0.0995 -0.5873 -0.3684
11968TIP3    H157395   6.417   3.735  15.048 -0.1293 -0.3925 -1.2281
11968TIP3    H257396   6.296   3.655  15.089  0.4184 -0.4798  0.2793
11969TIP3   OH257397   3.997   4.331   3.205  0.1847  0.0580 -0.4115
11969TIP3    H157398   3.921   4.376   3.167  0.0505 -0.5137 -0.8376
11969TIP3    H257399   3.960   4.256   3.251  0.4812 -0.1609 -0.5265
11970TIP3   OH257400   0.106   6.282   1.597 -0.0956  0.6055  0.0463
11970TIP3    H157401   0.094   6.189   1.620 -1.9693  0.6454 -0.5504
11970TIP3    H257402   0.195   6.302   1.624 -0.1612 -0.9512  1.6374
11971TIP3   OH257403   0.357   3.292   0.713 -0.1359 -0.4983  0.5482
11971TIP3    H157404   0.357   3.368   0.655 -0.5823 -0.0508  1.1107
11971TIP3    H257405   0.447   3.258   0.709 -0.5371 -1.4247 -1.5787
11972TIP3   OH257406   1.559   4.028  12.158 -0.3564 -0.3091  0.5184
11972TIP3    H157407   1.645   4.062  12.132  0.2479  0.3116  3.0718
11972TIP3    H257408   1.500   4.101  12.145  0.2709  0.6118  2.4320
11973TIP3   OH257409   2.079   5.706  10.551 -0.4902  0.0894  0.2979
11973TIP3    H157410   2.102   5.776  10.612 -2.8465 -0.1381  1.5892
11973TIP3    H257411   2.131   5.631  10.580  1.3015  0.9788 -0.4704
11974TIP3   OH257412   0.002   6.506   1.796  0.1616  0.3223 -0.3340
11974TIP3    H157413   0.029   6.423   1.836  0.5944 -0.1696 -1.5979
11974TIP3    H257414   0.080   6.561   1.801 -0.0782  0.6097  0.3611
11975TIP3   OH257415   3.130   6.437  10.871 -0.4970  0.0697 -0.5295
11975TIP3    H157416   3.127   6.508  10.806 -1.8807 -1.6309 -2.4293
11975TIP3    H257417   3.212   6.391  10.852  0.0744  0.7091  0.2782
11976TIP3   OH257418   0.385   4.220  16.725 -0.7347  0.0401  0.0518
11976TIP3    H157419   0.456   4.244  16.665 -0.8443 -0.2098 -0.1793
11976TIP3    H257420   0.331   4.159  16.675 -0.4255 -0.7452  0.6406
11977TIP3   OH257421   1.149   1.464  11.742 -0.8162  0.3201 -0.2526
11977TIP3    H157422   1.124   1.373  11.725 -0.2191 -0.2050  1.4805
11977TIP3    H257423   1.221   1.480  11.681 -0.5707 -0.5603 -0.2212
11978TIP3   OH257424   5.416   1.073  12.584 -0.3853 -0.4781  0.0685
11978TIP3    H157425   5.386   1.135  12.651  0.4158  0.0376 -0.0267
11978TIP3    H257426   5.402   1.120  12.501 -1.2960 -1.0802 -0.1238
11979TIP3   OH257427   0.138   0.762  14.967 -0.1613  0.1884  0.4181
11979TIP3    H157428   0.135   0.819  14.891 -2.4206  1.5613  1.4587
11979TIP3    H257429   0.225   0.777  15.004 -0.2065  1.9195 -0.0972
11980TIP3   OH257430   2.316   3.623   0.175  0.2173 -0.3462 -0.1133
11980TIP3    H157431   2.279   3.625   0.087  1.6044 -0.4341 -0.7134
11980TIP3    H257432   2.396   3.572   0.167 -0.0812 -1.1088  1.3892
11981TIP3   OH257433   4.165   2.654   1.688 -0.1943  0.0099 -0.0119
11981TIP3    H157434   4.219   2.630   1.763  1.6441  1.6201 -0.7114
11981TIP3    H257435   4.171   2.579   1.629  0.6464 -0.1798  0.2929
11982TIP3   OH257436   2.332   5.805   1.922 -0.7506  0.2467 -0.4366
11982TIP3    H157437   2.391   5.802   1.846  0.5814 -0.7294  0.5963
11982TIP3    H257438   2.310   5.714   1.938 -1.7490  0.5246 -0.1734
11983TIP3   OH257439   0.965   4.654  15.301  0.1348  0.0217  0.1282
11983TIP3    H157440   0.883   4.700  15.283  0.8170  2.6168  2.7786
11983TIP3    H257441   1.033   4.719  15.283  1.4454 -1.1482  0.6440
11984TIP3   OH257442   4.356   3.504   2.889  0.1372  0.0057 -0.5105
11984TIP3    H157443   4.292   3.571   2.914  0.7395  0.9395 -1.3613
11984TIP3    H257444   4.304   3.428   2.865 -0.6683  0.7230 -1.0929
11985TIP3   OH257445   2.212   0.099   4.781  0.1389  0.1802 -0.1410
11985TIP3    H157446   2.287   0.154   4.805 -1.0804  1.7119  0.3425
11985TIP3    H257447   2.180   0.136   4.699  0.7872 -1.4043 -1.1353
11986TIP3   OH257448   6.820   4.215   5.490  0.3162  0.3604 -0.0752
11986TIP3    H157449   6.765   4.137   5.493  0.4215  0.2646 -0.5084
11986TIP3    H257450   6.899   4.191   5.537 -0.5122  0.9154  1.6829
11987TIP3   OH257451   5.027   1.064  14.421 -0.1840  0.6642  0.1851
11987TIP3    H157452   5.006   1.060  14.328 -0.5944 -0.3596  0.3039
11987TIP3    H257453   5.067   1.150  14.434  2.1529 -0.0971 -1.4014
11988TIP3   OH257454   0.660   2.189  14.988  0.4803 -0.3287 -0.0471
11988TIP3    H157455   0.650   2.280  14.959  0.0809  0.1276  1.4429
11988TIP3    H257456   0.754   2.172  14.982  0.3827 -0.4215 -1.9949
11989TIP3   OH257457   5.673   3.006   5.775 -0.2153  0.1402  0.2627
11989TIP3    H157458   5.765   2.979   5.772  0.4605  2.0433  1.4925
11989TIP3    H257459   5.638   2.986   5.688  0.7341 -2.5861  0.4367
11990TIP3   OH257460   0.035   4.948   4.422  0.3871  0.1531 -0.3635
11990TIP3    H157461  -0.014   4.907   4.351  0.4532  1.2254 -1.0620
11990TIP3    H257462   0.106   4.996   4.379  0.8794  0.2184  0.4831
11991TIP3   OH257463   0.167   5.317  13.058 -0.1905  0.1276 -0.1903
11991TIP3    H157464   0.142   5.340  13.148 -1.1481 -1.3620 -0.0489
11991TIP3    H257465   0.085   5.295  13.015  0.5081 -1.7897 -0.6455
11992TIP3   OH257466   0.418   2.792  16.526  0.0507 -0.0851  0.0198
11992TIP3    H157467   0.352   2.724  16.507  0.4084 -0.1055 -1.2431
11992TIP3    H257468   0.455   2.766  16.610 -2.5227  0.7054  1.5083
11993TIP3   OH257469   4.788   3.311   2.815 -0.1932  0.2484 -0.1480
11993TIP3    H157470   4.771   3.400   2.846  2.6368  1.1707 -0.9382
11993TIP3    H257471   4.708   3.285   2.770 -1.3544  2.0922  0.7588
11994TIP3   OH257472   2.952   0.278   2.601  0.0752 -0.3744  0.2866
11994TIP3    H157473   2.955   0.197   2.550 -0.5471 -0.4556  0.3614
11994TIP3    H257474   3.028   0.328   2.572  1.4345 -1.6780  1.4215
11995TIP3   OH257475   2.225   3.335   3.656  0.0635 -0.7832 -0.3390
11995TIP3    H157476   2.131   3.321   3.652 -0.2332  0.6208  0.9959
11995TIP3    H257477   2.247   3.332   3.749  1.2756 -0.7457 -0.5995
11996TIP3   OH257478   2.152   6.006  14.518  0.4779 -0.3964  0.4434
11996TIP3    H157479   2.245   6.017  14.501  0.2820  0.5523 -0.0748
11996TIP3    H257480   2.139   6.040  14.607  0.3805  0.9113 -0.0531
11997TIP3   OH257481   5.853   3.932  12.441 -0.1918  0.3277  0.3473
11997TIP3    H157482   5.875   3.921  12.534  0.4881  0.3858  0.1936
11997TIP3    H257483   5.801   3.854  12.421  1.9016 -1.0807  0.1063
11998TIP3   OH257484   5.383   3.372   6.497 -0.0448  0.1354  0.0753
11998TIP3    H157485   5.364   3.295   6.551 -1.5434  1.0435  0.9203
11998TIP3    H257486   5.476   3.364   6.476 -0.3493 -2.4234 -0.7231
11999TIP3   OH257487   0.674   0.236  12.045 -0.1319 -0.5725 -0.3908
11999TIP3    H157488   0.728   0.313  12.062  0.2283 -0.7591 -0.6760
11999TIP3    H257489   0.719   0.190  11.975  0.3223 -1.6983  0.6169
12000TIP3   OH257490   0.172   3.576  15.176  0.2534 -0.3720  0.0018
12000TIP3    H157491   0.125   3.645  15.222 -0.4801 -1.2091  0.5404
12000TIP3    H257492   0.264   3.589  15.201  0.2522  0.9503 -0.6436
12001TIP3   OH257493   5.170   5.471   0.562  0.2591  0.3015 -0.1032
12001TIP3    H157494   5.102   5.495   0.625 -1.3174  0.6748 -1.8844
12001TIP3    H257495   5.154   5.379   0.543  0.0713  0.4544 -0.7151
12002TIP3   OH257496   0.384   6.334  16.900 -0.5461  0.0166  0.5614
12002TIP3    H157497   0.392   6.428  16.917  0.6115  0.1215 -0.4177
12002TIP3    H257498   0.289   6.318  16.899 -0.7885  1.2950  0.1312
12003TIP3   OH257499   0.352   4.266   3.276  0.2094  0.7769  0.8142
12003TIP3    H157500   0.321   4.175   3.279 -2.7710  1.6817  0.6871
12003TIP3    H257501   0.428   4.264   3.219  0.9378 -1.7982  1.7491
12004TIP3   OH257502   2.721   2.128   2.876  0.0807  0.0809  0.3569
12004TIP3    H157503   2.813   2.142   2.854  0.3094 -0.9210  0.6486
12004TIP3    H257504   2.688   2.216   2.896  0.0345  0.9747 -3.1200
12005TIP3   OH257505   1.376   2.237   1.332 -0.3960 -0.0261  0.5007
12005TIP3    H157506   1.343   2.182   1.261 -1.5751  0.8999  0.2888
12005TIP3    H257507   1.463   2.264   1.304  0.0388 -1.4339  0.4310
12006TIP3   OH257508   3.739   2.787   4.281 -0.1386  0.5702  0.5485
12006TIP3    H157509   3.806   2.723   4.301  2.1800  3.1218  1.5628
12006TIP3    H257510   3.709   2.764   4.193  2.7211 -0.2000 -0.3303
12007TIP3   OH257511   3.273   4.481  12.245  0.7351  0.4133 -0.3806
12007TIP3    H157512   3.286   4.484  12.340  0.7268 -2.7304 -0.1712
12007TIP3    H257513   3.360   4.497  12.208  0.4406  3.4129 -0.0149
12008TIP3   OH257514   5.780   6.063  13.313 -0.8071 -0.0129 -0.0508
12008TIP3    H157515   5.870   6.032  13.318 -1.1194 -0.7399  2.1080
12008TIP3    H257516   5.783   6.152  13.347 -0.7664  0.2830 -0.8320
12009TIP3   OH257517   4.591   3.467   0.417 -0.1457 -0.2318  0.2752
12009TIP3    H157518   4.625   3.555   0.401 -1.1210 -0.0245 -0.7388
12009TIP3    H257519   4.552   3.440   0.334 -0.3446 -1.4114  0.7284
12010TIP3   OH257520   2.415   3.062  14.944 -0.8558 -0.0655 -0.0521
12010TIP3    H157521   2.500   3.031  14.974 -1.5886 -1.6685  0.4762
12010TIP3    H257522   2.403   3.146  14.988 -1.1044 -1.4907  2.8298
12011TIP3   OH257523   5.460   1.312   0.070 -0.1886  0.0682 -0.5428
12011TIP3    H157524   5.535   1.333   0.126 -0.4277  2.2865 -0.9341
12011TIP3    H257525   5.442   1.220   0.086  2.3371 -0.4116 -0.1173
12012TIP3   OH257526   4.048   3.734  12.438  0.7000 -0.3274  0.0744
12012TIP3    H157527   4.052   3.698  12.349 -0.7093  0.6869 -0.4426
12012TIP3    H257528   4.052   3.657  12.495  2.6965 -0.9341 -0.7958
12013TIP3   OH257529   5.434   0.407  10.920 -0.2598  0.6306 -0.0137
12013TIP3    H157530   5.508   0.462  10.946  0.1491  0.4673 -0.8079
12013TIP3    H257531   5.442   0.398  10.826 -1.0876  0.2972 -0.0630
12014TIP3   OH257532   5.910   4.592  10.881  0.3654  0.0950 -0.3958
12014TIP3    H157533   5.825   4.604  10.839  0.7877 -1.6040 -1.8235
12014TIP3    H257534   5.972   4.635  10.823  0.9456 -2.2310 -1.6116
12015TIP3   OH257535   5.417   5.623   2.395  0.4114 -0.0745 -0.5066
12015TIP3    H157536   5.445   5.703   2.441  1.7722 -0.0809 -1.2904
12015TIP3    H257537   5.464   5.552   2.439 -0.2859 -0.3874 -0.2441
12016TIP3   OH257538   4.662   1.012   0.690  0.1550 -0.0164 -0.0024
12016TIP3    H157539   4.633   0.975   0.773  0.6896 -2.5373 -0.8368
12016TIP3    H257540   4.662   0.937   0.630  0.3406  1.5991 -2.1320
12017TIP3   OH257541   1.711   3.482   2.233  0.0082 -0.2729  0.3628
12017TIP3    H157542   1.760   3.418   2.182  0.0143 -0.0027  0.0299
12017TIP3    H257543   1.752   3.481   2.320  1.9217  1.3882 -0.4349
12018TIP3   OH257544   3.232   3.774   3.698 -0.2083 -0.1459  0.2709
12018TIP3    H157545   3.198   3.803   3.613 -1.9825  1.6120  1.4834
12018TIP3    H257546   3.321   3.810   3.701 -0.5896  0.9115 -0.3218
12019TIP3   OH257547   3.208   4.785   3.009 -0.0256  0.2202  1.2090
12019TIP3    H157548   3.121   4.805   3.043 -0.3820 -1.4056  1.3670
12019TIP3    H257549   3.192   4.722   2.939  0.8548  1.8766 -0.5830
12020TIP3   OH257550   4.711   0.648   4.792  0.3250  0.1689  0.3283
12020TIP3    H157551   4.735   0.689   4.876  0.0708  0.4664  0.2561
12020TIP3    H257552   4.749   0.561   4.797  0.2051  0.1395  0.8089
12021TIP3   OH257553   0.384   1.506  16.546 -0.0308 -0.1778  0.1642
12021TIP3    H157554   0.423   1.579  16.593 -1.0649 -0.7502  1.9856
12021TIP3    H257555   0.290   1.522  16.549 -0.2614 -1.4646  0.4342
12022TIP3   OH257556   0.873   3.872   3.665  0.2321 -0.4747  0.2391
12022TIP3    H157557   0.859   3.782   3.693  0.7049 -0.3188  1.0066
12022TIP3    H257558   0.867   3.869   3.570  0.7769 -1.4076  0.2244
12023TIP3   OH257559   0.211   2.380   2.238 -0.0051 -0.3643 -0.0508
12023TIP3    H157560   0.209   2.461   2.186  1.9228  0.7485  1.4612
12023TIP3    H257561   0.123   2.344   2.229 -1.0640  2.1220 -0.4915
12024TIP3   OH257562   5.763   2.575   1.646 -0.1820 -0.0766  0.1558
12024TIP3    H157563   5.716   2.547   1.567  0.6854  1.1308 -0.8299
12024TIP3    H257564   5.854   2.582   1.618  0.0059  1.2350  1.0244
12025TIP3   OH257565   3.498   1.039   2.152  0.9890  0.3546  0.2173
12025TIP3    H157566   3.411   1.002   2.161  1.5238 -1.5027 -1.3969
12025TIP3    H257567   3.542   1.018   2.235  0.2602  0.3281  0.6027
12026TIP3   OH257568   5.602   5.706  13.444 -0.2325 -0.3018 -0.2410
12026TIP3    H157569   5.524   5.655  13.418  0.1149 -1.2900  0.5866
12026TIP3    H257570   5.651   5.717  13.363 -1.0436  0.0019 -0.7039
12027TIP3   OH257571   6.251   3.540   3.102  0.2146 -0.0319 -0.1902
12027TIP3    H157572   6.316   3.609   3.087  0.7081 -0.5490 -0.5140
12027TIP3    H257573   6.295   3.460   3.071 -0.0228 -0.6176  0.9363
12028TIP3   OH257574   5.317   0.272  15.125 -0.0902 -0.1098  0.1284
12028TIP3    H157575   5.356   0.358  15.106  0.3107 -0.2244  0.4044
12028TIP3    H257576   5.345   0.253  15.214 -1.3730  0.1125  0.6007
12029TIP3   OH257577   2.113   4.244   3.553  0.8361  0.4208  0.2717
12029TIP3    H157578   2.131   4.260   3.646  2.6670  0.2514 -0.0183
12029TIP3    H257579   2.057   4.317   3.527  0.9879  0.9281  1.2976
12030TIP3   OH257580   1.310   2.272   3.998  1.0228  0.5570 -0.4669
12030TIP3    H157581   1.391   2.278   3.948  2.2116 -0.1566  1.2952
12030TIP3    H257582   1.338   2.258   4.088 -1.0408 -1.5347 -0.0452
12031TIP3   OH257583   3.449   1.510   4.794  0.1564  0.5646  0.4497
12031TIP3    H157584   3.397   1.584   4.825 -0.5794  0.6056 -0.8205
12031TIP3    H257585   3.435   1.509   4.699 -0.0005 -1.3199  0.4526
12032TIP3   OH257586   4.745   5.908  15.927 -0.7140 -0.0804  0.0963
12032TIP3    H157587   4.779   5.868  16.008 -1.2402  1.1841  0.9599
12032TIP3    H257588   4.657   5.873  15.919  0.6383 -3.5578 -2.2790
12033TIP3   OH257589   0.381   2.957   3.767  0.1220 -0.6722  0.0753
12033TIP3    H157590   0.470   2.964   3.800  0.7258 -0.5524 -1.4722
12033TIP3    H257591   0.349   3.047   3.765  0.9719 -0.3470 -1.8464
12034TIP3   OH257592   2.029   4.593   0.971 -0.1483 -0.0206 -0.2899
12034TIP3    H157593   2.053   4.673   1.018 -0.1093  1.2272 -2.3126
12034TIP3    H257594   2.083   4.525   1.011  0.9991  1.2651  0.4485
12035TIP3   OH257595   0.610   5.262  15.240 -0.0156 -0.0836  0.0465
12035TIP3    H157596   0.640   5.194  15.179  0.0104 -0.2365  0.2316
12035TIP3    H257597   0.660   5.247  15.320  1.0985  1.0666 -0.4027
12036TIP3   OH257598   0.962   6.146  13.213 -0.6818  0.0560  0.3563
12036TIP3    H157599   0.897   6.213  13.232 -1.5258 -0.8117  0.6180
12036TIP3    H257600   0.941   6.117  13.124 -0.0613  0.4078  0.0829
12037TIP3   OH257601   3.951   2.557   3.890  0.2208  0.0587 -0.0228
12037TIP3    H157602   3.969   2.465   3.907  1.7466 -0.0936 -2.0576
12037TIP3    H257603   4.026   2.603   3.928 -0.6520  0.5302  1.2006
12038TIP3   OH257604   0.369   3.079   5.214  0.2270  0.2335  0.4612
12038TIP3    H157605   0.288   3.068   5.164  1.4716  2.1331 -2.2189
12038TIP3    H257606   0.413   2.994   5.207 -0.7738 -0.3188  0.5928
12039TIP3   OH257607   2.527   4.342   0.110  0.3547 -0.1975  0.3766
12039TIP3    H157608   2.518   4.249   0.088  1.0454 -0.5718  1.5936
12039TIP3    H257609   2.585   4.343   0.185  1.4515  1.3297 -0.4423
12040TIP3   OH257610   3.600   4.268   1.876 -0.3823 -0.0035  0.1113
12040TIP3    H157611   3.574   4.333   1.811 -1.5645  0.1032  0.6731
12040TIP3    H257612   3.665   4.313   1.930 -1.3321  0.7960  0.6114
12041TIP3   OH257613   1.967   4.765   1.184  0.2456 -0.3872  0.6971
12041TIP3    H157614   1.885   4.726   1.155  2.6325 -3.6331 -2.6458
12041TIP3    H257615   2.009   4.697   1.237  1.4520  0.5295  0.9663
12042TIP3   OH257616   5.805   5.137   1.099 -0.5760 -0.0541  0.2584
12042TIP3    H157617   5.814   5.051   1.057 -0.2203  0.1087 -0.0129
12042TIP3    H257618   5.895   5.164   1.117 -0.7173 -0.0381  0.9707
12043TIP3   OH257619   6.158   4.801   3.690 -0.0591 -0.4331 -0.4509
12043TIP3    H157620   6.065   4.786   3.708 -0.1653 -2.9491 -2.4840
12043TIP3    H257621   6.202   4.726   3.731  1.0211  0.3570 -0.1313
12044TIP3   OH257622   1.244   2.861  15.158 -0.3411 -0.3408 -0.3012
12044TIP3    H157623   1.295   2.904  15.090  0.9479 -0.7111  0.4096
12044TIP3    H257624   1.207   2.933  15.210 -2.2351 -0.0088 -1.9541
12045TIP3   OH257625   1.510   5.661  14.728  0.2775  0.0669 -0.6669
12045TIP3    H157626   1.440   5.650  14.663  0.4334  0.8306 -0.9800
12045TIP3    H257627   1.589   5.630  14.684  0.2333 -0.2542 -0.5200
12046TIP3   OH257628   2.528   5.815   4.172  1.1270  0.3963  0.2870
12046TIP3    H157629   2.517   5.899   4.126  1.2953  0.7519  0.8838
12046TIP3    H257630   2.611   5.824   4.217  1.3940 -0.3011 -0.0610
12047TIP3   OH257631   3.792   2.674  11.630 -0.1478  0.7908 -0.2181
12047TIP3    H157632   3.748   2.619  11.695 -0.2582 -0.8329 -1.6062
12047TIP3    H257633   3.842   2.738  11.682  0.3729 -0.9113  1.4679
12048TIP3   OH257634   3.803   4.931   5.330  0.7312 -0.3433 -0.3290
12048TIP3    H157635   3.787   4.941   5.237  1.7366  2.5258 -0.2926
12048TIP3    H257636   3.897   4.947   5.340  0.7837 -1.3333  1.1184
12049TIP3   OH257637   5.761   5.509  13.749 -0.1566 -0.0269  0.4169
12049TIP3    H157638   5.735   5.467  13.831 -1.2352 -0.2416 -0.0121
12049TIP3    H257639   5.757   5.438  13.684  1.6990 -0.1085  0.3336
12050TIP3   OH257640   3.174   3.643  15.451 -0.0434 -0.4207  0.2102
12050TIP3    H157641   3.146   3.688  15.371 -1.0036  0.6860  1.1307
12050TIP3    H257642   3.268   3.660  15.457 -0.2224  0.6946  0.0549
12051TIP3   OH257643   6.215   5.618  12.556 -0.6317 -0.1824 -0.1701
12051TIP3    H157644   6.297   5.578  12.526 -1.3319 -1.1886 -0.7575
12051TIP3    H257645   6.173   5.651  12.476 -1.7874 -1.5366 -0.1486
12052TIP3   OH257646   5.768   3.365   2.210 -0.2882  0.5954  0.0030
12052TIP3    H157647   5.847   3.311   2.211 -0.8707 -0.2776  0.2719
12052TIP3    H257648   5.741   3.371   2.301  0.8414  3.0146  0.2389
12053TIP3   OH257649   4.813   1.251   1.621  0.3609 -0.2485 -0.6841
12053TIP3    H157650   4.802   1.156   1.617  1.6238 -0.4816  0.4716
12053TIP3    H257651   4.733   1.282   1.662  0.9799 -1.1344  1.3347
12054TIP3   OH257652   2.626   2.045   5.757 -0.2141 -0.1821 -0.2708
12054TIP3    H157653   2.579   2.091   5.826  0.9877  1.5323 -0.5399
12054TIP3    H257654   2.622   1.953   5.782  0.9003  0.4530  2.5536
12055TIP3   OH257655   2.117   4.584   0.470  0.3405  0.7228 -0.0701
12055TIP3    H157656   2.083   4.591   0.559  2.8122  1.4206  0.8903
12055TIP3    H257657   2.164   4.501   0.469 -2.0952 -0.7837 -1.7216
12056TIP3   OH257658   5.564   3.851  13.433 -0.0555 -0.1020  0.0338
12056TIP3    H157659   5.473   3.836  13.407  0.2636  0.4067 -1.4949
12056TIP3    H257660   5.606   3.885  13.354  1.1798  0.8618  1.0609
12057TIP3   OH257661   3.888   5.893  16.934 -0.2023  0.5779 -0.3023
12057TIP3    H157662   3.810   5.873  16.882  0.4940  1.2932 -1.6556
12057TIP3    H257663   3.957   5.909  16.870  1.1489 -0.2883  0.8710
12058TIP3   OH257664   4.815   2.227  12.244 -0.6302 -0.1271  0.0641
12058TIP3    H157665   4.836   2.259  12.332  1.2788 -0.0041 -0.4021
12058TIP3    H257666   4.847   2.296  12.185 -0.6179 -0.8325 -0.7695
12059TIP3   OH257667   3.425   0.077  16.116  0.0727  0.8584  0.6885
12059TIP3    H157668   3.386   0.006  16.166  1.4457 -0.3078  0.1596
12059TIP3    H257669   3.501   0.104  16.168 -0.6545  2.2434  1.0892
12060TIP3   OH257670   5.162   1.009  16.464  0.4061  0.4507 -0.2260
12060TIP3    H157671   5.210   0.928  16.451 -1.0292 -0.4697 -0.0158
12060TIP3    H257672   5.184   1.062  16.387  3.1212  0.8364  0.6944
12061TIP3   OH257673   4.945   6.719   1.038 -0.2111  0.2696  0.6103
12061TIP3    H157674   4.939   6.644   1.098 -0.5298 -1.2738 -1.2544
12061TIP3    H257675   4.856   6.731   1.005 -0.0197  1.0215  0.3481
12062TIP3   OH257676   6.423   2.795  14.269  0.1917 -0.0569  0.0505
12062TIP3    H157677   6.412   2.873  14.215  1.7800 -0.7860 -1.4025
12062TIP3    H257678   6.516   2.793  14.290 -0.4443  0.7147  3.7367
12063TIP3   OH257679   5.240   1.562   2.255 -0.1253  0.3588  0.9605
12063TIP3    H157680   5.324   1.555   2.208 -1.8996  1.1175 -2.6588
12063TIP3    H257681   5.224   1.656   2.262 -0.5380  0.2261  1.9838
12064TIP3   OH257682   5.211   6.388  16.103 -0.1244 -0.0740  0.2120
12064TIP3    H157683   5.138   6.443  16.073  0.8109  0.9474 -0.2438
12064TIP3    H257684   5.281   6.406  16.041  1.1640  0.4356  1.7474
12065TIP3   OH257685   6.754   5.335   3.230  0.1638 -0.2911  1.6735
12065TIP3    H157686   6.720   5.273   3.165 -1.8609  0.0363  2.3559
12065TIP3    H257687   6.847   5.315   3.235  0.4424 -0.2284 -1.4133
12066TIP3   OH257688   6.496   0.976  15.541  0.4926  0.0390 -0.2358
12066TIP3    H157689   6.502   0.902  15.480  1.8944  1.1977 -1.5857
12066TIP3    H257690   6.560   0.955  15.610  1.4006  0.3084 -0.9856
12067TIP3   OH257691   5.265   3.746   3.527  0.4479  0.0852  0.5418
12067TIP3    H157692   5.307   3.714   3.607 -0.5069  1.1408  1.5003
12067TIP3    H257693   5.326   3.810   3.491  1.8354 -1.8363 -0.7586
12068TIP3   OH257694   1.403   1.355  16.579 -0.6157  0.4642  0.5206
12068TIP3    H157695   1.344   1.394  16.515 -2.2010 -0.9887  1.0113
12068TIP3    H257696   1.481   1.331  16.529 -1.7145 -0.4211 -0.8538
12069TIP3   OH257697   1.582   4.138   1.822  0.2786  0.0474  0.3380
12069TIP3    H157698   1.556   4.102   1.907  1.5560 -0.1320  0.6708
12069TIP3    H257699   1.521   4.210   1.806 -2.7929 -2.5464 -0.6449
12070TIP3   OH257700   0.914   1.416   0.657  0.1926  0.1031  0.6788
12070TIP3    H157701   0.867   1.341   0.694  2.1452 -1.0288  0.9494
12070TIP3    H257702   0.862   1.440   0.580 -0.2337 -1.8367  0.3039
12071TIP3   OH257703   5.530   3.289  15.535  0.2365  0.3762  0.1896
12071TIP3    H157704   5.459   3.229  15.514  1.0356 -0.2248 -0.9284
12071TIP3    H257705   5.486   3.373  15.553 -0.8812 -0.5035  1.7370
12072TIP3   OH257706   4.677   4.540  11.509 -0.2461  0.1346 -0.1660
12072TIP3    H157707   4.697   4.616  11.456 -0.1733  1.3508  1.5104
12072TIP3    H257708   4.762   4.506  11.537 -0.2190  2.1378  2.6357
12073TIP3   OH257709   1.342   4.641   5.770  0.2264  0.2646  0.4318
12073TIP3    H157710   1.249   4.620   5.775 -0.3988  2.6250  0.0696
12073TIP3    H257711   1.372   4.640   5.861 -0.3513  0.2068  0.6248
12074TIP3   OH257712   2.464   1.819  12.688 -0.4874  0.1907  0.4149
12074TIP3    H157713   2.546   1.840  12.732 -0.7881  2.4165  0.0357
12074TIP3    H257714   2.401   1.880  12.724 -0.9293  1.5866 -2.3903
12075TIP3   OH257715   2.380   5.798  14.688  0.1350  0.5687  0.4917
12075TIP3    H157716   2.391   5.876  14.635  0.5486  0.4355  0.3713
12075TIP3    H257717   2.458   5.797  14.745  0.1345  0.2441  0.4905
12076TIP3   OH257718   3.207   0.317   5.962  0.1017  0.0297  0.0859
12076TIP3    H157719   3.297   0.288   5.973 -0.3517 -1.3950  0.3361
12076TIP3    H257720   3.186   0.297   5.871 -0.0849 -0.0300  0.1399
12077TIP3   OH257721   4.552   0.006  11.767  0.3502 -0.1363 -0.0140
12077TIP3    H157722   4.642  -0.020  11.747  0.2946  0.4947 -1.2487
12077TIP3    H257723   4.511  -0.073  11.802  0.6868 -1.2160 -1.8859
12078TIP3   OH257724   3.268   5.327  15.531 -0.0442  0.5257 -0.2832
12078TIP3    H157725   3.243   5.385  15.459  2.6194 -0.2033 -1.9574
12078TIP3    H257726   3.259   5.381  15.609 -0.8616  2.1042 -1.3970
12079TIP3   OH257727   0.997   2.769  15.785  0.1611  0.0235  0.1901
12079TIP3    H157728   1.087   2.801  15.772  0.5992 -1.2352 -0.0135
12079TIP3    H257729   0.950   2.845  15.819  1.0211  1.0383 -0.7705
12080TIP3   OH257730   0.722   2.219  16.657  0.3718 -0.5411 -0.2570
12080TIP3    H157731   0.777   2.232  16.580  0.3412 -2.6126 -0.6826
12080TIP3    H257732   0.664   2.295  16.657  3.7937  2.3382  0.8380
12081TIP3   OH257733   4.156   1.173  15.998 -0.2598  0.6697  0.2189
12081TIP3    H157734   4.158   1.202  16.089  1.0352 -3.7544  1.8831
12081TIP3    H257735   4.067   1.141  15.985  0.3581 -1.6186  1.1580
12082TIP3   OH257736   5.374   1.047  10.716  0.3083  0.4742 -0.0040
12082TIP3    H157737   5.386   1.142  10.716 -1.8763  0.7913 -0.4518
12082TIP3    H257738   5.452   1.013  10.671 -0.1728  2.2586 -2.3614
12083TIP3   OH257739   4.251   4.795  16.425  0.6262  0.4180 -0.3074
12083TIP3    H157740   4.336   4.808  16.467  0.9521  0.3754 -0.9280
12083TIP3    H257741   4.239   4.700  16.425  2.1848  0.0830 -3.1847
12084TIP3   OH257742   1.097   0.442  16.061  0.3930 -0.5330 -0.4266
12084TIP3    H157743   1.098   0.489  16.145  1.8504  0.3883 -0.9291
12084TIP3    H257744   1.049   0.362  16.080 -1.7717  0.8974  0.5903
12085TIP3   OH257745   5.283   2.268   5.874  0.5776  0.1504 -0.3186
12085TIP3    H157746   5.244   2.261   5.961 -1.2995  1.4047 -0.9856
12085TIP3    H257747   5.366   2.315   5.888  0.9763 -0.8763  0.9153
12086TIP3   OH257748   1.698   1.361   3.933  0.3650 -0.0169 -0.1610
12086TIP3    H157749   1.791   1.385   3.925  0.3817 -0.2919 -0.9542
12086TIP3    H257750   1.653   1.445   3.943  0.6031  0.2224 -0.9467
12087TIP3   OH257751   0.698   5.963  15.226  0.1113 -0.5131  0.1112
12087TIP3    H157752   0.704   5.911  15.306  3.8557 -0.6543 -0.0760
12087TIP3    H257753   0.699   6.054  15.257 -2.4574 -0.4620  0.2690
12088TIP3   OH257754   5.010   5.030  12.740 -0.0893  0.0485 -0.2694
12088TIP3    H157755   5.014   4.976  12.660  1.9370  1.2098 -1.0244
12088TIP3    H257756   5.034   5.118  12.710 -3.0629  1.3953  0.9798
12089TIP3   OH257757   1.604   5.849   6.438  0.1697  0.1180 -0.1021
12089TIP3    H157758   1.695   5.871   6.458  0.4059 -2.0039  1.4442
12089TIP3    H257759   1.553   5.917   6.482  0.9463 -0.4708  1.8159
12090TIP3   OH257760   4.022   2.752   5.312  0.1284  0.1596  0.6770
12090TIP3    H157761   4.091   2.777   5.372 -0.1337 -0.6403  1.3290
12090TIP3    H257762   4.022   2.657   5.313  0.6038  0.0961 -1.1656
12091TIP3   OH257763   2.278   2.537   2.808 -0.3242  0.6690 -0.0059
12091TIP3    H157764   2.248   2.510   2.722  0.1834 -0.5786  0.1843
12091TIP3    H257765   2.203   2.521   2.866 -0.1434 -0.0615  0.0446
12092TIP3   OH257766   1.102   5.264   0.936  0.4390 -0.5530  0.2378
12092TIP3    H157767   1.057   5.180   0.941  0.2625 -0.3855  2.0702
12092TIP3    H257768   1.065   5.307   0.859 -0.9658 -1.3248  0.4574
12093TIP3   OH257769   0.316   1.876  15.099  0.5052  0.0059 -0.5535
12093TIP3    H157770   0.243   1.929  15.130  0.1709 -1.1641  0.7770
12093TIP3    H257771   0.394   1.926  15.125  0.2027 -0.2827  1.0409
12094TIP3   OH257772   4.618   1.593  16.992  0.4351 -0.1536  0.0419
12094TIP3    H157773   4.700   1.595  17.042  0.7622  1.2878 -0.4983
12094TIP3    H257774   4.635   1.530  16.922  2.5392  2.6454 -2.2716
12095TIP3   OH257775   1.813   6.184   1.087  0.8367  0.4334 -0.1153
12095TIP3    H157776   1.816   6.132   1.167 -2.3563 -1.9440 -1.2676
12095TIP3    H257777   1.789   6.272   1.115  0.9315 -0.0590  1.5908
12096TIP3   OH257778   0.637   6.382  16.089 -0.6793 -0.2861 -0.3410
12096TIP3    H157779   0.581   6.308  16.111  0.3481 -0.9357  0.1899
12096TIP3    H257780   0.577   6.455  16.076 -1.6085 -0.8473  0.6582
12097TIP3   OH257781   5.880   1.636   4.842 -0.4985  0.7003  0.0522
12097TIP3    H157782   5.801   1.595   4.877  0.1010 -0.5767 -0.0552
12097TIP3    H257783   5.907   1.579   4.770  0.5961  1.0518  0.1660
12098TIP3   OH257784   4.636   0.565   1.292 -0.2173  0.0856 -0.0043
12098TIP3    H157785   4.591   0.488   1.327  0.4572 -0.4712 -0.3367
12098TIP3    H257786   4.633   0.553   1.197  1.0122 -0.1945 -0.0258
12099TIP3   OH257787   6.668   2.538   5.595 -0.3888  0.2561  0.0188
12099TIP3    H157788   6.615   2.468   5.634 -1.1038  0.2703 -0.8901
12099TIP3    H257789   6.716   2.575   5.669  0.9075 -1.9320  0.3533
12100TIP3   OH257790   0.194   1.627   5.036 -0.1687 -0.1585  0.3541
12100TIP3    H157791   0.131   1.642   4.965 -0.6635  0.4461  0.9133
12100TIP3    H257792   0.269   1.587   4.992 -0.8738 -0.7652 -0.3464
12101TIP3   OH257793   2.864   5.750   3.425  0.1128  0.3012  0.2305
12101TIP3    H157794   2.882   5.844   3.421 -0.9560  0.5085 -0.1593
12101TIP3    H257795   2.922   5.712   3.360 -0.2208  0.8341 -0.3953
12102TIP3   OH257796   5.728   4.139   1.801 -0.0848 -0.0513  0.3864
12102TIP3    H157797   5.801   4.092   1.761 -0.6089 -0.2861 -0.3205
12102TIP3    H257798   5.769   4.200   1.862  0.7014 -0.1657 -0.0154
12103TIP3   OH257799   4.098   0.709  12.326  0.1656  0.2448  0.0392
12103TIP3    H157800   4.026   0.769  12.308 -0.5924 -0.4539  0.6576
12103TIP3    H257801   4.079   0.631  12.275  0.6269  0.1517  0.0006
12104TIP3   OH257802   3.730   1.842  15.628  0.0082  0.3414  0.9446
12104TIP3    H157803   3.750   1.750  15.644  0.6049  0.5736  1.5980
12104TIP3    H257804   3.770   1.888  15.702 -0.9516  1.0515  1.0332
12105TIP3   OH257805   1.009   1.810   0.295 -0.6249 -0.6934 -0.0345
12105TIP3    H157806   1.014   1.879   0.229  1.8977 -0.5312  0.2309
12105TIP3    H257807   1.022   1.856   0.378  2.2358 -1.5210  0.0680
12106TIP3   OH257808   2.556   1.630   1.036  0.2473 -0.1715 -0.1918
12106TIP3    H157809   2.545   1.619   0.942 -1.0280 -1.0983  0.0365
12106TIP3    H257810   2.470   1.612   1.073  1.0846 -1.4965  1.2684
12107TIP3   OH257811   5.272   3.755   3.033  0.6340  0.3972 -0.2025
12107TIP3    H157812   5.304   3.684   2.977  0.6402 -1.7943  2.3536
12107TIP3    H257813   5.351   3.799   3.064  0.7091  0.5918 -0.6638
12108TIP3   OH257814   4.886   3.885  12.467 -0.0411  0.5210 -0.0724
12108TIP3    H157815   4.839   3.804  12.449 -0.6750  0.7402  0.5538
12108TIP3    H257816   4.924   3.873  12.554  0.4377  0.6400 -0.2568
12109TIP3   OH257817   0.436   6.783   6.956 -0.0448 -0.0679 -0.4102
12109TIP3    H157818   0.418   6.706   6.903 -2.6855  0.1624  0.0244
12109TIP3    H257819   0.456   6.852   6.893  0.0614 -0.5589 -0.9180
12110TIP3   OH257820   6.149   4.201   0.429 -0.1453 -0.5005  0.2133
12110TIP3    H157821   6.214   4.200   0.500 -2.3167  1.3875  2.3750
12110TIP3    H257822   6.182   4.266   0.367 -0.3256  1.1022  1.7283
12111TIP3   OH257823   4.670   2.229  15.396 -0.2083 -0.0657  0.4997
12111TIP3    H157824   4.617   2.165  15.443  0.9472 -0.8918  0.6931
12111TIP3    H257825   4.751   2.184  15.376 -0.1671  0.6792 -1.1860
12112TIP3   OH257826   2.488   6.077   3.362 -0.3725  0.5222  0.0972
12112TIP3    H157827   2.408   6.025   3.357 -0.1857  0.2615 -0.2540
12112TIP3    H257828   2.529   6.052   3.445 -1.1310  1.3637  0.7412
12113TIP3   OH257829   6.032   2.930   3.197  0.1151  0.3151 -0.5035
12113TIP3    H157830   6.068   2.858   3.145 -0.1044 -0.7289  0.7446
12113TIP3    H257831   6.102   2.953   3.258  0.0610  0.9482 -0.6715
12114TIP3   OH257832   3.412   5.146  15.376  0.3848  0.2071  0.0413
12114TIP3    H157833   3.380   5.205  15.445 -1.8956 -1.5636  0.6149
12114TIP3    H257834   3.388   5.190  15.294  0.5577  1.0190  0.4176
12115TIP3   OH257835   2.875   6.302   1.068  0.0477  0.3623 -0.4180
12115TIP3    H157836   2.946   6.365   1.068 -0.1915  0.6553  0.8400
12115TIP3    H257837   2.887   6.251   1.148 -0.6883 -0.1235 -0.5994
12116TIP3   OH257838   1.493   0.934  15.688  0.0525  0.4085  0.2202
12116TIP3    H157839   1.581   0.961  15.712  0.7984 -1.0665 -0.6738
12116TIP3    H257840   1.481   0.968  15.599 -0.0632  0.1176  0.1243
12117TIP3   OH257841   4.646   2.198   6.009 -0.1116  0.4275 -0.1893
12117TIP3    H157842   4.602   2.241   6.082 -0.4824 -1.1598  0.5644
12117TIP3    H257843   4.726   2.248   5.996 -0.4169  1.1983  0.7849
12118TIP3   OH257844   2.467   2.999   5.898 -0.0100 -0.3431  0.3383
12118TIP3    H157845   2.487   3.053   5.975 -2.1564  2.0735 -0.6796
12118TIP3    H257846   2.403   2.935   5.930 -0.3568  0.1954  0.7479
12119TIP3   OH257847   3.169   6.146   3.640 -0.1552  0.4072 -0.2507
12119TIP3    H157848   3.083   6.180   3.666  0.0610  0.2544  0.6954
12119TIP3    H257849   3.189   6.079   3.706  0.8024  0.6160 -0.3212
12120TIP3   OH257850   4.057   2.069   3.490  0.4003 -0.1268 -0.4793
12120TIP3    H157851   4.116   2.112   3.428 -0.3793 -0.7191 -1.6493
12120TIP3    H257852   4.115   2.041   3.561  1.2884  0.6819 -0.8521
12121TIP3   OH257853   0.821   5.485  12.817  0.2065 -0.0235  0.0537
12121TIP3    H157854   0.904   5.439  12.827 -0.5298 -2.0506 -2.0903
12121TIP3    H257855   0.831   5.566  12.867  3.7649  0.2417 -0.8758
12122TIP3   OH257856   3.788   6.313   2.636  0.3783  0.3074  0.1030
12122TIP3    H157857   3.720   6.372   2.670  1.4955  1.6871  0.0190
12122TIP3    H257858   3.742   6.259   2.572 -1.0477 -0.0975  1.3998
12123TIP3   OH257859   0.202   4.227  12.038 -0.5915  0.0566  0.1210
12123TIP3    H157860   0.147   4.210  11.961 -1.9147  2.4987  0.4180
12123TIP3    H257861   0.165   4.173  12.107 -0.6063 -0.6973 -0.4634
12124TIP3   OH257862   3.110   1.734  12.466  0.6416  0.7249  0.0638
12124TIP3    H157863   3.035   1.679  12.442  1.4018  1.3443 -4.9236
12124TIP3    H257864   3.072   1.822  12.476  0.3924  0.6361 -0.0734
12125TIP3   OH257865   4.090   3.533  14.856  0.3778  0.6448 -0.3408
12125TIP3    H157866   4.182   3.507  14.845  0.1273 -0.3054 -0.2781
12125TIP3    H257867   4.042   3.475  14.797 -0.2552  0.5806  0.2300
12126TIP3   OH257868   3.366   4.805  16.379  0.9032  0.2159  0.4752
12126TIP3    H157869   3.323   4.875  16.429  1.5710  0.2438  1.0281
12126TIP3    H257870   3.427   4.766  16.441  0.4197 -0.9823  0.2216
12127TIP3   OH257871   0.483   1.727  11.226  0.3554  0.3158  0.2710
12127TIP3    H157872   0.496   1.728  11.321  0.7911 -0.7423  0.2445
12127TIP3    H257873   0.553   1.670  11.194  0.0784  0.4958 -0.6629
12128TIP3   OH257874   1.476   2.135   3.128  0.7667  0.5790 -0.1166
12128TIP3    H157875   1.453   2.132   3.035  0.9499 -0.0215 -0.1491
12128TIP3    H257876   1.519   2.051   3.144 -0.9829 -0.1579  0.9548
12129TIP3   OH257877   0.453   0.051  11.879 -0.0092 -0.0659  0.5540
12129TIP3    H157878   0.451   0.147  11.876 -0.2553 -0.1076 -1.8420
12129TIP3    H257879   0.534   0.027  11.835 -0.8744 -0.9722 -0.6256
12130TIP3   OH257880   3.643   1.197  13.922  0.1606  0.4703 -0.3221
12130TIP3    H157881   3.670   1.289  13.921  1.9294 -0.0268 -0.0284
12130TIP3    H257882   3.672   1.162  13.838  0.2676 -0.0316 -0.0788
12131TIP3   OH257883   2.438   1.449  10.476  0.5367 -0.0515 -0.5229
12131TIP3    H157884   2.532   1.451  10.458  0.6037 -1.5960 -0.4201
12131TIP3    H257885   2.418   1.357  10.491 -0.6416  0.4494  1.3131
12132TIP3   OH257886   2.742   2.070   0.123 -0.2640  0.4714  0.3972
12132TIP3    H157887   2.827   2.045   0.087 -1.8348 -0.0092 -3.4940
12132TIP3    H257888   2.751   2.058   0.217  3.1471 -2.1028 -0.0764
12133TIP3   OH257889   3.976   2.841   6.060 -0.1731  0.6492  0.6836
12133TIP3    H157890   4.053   2.825   6.114  0.6868 -0.5903 -0.8099
12133TIP3    H257891   4.006   2.823   5.970 -1.6058  2.3375 -0.1868
12134TIP3   OH257892   1.321   0.049   3.045 -0.0432 -0.5561  0.5861
12134TIP3    H157893   1.266   0.110   3.096  1.9579  2.1790 -0.2732
12134TIP3    H257894   1.411   0.078   3.063  0.8587 -1.4495 -2.1001
12135TIP3   OH257895   0.131   0.069  14.041 -0.3108 -0.0908 -0.3672
12135TIP3    H157896   0.082  -0.001  14.084  0.3009 -0.9335 -1.0104
12135TIP3    H257897   0.146   0.134  14.110 -0.4932 -0.7987  0.3514
12136TIP3   OH257898   2.565   5.978  16.072  0.0090  0.0919  0.8162
12136TIP3    H157899   2.645   6.011  16.031  0.1339 -1.3401 -0.1678
12136TIP3    H257900   2.505   5.965  15.999 -0.8803  0.4706  1.4732
12137TIP3   OH257901   6.128   2.691   2.090 -0.5152  0.2172 -0.2516
12137TIP3    H157902   6.077   2.689   2.171  0.2620  0.9107  0.2642
12137TIP3    H257903   6.101   2.612   2.044 -3.2176  1.2950 -0.7318
12138TIP3   OH257904   1.459   2.370   3.487  0.8176 -0.8792 -0.0694
12138TIP3    H157905   1.365   2.368   3.466  0.6935 -0.5840  0.4237
12138TIP3    H257906   1.502   2.342   3.407  0.2426 -2.4921  0.1549
12139TIP3   OH257907   4.669   2.561  12.860  0.4803  0.3672  0.3779
12139TIP3    H157908   4.722   2.640  12.856  2.0336 -0.5891 -3.6205
12139TIP3    H257909   4.730   2.493  12.889  0.3010 -0.0349 -0.1789
12140TIP3   OH257910   1.636   6.681  16.418  0.2233  0.1397 -0.5002
12140TIP3    H157911   1.616   6.588  16.414  0.1846  0.0246  1.4751
12140TIP3    H257912   1.727   6.687  16.390  1.4808 -1.0463  2.8728
12141TIP3   OH257913   1.414   5.462   3.469  0.3719  0.4617 -0.4550
12141TIP3    H157914   1.406   5.497   3.380  1.1191  3.4566  0.5640
12141TIP3    H257915   1.395   5.536   3.526  1.4205 -0.9905  1.9128
12142TIP3   OH257916   0.775   2.257   3.763  0.3765 -0.3998  0.6120
12142TIP3    H157917   0.845   2.252   3.827 -0.7083  0.3736  1.9083
12142TIP3    H257918   0.715   2.323   3.798 -1.0093 -1.0450 -0.4528
12143TIP3   OH257919   5.399   0.074   4.354 -0.0031  0.7003 -0.1909
12143TIP3    H157920   5.411   0.022   4.274  1.1015  0.0854  0.3565
12143TIP3    H257921   5.382   0.010   4.423 -0.1041  1.1704  0.2282
12144TIP3   OH257922   3.885   1.245   4.913 -0.2782  0.1088  0.1956
12144TIP3    H157923   3.970   1.232   4.956 -0.0801 -0.2613 -0.3063
12144TIP3    H257924   3.841   1.310   4.969 -0.2406 -0.7444  1.2474
12145TIP3   OH257925   4.210   6.185   0.125 -0.1189  0.4269 -0.0418
12145TIP3    H157926   4.138   6.136   0.085  0.4281  0.4321 -1.0683
12145TIP3    H257927   4.242   6.243   0.055 -0.2679  1.7178  0.9261
12146TIP3   OH257928   3.964   2.300  14.409  0.5232  0.0519  0.7531
12146TIP3    H157929   3.976   2.362  14.481  2.0074  0.1024  0.4956
12146TIP3    H257930   4.032   2.322  14.347 -0.4353 -0.3069 -0.4680
12147TIP3   OH257931   6.490   0.984   3.276  0.6424 -0.5352  0.7197
12147TIP3    H157932   6.460   1.021   3.193 -0.7256 -1.4453  0.7686
12147TIP3    H257933   6.535   0.903   3.252 -3.0922 -2.9108  0.9505
12148TIP3   OH257934   1.804   6.396   1.310  0.4506  0.3012 -0.5471
12148TIP3    H157935   1.885   6.344   1.315 -0.3258 -1.0478 -1.3809
12148TIP3    H257936   1.805   6.449   1.390  1.9648  0.0277 -0.3466
12149TIP3   OH257937   0.758   6.463  13.577  0.3929  0.1171  0.0057
12149TIP3    H157938   0.791   6.536  13.628  1.6789 -0.8084  0.5509
12149TIP3    H257939   0.670   6.490  13.549  0.7852  1.7843  0.3102
12150TIP3   OH257940   6.417   2.603   4.620 -0.0307 -0.0818  0.2213
12150TIP3    H157941   6.507   2.632   4.634  0.2942  0.3450 -2.2557
12150TIP3    H257942   6.425   2.515   4.583 -0.6992 -0.4330  0.8725
12151TIP3   OH257943   1.104   0.899   1.072  0.4006 -0.1294 -0.0657
12151TIP3    H157944   1.014   0.933   1.077  0.3496 -0.1455 -0.7460
12151TIP3    H257945   1.101   0.816   1.118 -0.1897 -0.6187 -0.9431
12152TIP3   OH257946   1.718   0.020  11.968 -0.0264  0.8422 -0.0652
12152TIP3    H157947   1.659  -0.044  11.928  1.2849  0.1958 -1.0213
12152TIP3    H257948   1.797  -0.030  11.989  0.0018  1.5611  1.7492
12153TIP3   OH257949   1.590   5.724   2.784  0.6243  0.4736 -0.2810
12153TIP3    H157950   1.588   5.711   2.879 -1.4240 -2.4237 -0.5868
12153TIP3    H257951   1.529   5.797   2.769  1.1324  1.1065  0.5898
12154TIP3   OH257952   4.395   1.896  13.050  0.0966  0.6255 -0.0741
12154TIP3    H157953   4.446   1.940  12.982 -0.0207 -0.9623 -1.2467
12154TIP3    H257954   4.342   1.833  13.003 -0.1681 -0.3666  1.4848
12155TIP3   OH257955   2.469   1.901  15.347 -0.8952  0.4095  0.0631
12155TIP3    H157956   2.503   1.849  15.274 -1.9105  0.0258 -0.1533
12155TIP3    H257957   2.533   1.888  15.417  0.0629  0.7418 -0.7298
12156TIP3   OH257958   1.632   2.110   2.405  0.3450  0.2145 -0.3999
12156TIP3    H157959   1.572   2.156   2.464  0.9236 -0.7233  0.9690
12156TIP3    H257960   1.574   2.061   2.346 -0.3001  2.9839 -2.2305
12157TIP3   OH257961   5.326   2.069   3.989  0.1389  0.1546  0.4219
12157TIP3    H157962   5.324   1.974   3.976  0.6069  0.0689  0.9837
12157TIP3    H257963   5.399   2.084   4.048 -0.3944  0.7966  0.9309
12158TIP3   OH257964   6.402   1.281   2.020  0.2927 -0.0043 -0.0859
12158TIP3    H157965   6.425   1.220   2.091  0.1316 -0.8418 -0.7406
12158TIP3    H257966   6.392   1.365   2.064  1.8774 -0.1513  0.6427
12159TIP3   OH257967   5.788   6.362  11.616  0.2130  0.2109  0.1987
12159TIP3    H157968   5.832   6.285  11.580  0.2826 -0.7339  2.1781
12159TIP3    H257969   5.839   6.384  11.694 -0.4203  1.6410  0.2207
12160TIP3   OH257970   4.354   3.299  11.521  0.4452 -0.1385 -0.6612
12160TIP3    H157971   4.414   3.313  11.594 -0.4034  1.1122 -0.1677
12160TIP3    H257972   4.360   3.205  11.502  1.8474 -0.1969 -0.0291
12161TIP3   OH257973   0.519   3.324   5.279  0.2701 -0.1824  0.1466
12161TIP3    H157974   0.480   3.240   5.254 -0.7110  0.4318 -0.4595
12161TIP3    H257975   0.611   3.316   5.255  0.2111 -1.1208  0.1973
12162TIP3   OH257976   4.969   2.159  16.827 -0.2525 -0.4390  0.2100
12162TIP3    H157977   5.051   2.189  16.788 -0.6803  2.1771  1.1082
12162TIP3    H257978   4.920   2.121  16.754  0.9248 -0.1543 -0.7636
12163TIP3   OH257979   1.677   0.229  13.003  0.3259  0.1793 -0.2211
12163TIP3    H157980   1.749   0.165  13.008  0.3821  0.2598  0.0286
12163TIP3    H257981   1.609   0.192  13.059 -0.7207 -1.0109 -2.1501
12164TIP3   OH257982   2.822   3.739  17.242  0.7307  0.1525 -0.1410
12164TIP3    H157983   2.913   3.708  17.238  1.1280  1.0294  1.3344
12164TIP3    H257984   2.807   3.758  17.335 -0.5501  1.2378 -0.5330
12165TIP3   OH257985   1.431   5.568  15.501 -0.3262 -0.0793 -0.2439
12165TIP3    H157986   1.389   5.653  15.486 -0.6209 -0.0760  0.5240
12165TIP3    H257987   1.385   5.533  15.578 -0.1608 -0.9031 -0.5147
12166TIP3   OH257988   3.485   5.798  13.408  0.4589 -0.3373 -0.3813
12166TIP3    H157989   3.527   5.840  13.483  1.1113  0.2156 -1.0395
12166TIP3    H257990   3.441   5.869  13.362 -0.0660 -0.6963 -0.4489
12167TIP3   OH257991   4.185   0.617   3.368  0.1294  0.2683 -0.3495
12167TIP3    H157992   4.185   0.663   3.452 -0.0799  0.2639 -0.3487
12167TIP3    H257993   4.277   0.618   3.341  0.0846  0.9427 -0.4888
12168TIP3   OH257994   6.024   4.495  14.743  0.2962  0.6782 -0.2300
12168TIP3    H157995   5.955   4.482  14.679  0.6011  0.5439 -0.5357
12168TIP3    H257996   5.992   4.452  14.822  1.0033 -1.4821 -1.0320
12169TIP3   OH257997   4.868   4.788  12.988  0.5350  0.4890 -0.4147
12169TIP3    H157998   4.854   4.842  12.911  2.6880 -0.7191 -1.7618
12169TIP3    H257999   4.888   4.850  13.058  0.4745  1.5356 -1.2995
12170TIP3   OH258000   3.688   4.997  15.861  0.4360 -0.5047  0.3284
12170TIP3    H158001   3.599   5.008  15.894  0.2510 -1.3709  0.1557
12170TIP3    H258002   3.684   5.023  15.769  0.8955  1.6719  0.8813
12171TIP3   OH258003   5.284   3.098   1.141  0.0952 -0.5124 -0.2113
12171TIP3    H158004   5.350   3.033   1.116  0.1074 -0.5661 -0.0385
12171TIP3    H258005   5.268   3.082   1.234 -1.9604 -2.1362 -0.7770
12172TIP3   OH258006   1.592   1.328  16.798  0.9219 -0.7013  0.8250
12172TIP3    H158007   1.649   1.373  16.736  0.9101 -2.3727 -0.4777
12172TIP3    H258008   1.504   1.358  16.776  0.9698 -0.8673  0.4091
12173TIP3   OH258009   0.529   1.828  15.857  0.1984  0.4149  0.1500
12173TIP3    H158010   0.584   1.902  15.832  1.9834 -0.4631  1.2207
12173TIP3    H258011   0.565   1.754  15.808 -0.3508 -0.1066  0.5196
12174TIP3   OH258012   0.454   3.027  16.112 -0.3345  0.4251  0.1161
12174TIP3    H158013   0.395   3.101  16.102  0.8430  1.3796  0.1082
12174TIP3    H258014   0.511   3.030  16.035 -0.5527 -0.7681 -0.1254
12175TIP3   OH258015   4.825   1.186  12.560  0.5936  0.1525  0.0796
12175TIP3    H158016   4.859   1.265  12.602  2.1845 -0.2418 -0.4045
12175TIP3    H258017   4.887   1.117  12.585  0.0654 -0.6365 -0.7216
12176TIP3   OH258018   2.927   3.225   6.681  0.4569 -0.0348 -0.5398
12176TIP3    H158019   2.949   3.291   6.615  2.1882  1.9176  1.7933
12176TIP3    H258020   2.841   3.251   6.714  0.3970  0.0688 -0.7790
12177TIP3   OH258021   5.900   4.423  11.760 -0.3222 -0.1430  0.1998
12177TIP3    H158022   5.977   4.408  11.704 -1.5088  0.8300 -1.8428
12177TIP3    H258023   5.933   4.476  11.833  0.7182  1.7793 -1.5343
12178TIP3   OH258024   4.079   3.639   3.846 -0.0220 -0.0151  0.0730
12178TIP3    H158025   4.175   3.635   3.846  0.2958  3.6352 -1.3979
12178TIP3    H258026   4.054   3.591   3.767  0.5109 -1.3932  0.7088
12179TIP3   OH258027   0.239   2.541  11.023 -0.2234 -0.2876  0.0156
12179TIP3    H158028   0.273   2.472  10.967  1.5852 -0.3466  1.0984
12179TIP3    H258029   0.306   2.610  11.020 -0.6955  0.2510  1.0718
12180TIP3   OH258030   1.971   6.207  11.278  0.2778 -0.5151  0.0486
12180TIP3    H158031   2.028   6.131  11.269 -0.3869 -0.9244 -0.9116
12180TIP3    H258032   2.005   6.270  11.214  0.2963 -0.3565  0.2172
12181TIP3   OH258033   2.453   2.401  11.498 -0.1911  0.8425 -0.3865
12181TIP3    H158034   2.374   2.425  11.547  0.9270 -0.6763  2.3995
12181TIP3    H258035   2.518   2.466  11.524  0.5578 -0.2756  0.6773
12182TIP3   OH258036   3.879   6.495  16.728  0.1120  0.1220 -0.1374
12182TIP3    H158037   3.905   6.404  16.720 -0.1659  0.0811 -0.5405
12182TIP3    H258038   3.955   6.545  16.695  0.5834  0.0696  0.8148
12183TIP3   OH258039   2.841   4.184   4.774 -0.1880 -0.6349  0.1081
12183TIP3    H158040   2.775   4.202   4.841  1.0824  1.3250  0.8955
12183TIP3    H258041   2.923   4.174   4.822  0.6496  0.2044 -1.0779
12184TIP3   OH258042   5.377   5.732  16.075  0.0246  0.1324  0.2156
12184TIP3    H158043   5.329   5.682  16.009  0.4547  1.3956 -1.1156
12184TIP3    H258044   5.453   5.678  16.096  1.5743  0.9609 -2.6886
12185TIP3   OH258045   4.270   5.176  10.433  0.0247  0.3446  0.2351
12185TIP3    H158046   4.299   5.268  10.435  0.8858  0.1747 -1.5964
12185TIP3    H258047   4.346   5.128  10.398 -0.6565 -0.9580  0.4825
12186TIP3   OH258048   6.090   1.578   4.980 -0.0700  0.6921  0.0750
12186TIP3    H158049   6.011   1.605   4.934 -0.9771  0.5455  1.4776
12186TIP3    H258050   6.106   1.488   4.951 -1.4467  0.0981  1.0556
12187TIP3   OH258051   6.585   5.259  16.006 -0.0861 -0.1298 -0.2767
12187TIP3    H158052   6.539   5.334  16.043  1.7009  0.1725  1.4892
12187TIP3    H258053   6.528   5.228  15.936 -0.3330  3.5897 -1.9017
12188TIP3   OH258054   1.549   4.468  16.373 -0.1048  0.1642  0.7692
12188TIP3    H158055   1.487   4.404  16.407 -1.5987  1.5953  0.8778
12188TIP3    H258056   1.606   4.489  16.447  1.3086 -1.9944  0.3650
12189TIP3   OH258057   5.566   2.959  15.916 -0.4924  0.1200 -0.0594
12189TIP3    H158058   5.536   2.877  15.877 -1.3060  0.3332  0.0994
12189TIP3    H258059   5.508   2.973  15.990  0.5977  0.0743  0.8370
12190TIP3   OH258060   2.842   3.469  17.089 -0.7778  1.0009  0.4743
12190TIP3    H158061   2.825   3.423  17.172  1.6550 -1.6410 -0.3167
12190TIP3    H258062   2.913   3.531  17.110  1.1844 -0.9951  0.1245
12191TIP3   OH258063   5.379   2.794   0.456  0.4944 -0.6944 -0.0346
12191TIP3    H158064   5.426   2.819   0.536 -1.1730  0.7338  0.5745
12191TIP3    H258065   5.352   2.704   0.471  0.3418 -0.4996  0.9689
12192TIP3   OH258066   3.911   4.160  10.367  0.1714  0.3171  0.2201
12192TIP3    H158067   3.936   4.165  10.275 -2.2527  1.4492 -0.4549
12192TIP3    H258068   3.974   4.218  10.411  1.1248  0.0587 -0.7517
12193TIP3   OH258069   3.307   0.079  11.960 -0.6057 -0.0872  0.1368
12193TIP3    H158070   3.268  -0.003  11.990 -0.4545 -0.2900 -0.2201
12193TIP3    H258071   3.277   0.089  11.870  0.2103 -0.2813 -0.1692
12194TIP3   OH258072   2.031   5.934  11.714 -0.1262 -0.0974  0.1627
12194TIP3    H158073   2.003   5.878  11.642  1.2665 -0.0108 -0.4697
12194TIP3    H258074   1.952   5.947  11.766 -1.1052 -0.3537 -1.2102
12195TIP3   OH258075   5.542   4.841  12.467  0.0047 -0.0482 -0.4474
12195TIP3    H158076   5.469   4.898  12.442  0.9852  1.5245  0.0948
12195TIP3    H258077   5.501   4.763  12.504 -1.4170  1.1194  0.5417
12196TIP3   OH258078   6.611   3.267  13.342  0.0099 -0.4878  0.2171
12196TIP3    H158079   6.649   3.350  13.371 -1.8534 -0.1376  1.8091
12196TIP3    H258080   6.531   3.258  13.392 -0.4818 -2.6701 -0.8431
12197TIP3   OH258081   2.593   2.495  13.540 -0.2629  0.3501  0.2061
12197TIP3    H158082   2.639   2.541  13.610  0.0290  0.3379  0.0234
12197TIP3    H258083   2.659   2.483  13.472 -0.3312 -0.3484  0.2547
12198TIP3   OH258084   3.998   2.322  12.101 -0.5893 -0.4805  0.2065
12198TIP3    H158085   4.048   2.403  12.110 -0.2262 -0.5728 -0.7795
12198TIP3    H258086   3.916   2.340  12.145  0.6494 -0.6622  2.7523
12199TIP3   OH258087   4.068   6.035   2.108 -0.2369  0.4382 -0.1312
12199TIP3    H158088   4.042   6.036   2.016 -0.8851  1.9645  0.0444
12199TIP3    H258089   4.146   6.090   2.113  0.4612 -0.5402  0.0713
12200TIP3   OH258090   4.720   1.825  13.386 -0.0042 -0.2087 -0.2619
12200TIP3    H158091   4.704   1.731  13.382  0.0942 -0.2334 -0.0755
12200TIP3    H258092   4.806   1.837  13.347 -0.1654 -0.1547 -0.6084
12201TIP3   OH258093   6.595   2.193  16.695  0.0817  0.4007 -0.1404
12201TIP3    H158094   6.550   2.273  16.724  0.1378  0.0901  0.8390
12201TIP3    H258095   6.524   2.129  16.685 -0.0902  0.8090 -1.8671
12202TIP3   OH258096   5.897   3.926   1.541  0.2145 -0.2973  0.3501
12202TIP3    H158097   5.892   3.859   1.473  0.6562 -0.6384  0.6450
12202TIP3    H258098   5.893   4.009   1.494  0.9695 -0.5289 -0.1305
12203TIP3   OH258099   6.145   0.200   6.140 -0.8172  0.1685  0.0943
12203TIP3    H158100   6.138   0.137   6.068 -0.7245  1.4679 -1.1002
12203TIP3    H258101   6.055   0.212   6.170 -0.7787 -0.8877  0.6630
12204TIP3   OH258102   5.140   3.646   2.426 -0.7906  0.0745 -0.1506
12204TIP3    H158103   5.172   3.596   2.501  1.4755 -1.4906 -2.0154
12204TIP3    H258104   5.084   3.584   2.378 -1.0364  0.5836 -0.5292
12205TIP3   OH258105   2.693   2.521   4.262  0.3280  0.2176 -0.4003
12205TIP3    H158106   2.629   2.451   4.245  0.5502  0.0291 -0.4751
12205TIP3    H258107   2.750   2.485   4.329  1.4230 -0.3178 -1.5778
12206TIP3   OH258108   2.273   6.584  13.519  0.1333 -0.3121  0.4564
12206TIP3    H158109   2.210   6.513  13.532  0.9864 -1.0460  0.6652
12206TIP3    H258110   2.255   6.646  13.590 -3.3444  1.8056 -1.9539
12207TIP3   OH258111   2.880   2.150   4.549  0.3390  0.3415  0.3943
12207TIP3    H158112   2.838   2.096   4.481 -0.0676 -0.0088  0.9148
12207TIP3    H258113   2.972   2.154   4.523  0.3164 -0.3623  0.1931
12208TIP3   OH258114   0.176   4.828   4.845  0.2478  0.2897 -0.1195
12208TIP3    H158115   0.210   4.772   4.775 -2.1596  0.2127 -1.3291
12208TIP3    H258116   0.135   4.901   4.799  0.0661  1.1183  1.3072
12209TIP3   OH258117   1.597   1.211  11.982 -0.0824 -0.2567  0.4630
12209TIP3    H158118   1.661   1.229  12.051  0.0350 -0.5793  0.4408
12209TIP3    H258119   1.574   1.119  11.994  0.7126 -0.6057 -0.5738
12210TIP3   OH258120   0.838   1.800   0.728 -0.0222 -0.0057 -0.0205
12210TIP3    H158121   0.929   1.827   0.736  0.2665 -0.3937 -1.6175
12210TIP3    H258122   0.809   1.838   0.644 -0.3372 -2.4750 -1.1212
12211TIP3   OH258123   6.162   1.799   5.391 -0.1964 -0.2858  0.6892
12211TIP3    H158124   6.127   1.820   5.304  1.1101 -1.1753 -0.0826
12211TIP3    H258125   6.135   1.873   5.446  0.6873  1.3330 -0.9449
12212TIP3   OH258126   5.108   1.461  16.361  0.5585  0.0214  0.5639
12212TIP3    H158127   5.110   1.413  16.443  2.9526  0.7641  1.0093
12212TIP3    H258128   5.156   1.406  16.299 -1.2481 -0.5495 -0.4139
12213TIP3   OH258129   0.196   0.206   0.062 -0.3192  0.1573 -0.2518
12213TIP3    H158130   0.187   0.186   0.155  2.1820  0.7485  0.1816
12213TIP3    H258131   0.244   0.131   0.026 -3.1792 -1.1901 -1.6509
12214TIP3   OH258132   1.487   4.027   0.178 -0.5909 -0.1165 -0.3266
12214TIP3    H158133   1.438   4.029   0.260 -0.1810 -2.9725  0.0643
12214TIP3    H258134   1.576   4.002   0.203 -0.1483  0.1263 -1.5477
12215TIP3   OH258135   4.656   2.361   5.312  0.4093 -0.2960  0.2250
12215TIP3    H158136   4.745   2.376   5.281  0.1711 -0.3354 -0.4883
12215TIP3    H258137   4.604   2.349   5.232 -0.3805  0.5105  0.6028
12216TIP3   OH258138   4.767   1.134  14.291 -0.0395 -0.1168  0.1989
12216TIP3    H158139   4.688   1.088  14.260 -0.2231  1.4559 -1.9286
12216TIP3    H258140   4.837   1.102  14.234  0.3337  0.3498  0.3915
12217TIP3   OH258141   2.417   5.611   4.880 -0.0174  0.2727  0.1747
12217TIP3    H158142   2.351   5.552   4.845  0.9657 -1.0060  0.4115
12217TIP3    H258143   2.374   5.696   4.884 -1.9627 -0.7101  1.2814
12218TIP3   OH258144   0.827   6.445   0.126  0.4015 -0.2639  0.6606
12218TIP3    H158145   0.745   6.485   0.154  0.9880  0.8915  0.7857
12218TIP3    H258146   0.895   6.497   0.168  1.2367 -0.2207 -0.6731
12219TIP3   OH258147   3.611   6.350  13.649 -0.0120  0.1211  0.6849
12219TIP3    H158148   3.600   6.408  13.725 -0.0485 -0.7426  1.3540
12219TIP3    H258149   3.523   6.344  13.611  0.2548  1.6269 -0.2513
12220TIP3   OH258150   2.837   1.489  11.779  0.3505  0.2567  0.1448
12220TIP3    H158151   2.784   1.410  11.767  0.4504 -0.0799  1.7136
12220TIP3    H258152   2.788   1.542  11.843  1.4577  0.3313  0.9661
12221TIP3   OH258153   5.058   2.552   0.375  0.9210  0.1098  0.0437
12221TIP3    H158154   5.042   2.487   0.307 -0.1687 -0.2983  0.6623
12221TIP3    H258155   5.001   2.626   0.352 -1.0145 -0.8198  1.5399
12222TIP3   OH258156   0.011   1.046  13.986 -0.1259  0.1632  0.2248
12222TIP3    H158157   0.023   0.991  14.063  0.3238  0.3307  0.2825
12222TIP3    H258158   0.052   0.997  13.915 -0.7490 -0.0977  0.0443
12223TIP3   OH258159   3.224   0.108   4.770 -0.2741  0.1638  0.2376
12223TIP3    H158160   3.278   0.178   4.733 -0.9527 -0.2713 -1.6698
12223TIP3    H258161   3.169   0.079   4.698  0.1163 -2.4834  0.9126
12224TIP3   OH258162   5.307   6.781   0.409  0.3866  0.0492  0.6277
12224TIP3    H158163   5.307   6.689   0.439 -1.1580 -0.2954 -0.3083
12224TIP3    H258164   5.253   6.827   0.474  1.6528  0.4462  1.4319
12225TIP3   OH258165   5.664   4.125  11.352  0.2843 -0.6813 -0.0499
12225TIP3    H158166   5.709   4.161  11.275  1.6676 -1.1679  0.4999
12225TIP3    H258167   5.618   4.200  11.389 -1.6303 -0.7231 -2.1301
12226TIP3   OH258168   6.590   5.173  14.984  0.3626  0.4695 -0.1411
12226TIP3    H158169   6.526   5.224  15.035 -0.4993 -1.1806  0.5143
12226TIP3    H258170   6.639   5.124  15.050  1.7572  1.0572 -0.7033
12227TIP3   OH258171   3.593   1.130  12.230  0.4713  0.1106  0.0751
12227TIP3    H158172   3.685   1.137  12.206  0.5254  0.8673  0.4669
12227TIP3    H258173   3.593   1.076  12.309  0.6145  0.3293  0.2272
12228TIP3   OH258174   3.310   1.398   2.826 -0.3420 -0.2195 -0.5983
12228TIP3    H158175   3.324   1.426   2.917  1.5052  0.6706 -1.1078
12228TIP3    H258176   3.257   1.468   2.788  0.5996  0.4408 -0.7225
12229TIP3   OH258177   0.103   3.140  11.915  0.3457 -0.0399  0.3891
12229TIP3    H158178   0.016   3.180  11.921  0.9614  2.6794 -4.0117
12229TIP3    H258179   0.160   3.213  11.890  3.1810 -2.3862 -0.4819
12230TIP3   OH258180   5.213   6.307  16.650  0.3242 -0.0025  0.4662
12230TIP3    H158181   5.157   6.380  16.627  0.5809  0.2064  0.5063
12230TIP3    H258182   5.156   6.248  16.700  0.1369  0.2044  0.4966
12231TIP3   OH258183   6.112   5.805  14.913  0.4459 -0.6855  0.3051
12231TIP3    H158184   6.199   5.771  14.932  0.5242  0.0324  1.3040
12231TIP3    H258185   6.123   5.900  14.909 -0.5208 -0.4708  1.8472
12232TIP3   OH258186   5.040   0.931  13.010 -0.4438 -0.2574  0.0758
12232TIP3    H158187   5.127   0.944  12.973  0.1478 -1.6812  0.9038
12232TIP3    H258188   4.982   0.984  12.954  0.9304  0.7136 -0.4769
12233TIP3   OH258189   5.680   2.248  14.587  0.2194  0.4455  0.6823
12233TIP3    H158190   5.604   2.300  14.611 -0.7087 -0.4888 -0.1391
12233TIP3    H258191   5.736   2.309  14.538 -0.9526  0.6477 -0.4639
12234TIP3   OH258192   3.756   1.357  16.309  1.1886 -0.1380  0.0237
12234TIP3    H158193   3.667   1.365  16.342  0.7751  1.0067 -1.2781
12234TIP3    H258194   3.759   1.270  16.269  0.8013 -0.3588  0.4693
12235TIP3   OH258195   6.053   6.126   1.068 -0.0257  0.8822 -0.5420
12235TIP3    H158196   6.069   6.032   1.065  1.1516  1.0014  0.9434
12235TIP3    H258197   5.990   6.142   0.997 -1.2276 -1.1845 -0.0008
12236TIP3   OH258198   3.465   0.614   2.488  0.1060 -0.0075  0.3928
12236TIP3    H158199   3.456   0.525   2.452 -0.4302  0.4859 -0.7293
12236TIP3    H258200   3.521   0.660   2.425 -0.9921  0.9217  0.0562
12237TIP3   OH258201   2.981   0.987  17.235  0.0043  0.4636  0.4126
12237TIP3    H158202   2.951   0.939  17.158  0.1694  1.3461 -0.2129
12237TIP3    H258203   2.994   1.077  17.204 -1.8297  1.3066  1.9115
12238TIP3   OH258204   5.212   6.022   4.544  0.2943  0.1053 -0.1814
12238TIP3    H158205   5.232   6.071   4.623  1.3435 -0.3705 -0.1424
12238TIP3    H258206   5.257   5.938   4.555  0.9227  0.2411 -1.5365
12239TIP3   OH258207   4.364   1.397  11.293  0.1032 -0.1779 -0.1415
12239TIP3    H158208   4.375   1.314  11.339  1.7893 -0.7965 -1.5576
12239TIP3    H258209   4.375   1.375  11.201  1.0620  1.6858 -0.5216
12240TIP3   OH258210   4.757   2.529   1.914 -0.1209 -0.4719  0.4249
12240TIP3    H158211   4.806   2.495   1.840 -2.1386 -0.2714 -1.0897
12240TIP3    H258212   4.672   2.555   1.877 -1.1435 -0.2079  2.7734
12241TIP3   OH258213   4.254   6.529  14.915  0.4265  0.3158 -0.0390
12241TIP3    H158214   4.244   6.558  14.825  1.8073  1.2104  0.0610
12241TIP3    H258215   4.287   6.439  14.908 -1.9577 -0.6238 -0.3595
12242TIP3   OH258216   3.825   5.903   2.512 -0.5329 -0.4424 -0.5226
12242TIP3    H158217   3.889   5.970   2.489 -0.8549 -0.1937 -0.7049
12242TIP3    H258218   3.750   5.921   2.455 -1.9874  1.1431  1.7399
12243TIP3   OH258219   4.084   3.687  10.974 -0.3637 -0.4749  0.0397
12243TIP3    H158220   3.999   3.646  10.986 -0.3193 -0.5166  0.2087
12243TIP3    H258221   4.147   3.616  10.984 -0.3193 -0.4974 -0.3549
12244TIP3   OH258222   5.569   5.223   0.188 -0.2090 -0.0455  0.3200
12244TIP3    H158223   5.616   5.150   0.229 -1.4933  0.1934  2.3456
12244TIP3    H258224   5.548   5.282   0.261 -2.4126  0.5426 -0.7161
12245TIP3   OH258225   4.563   2.012   5.248  0.0081 -0.4781  0.0795
12245TIP3    H158226   4.635   1.999   5.187  0.6458  0.7634  0.5217
12245TIP3    H258227   4.604   2.052   5.325 -1.0679 -0.2761  0.5660
12246TIP3   OH258228   0.926   3.204  12.208  0.0591 -0.2037  0.2680
12246TIP3    H158229   0.992   3.138  12.186  1.2943  0.8282  0.7348
12246TIP3    H258230   0.977   3.282  12.231 -1.3551  0.8721 -0.1159
12247TIP3   OH258231   2.210   6.135   4.356  0.4835 -0.0224  0.1986
12247TIP3    H158232   2.124   6.105   4.385 -0.8889  1.7109 -1.7613
12247TIP3    H258233   2.239   6.070   4.292  0.0729  0.0027 -0.0141
12248TIP3   OH258234   5.994   5.984   2.698  0.1753  0.1038  0.0328
12248TIP3    H158235   5.963   5.973   2.608 -0.6825 -0.9711  0.4329
12248TIP3    H258236   6.010   6.077   2.707  0.5362  0.1916 -1.3179
12249TIP3   OH258237   1.489   1.842   4.364 -0.0162  0.2660 -0.2010
12249TIP3    H158238   1.411   1.897   4.368 -0.1027  0.1636 -0.4438
12249TIP3    H258239   1.470   1.779   4.294  0.4006  0.4233 -0.4624
12250TIP3   OH258240   3.455   4.976   3.483  0.0378 -0.2742 -0.2497
12250TIP3    H158241   3.519   4.912   3.453  2.8172  2.7028 -1.1947
12250TIP3    H258242   3.471   4.984   3.577 -1.7616 -2.2793  0.3275
12251TIP3   OH258243   4.540   4.520   0.921 -0.2411 -0.1201  0.1572
12251TIP3    H158244   4.546   4.498   0.828  0.5985 -0.1830  0.2177
12251TIP3    H258245   4.566   4.440   0.966  0.4439  0.2442  0.4210
12252TIP3   OH258246   1.259   6.643   3.255 -0.0149  0.1229  0.3220
12252TIP3    H158247   1.294   6.685   3.177 -0.8391  1.1307  0.4639
12252TIP3    H258248   1.204   6.711   3.296 -0.2080 -0.6304  1.3577
12253TIP3   OH258249   2.037   6.382  15.102 -0.1212 -0.2681 -0.1088
12253TIP3    H158250   1.976   6.421  15.165 -1.0320 -0.0694 -1.0935
12253TIP3    H258251   2.015   6.422  15.018 -0.3459 -2.0866 -0.9647
12254TIP3   OH258252   2.337   5.257   4.803 -0.0784  0.2156  0.0632
12254TIP3    H158253   2.301   5.254   4.891 -1.4578  1.8688 -0.3819
12254TIP3    H258254   2.265   5.227   4.747  0.8237 -0.9345 -0.5052
12255TIP3   OH258255   4.444   0.168  13.121 -0.3374 -0.2067 -0.0542
12255TIP3    H158256   4.402   0.237  13.172  1.3634  0.4990  0.4412
12255TIP3    H258257   4.437   0.198  13.030 -0.3171  0.2380  0.0876
12256TIP3   OH258258   6.105   2.858   4.510  0.4251 -0.6104 -0.2760
12256TIP3    H158259   6.027   2.829   4.462 -2.0252  1.1644  2.3240
12256TIP3    H258260   6.177   2.808   4.471 -2.2135 -3.6875 -1.6421
12257TIP3   OH258261   3.323   4.800   6.226  0.2324 -0.4128 -0.0159
12257TIP3    H158262   3.351   4.762   6.309 -0.3407 -1.6138 -0.3466
12257TIP3    H258263   3.326   4.894   6.240  2.6431 -0.5166  0.5298
12258TIP3   OH258264   6.620   3.661  12.389  0.1475 -0.6238  0.4808
12258TIP3    H158265   6.577   3.741  12.421 -0.4560 -0.6378 -0.2750
12258TIP3    H258266   6.712   3.673  12.413  0.4056  1.1218 -1.1600
12259TIP3   OH258267   6.310   5.622  14.051 -0.7140 -0.0985  0.8910
12259TIP3    H158268   6.390   5.571  14.050 -0.1730  0.6371 -1.4338
12259TIP3    H258269   6.240   5.558  14.056 -0.0173 -1.0347 -0.6139
12260TIP3   OH258270   6.812   0.526  16.085 -0.3055 -0.6084  0.1880
12260TIP3    H158271   6.743   0.489  16.139  0.0335 -0.2954  0.8499
12260TIP3    H258272   6.887   0.534  16.144  0.0398 -0.1594 -0.3002
12261TIP3   OH258273   1.694   4.546   6.561 -0.1987  0.0205 -0.2813
12261TIP3    H158274   1.714   4.470   6.506  0.8661  0.0507  0.0410
12261TIP3    H258275   1.618   4.520   6.612  1.0311 -1.4112  0.9167
12262TIP3   OH258276   0.286   4.107   2.213 -0.8464  0.2327  0.5379
12262TIP3    H158277   0.341   4.123   2.290 -0.1001 -1.1248  0.3173
12262TIP3    H258278   0.348   4.076   2.146 -1.5708  0.8315 -0.4308
12263TIP3   OH258279   1.476   5.093   4.270  0.2110  0.0375 -0.4071
12263TIP3    H158280   1.403   5.137   4.314  0.4683 -1.7712  2.0613
12263TIP3    H258281   1.554   5.137   4.304  0.4220 -1.5066  1.2657
12264TIP3   OH258282   4.262   5.463  15.772 -0.1157 -0.2368 -0.3544
12264TIP3    H158283   4.331   5.397  15.774  0.1796  0.0785  0.2293
12264TIP3    H258284   4.188   5.421  15.818  0.3060  0.0813  0.6390
12265TIP3   OH258285   5.693   1.608   6.341  0.2098  0.0629  0.0316
12265TIP3    H158286   5.783   1.604   6.308  0.4953  1.8149  0.4639
12265TIP3    H258287   5.651   1.529   6.308  1.9802 -0.9250  0.0328
12266TIP3   OH258288   5.821   5.732   1.782 -0.5019 -0.4503  0.2770
12266TIP3    H158289   5.827   5.816   1.737 -1.2208 -0.2185  0.6095
12266TIP3    H258290   5.789   5.753   1.869  0.4074 -0.9495  0.7552
12267TIP3   OH258291   4.434   6.760  16.391 -0.2716  0.2266  0.2417
12267TIP3    H158292   4.437   6.754  16.486 -1.5443 -0.3231  0.2719
12267TIP3    H258293   4.387   6.841  16.373 -1.2265 -0.3295  0.1267
12268TIP3   OH258294   5.186   5.865   1.042 -0.4652 -0.0100  0.0625
12268TIP3    H158295   5.133   5.887   0.965  1.9100  1.0841 -1.3899
12268TIP3    H258296   5.219   5.777   1.024  0.0647  0.2333 -0.1709
12269TIP3   OH258297   6.019   6.388  11.033  0.2606  0.3089 -0.1123
12269TIP3    H158298   6.111   6.395  11.008 -0.3055  0.3727 -2.4252
12269TIP3    H258299   6.012   6.303  11.075  1.2695  0.0191 -0.4942
12270TIP3   OH258300   3.063   2.430   4.147  0.2990 -0.3213  0.4533
12270TIP3    H158301   3.142   2.477   4.173 -0.3559  0.4678  1.0761
12270TIP3    H258302   3.094   2.364   4.084  1.3556  0.3923  0.1930
12271TIP3   OH258303   6.299   3.382  13.062  0.3441  0.4795 -0.1245
12271TIP3    H158304   6.236   3.454  13.067  0.8052  0.8175  1.6038
12271TIP3    H258305   6.384   3.424  13.051  0.7473  0.3325  1.9421
12272TIP3   OH258306   3.355   1.916  11.071  0.2951  0.3713 -0.2825
12272TIP3    H158307   3.313   1.874  10.996  1.2436  1.9390 -1.7708
12272TIP3    H258308   3.356   1.849  11.139 -2.5904 -0.4288 -0.8805
12273TIP3   OH258309   0.624   5.472  13.405  0.0923 -0.1134  0.4096
12273TIP3    H158310   0.599   5.463  13.497 -0.2314 -1.0740  0.2457
12273TIP3    H258311   0.581   5.552  13.375 -0.4748 -0.2343  0.8877
12274TIP3   OH258312   6.353   1.873  13.090 -0.2726 -0.1533 -0.5352
12274TIP3    H158313   6.313   1.944  13.041 -0.2691 -0.1199 -0.4894
12274TIP3    H258314   6.282   1.810  13.102  0.0780 -0.8368 -1.8469
12275TIP3   OH258315   1.222   2.478  14.970  0.3558 -0.1484  0.3716
12275TIP3    H158316   1.188   2.566  14.985 -0.8508 -0.7722  1.5183
12275TIP3    H258317   1.227   2.470  14.874  2.0928  1.7157  0.2468
12276TIP3   OH258318   1.759   4.817  17.158 -0.3829  0.0505  0.2215
12276TIP3    H158319   1.730   4.733  17.121 -1.8812  0.5127  0.3010
12276TIP3    H258320   1.841   4.836  17.111 -0.3477 -1.1444 -0.2401
12277TIP3   OH258321   3.238   1.877  13.857 -0.0951 -0.0448  0.3906
12277TIP3    H158322   3.261   1.785  13.844 -0.4925 -0.1802  0.6203
12277TIP3    H258323   3.282   1.900  13.939  0.7428  0.2298 -0.1283
12278TIP3   OH258324   0.268   1.498   5.281  0.6099  0.2568 -0.1092
12278TIP3    H158325   0.314   1.575   5.247 -0.3290  0.7562 -0.2915
12278TIP3    H258326   0.178   1.511   5.253  0.1676 -0.2285  1.0521
12279TIP3   OH258327   2.654   4.783   5.523 -0.4916 -0.0748  0.2553
12279TIP3    H158328   2.633   4.773   5.616 -0.0346  0.9400  0.4751
12279TIP3    H258329   2.749   4.790   5.521 -0.5523  0.6555 -0.2160
12280TIP3   OH258330   1.534   4.892  13.199  0.0873 -0.0780  0.0572
12280TIP3    H158331   1.526   4.800  13.174  0.5192 -0.3860  0.9818
12280TIP3    H258332   1.600   4.891  13.269  0.3305  0.9782 -0.1527
12281TIP3   OH258333   5.159   3.606  12.579 -0.2074 -0.5484  0.3372
12281TIP3    H158334   5.153   3.623  12.485 -2.1467 -0.4391  0.4396
12281TIP3    H258335   5.083   3.651  12.617 -0.3648 -1.9061  1.7552
12282TIP3   OH258336   1.880   2.056  14.433 -0.6464  0.5349  0.0157
12282TIP3    H158337   1.820   2.092  14.497 -0.2582  2.1415 -0.4923
12282TIP3    H258338   1.828   1.991  14.385 -2.1490  2.2018 -0.7083
12283TIP3   OH258339   6.189   6.488  13.810 -0.2827 -0.6284  0.2110
12283TIP3    H158340   6.222   6.556  13.752  0.8179 -1.3737 -0.0634
12283TIP3    H258341   6.260   6.424  13.816 -0.4231 -0.6704  2.2312
12284TIP3   OH258342   0.520   6.363   0.218  0.1794 -0.1180 -0.0933
12284TIP3    H158343   0.556   6.388   0.303 -1.5314 -1.7259  1.1879
12284TIP3    H258344   0.430   6.336   0.237 -0.6176  0.4504 -2.5942
12285TIP3   OH258345   2.556   6.523   1.933 -0.0568  0.3060 -0.1864
12285TIP3    H158346   2.540   6.617   1.922 -0.7971  0.0841 -1.1071
12285TIP3    H258347   2.646   6.510   1.901  0.1023  0.7177  0.0823
12286TIP3   OH258348   0.621   5.698   5.773 -0.3673 -0.6017  0.5005
12286TIP3    H158349   0.601   5.614   5.815 -0.7701 -0.4027  0.7210
12286TIP3    H258350   0.640   5.757   5.847 -1.3280 -0.1843  0.4272
12287TIP3   OH258351   0.602   3.087   2.664  0.3604  0.2407 -0.1950
12287TIP3    H158352   0.527   3.110   2.609  2.2376  1.5476 -2.3942
12287TIP3    H258353   0.579   3.002   2.701 -1.6778  0.0196 -1.7737
12288TIP3   OH258354   1.345   6.067  12.119  0.0808  0.1889  0.2010
12288TIP3    H158355   1.346   5.975  12.145  1.6181 -0.3910 -1.6579
12288TIP3    H258356   1.255   6.095  12.132  0.2863 -0.4864  4.2003
12289TIP3   OH258357   2.476   5.549  17.083  0.5304 -0.3641 -0.1092
12289TIP3    H158358   2.536   5.488  17.038 -0.0393  0.6779 -2.4482
12289TIP3    H258359   2.509   5.553  17.173  3.7146 -0.2092 -1.1473
12290TIP3   OH258360   0.631   0.263  17.001 -0.5531  0.1874  0.0959
12290TIP3    H158361   0.640   0.250  16.907 -0.1915 -1.9541  0.3589
12290TIP3    H258362   0.689   0.336  17.022 -1.1471  1.1307 -1.4085
12291TIP3   OH258363   6.736   2.682  17.007  0.4669  0.3465 -0.3027
12291TIP3    H158364   6.720   2.615  16.941 -0.1584 -1.1037  1.2557
12291TIP3    H258365   6.763   2.759  16.956 -2.2447  0.0591 -2.4409
12292TIP3   OH258366   4.590   0.901  16.924  0.4788  0.1596 -0.1965
12292TIP3    H158367   4.653   0.896  16.851  0.6941 -0.1386  0.0045
12292TIP3    H258368   4.645   0.901  17.002  0.1927 -1.5380  0.0338
12293TIP3   OH258369   6.280   5.044  13.645  0.4614  0.0122  0.5451
12293TIP3    H158370   6.264   4.951  13.666 -1.8263  0.4854  1.2394
12293TIP3    H258371   6.280   5.087  13.730  1.1428  0.7124  0.1959
12294TIP3   OH258372   3.191   5.204   0.145 -0.2021  0.3452 -0.2599
12294TIP3    H158373   3.101   5.229   0.124 -0.7399 -1.6388 -0.5041
12294TIP3    H258374   3.216   5.143   0.075  0.8449 -0.1581  0.5282
12295TIP3   OH258375   3.019   4.461   1.569 -0.2652 -0.8193  0.6406
12295TIP3    H158376   3.039   4.523   1.640 -0.7027 -0.5190  0.5062
12295TIP3    H258377   2.943   4.412   1.601 -1.2492  0.1633 -0.1178
12296TIP3   OH258378   6.047   6.294   0.778  0.0019 -0.3931  1.4557
12296TIP3    H158379   6.132   6.252   0.787 -0.9554 -3.0097 -0.4249
12296TIP3    H258380   6.035   6.304   0.683 -1.4730  0.6011  1.7099
12297TIP3   OH258381   0.500   4.917   5.651 -0.0571 -0.0078 -0.6212
12297TIP3    H158382   0.469   4.925   5.741  1.1220 -0.4888 -0.1426
12297TIP3    H258383   0.496   4.823   5.632 -2.2140  0.2657 -1.8205
12298TIP3   OH258384   3.708   6.666   3.423  0.1035 -0.0730 -0.2684
12298TIP3    H158385   3.743   6.729   3.360  0.7679  0.6131  0.7639
12298TIP3    H258386   3.675   6.595   3.369  0.6930  0.4774 -1.3960
12299TIP3   OH258387   6.610   4.449   0.295 -0.9125 -0.2871 -0.0589
12299TIP3    H158388   6.552   4.521   0.319 -2.5089 -1.0537 -1.4450
12299TIP3    H258389   6.632   4.465   0.203  0.6171 -0.3403  0.2765
12300TIP3   OH258390   1.289   3.374   1.444 -0.3565 -0.0305 -0.4607
12300TIP3    H158391   1.234   3.344   1.517 -0.7438 -2.7503 -1.7432
12300TIP3    H258392   1.376   3.385   1.483 -0.7693 -0.4328  0.6188
12301TIP3   OH258393   1.816   4.149  16.935  0.0366  0.4841 -0.1765
12301TIP3    H158394   1.736   4.175  16.980  0.9887  1.4200  1.0313
12301TIP3    H258395   1.864   4.231  16.920  0.6703 -0.0243 -1.1134
12302TIP3   OH258396   6.378   4.008  16.347 -0.4354  0.4499 -0.1509
12302TIP3    H158397   6.422   3.932  16.309 -0.7880 -0.5990  1.4270
12302TIP3    H258398   6.445   4.076  16.352  0.3721 -0.3468  0.0257
12303TIP3   OH258399   3.649   2.142   3.057 -0.3148 -0.1355 -0.4226
12303TIP3    H158400   3.674   2.056   3.024  1.0146 -0.1202  0.4636
12303TIP3    H258401   3.723   2.199   3.035 -1.2030  0.8170 -1.0630
12304TIP3   OH258402   1.667   2.480   1.594  0.3102  0.4753 -0.5227
12304TIP3    H158403   1.721   2.509   1.521 -0.2424  0.0679 -1.1090
12304TIP3    H258404   1.616   2.407   1.559 -0.1839  0.4644  0.1862
12305TIP3   OH258405   5.615   4.125  11.069 -0.0383  0.3694  0.4944
12305TIP3    H158406   5.654   4.211  11.050  1.3396  0.6859  4.0132
12305TIP3    H258407   5.661   4.065  11.011 -0.3532  1.8282 -1.3798
12306TIP3   OH258408   2.490   3.842   0.762 -0.3814 -0.5687 -0.4954
12306TIP3    H158409   2.443   3.925   0.755  0.9496  0.1671 -1.0680
12306TIP3    H258410   2.421   3.777   0.776 -1.5058  0.5425 -0.6398
12307TIP3   OH258411   4.687   3.402  14.847 -0.3005  0.7335  0.1700
12307TIP3    H158412   4.690   3.359  14.761 -0.1475  2.3695 -0.6711
12307TIP3    H258413   4.690   3.329  14.909 -0.2083 -0.4871 -1.1931
12308TIP3   OH258414   0.247   0.787  11.993 -0.0996 -0.0237  0.3305
12308TIP3    H158415   0.263   0.879  12.015 -4.1318  1.0576 -0.5004
12308TIP3    H258416   0.316   0.765  11.931 -0.3547  3.2893 -1.3571
12309TIP3   OH258417   0.567   4.320  12.639  0.4206 -0.0883  0.2911
12309TIP3    H158418   0.622   4.344  12.714  0.8033  0.4112 -0.1438
12309TIP3    H258419   0.628   4.285  12.574  0.1601 -0.0124  0.0018
12310TIP3   OH258420   3.618   6.354  12.622  0.3862 -0.8148 -0.0136
12310TIP3    H158421   3.688   6.295  12.650 -1.0949 -2.9561 -0.4946
12310TIP3    H258422   3.548   6.295  12.593 -0.8925  1.2230 -1.3459
12311TIP3   OH258423   3.199   5.100   3.674 -0.5151  0.0484 -0.0412
12311TIP3    H158424   3.123   5.127   3.726  0.9085  0.6758  1.8587
12311TIP3    H258425   3.229   5.019   3.715  0.7668  0.6725  0.3244
12312TIP3   OH258426   0.114   2.393   4.732 -0.2148 -0.2476 -0.6990
12312TIP3    H158427   0.196   2.440   4.748 -0.9895  0.6224  0.9495
12312TIP3    H258428   0.082   2.430   4.649  0.0115  0.9732 -0.2716
12313TIP3   OH258429   1.673   6.070  16.375 -0.9294  0.0738  0.3017
12313TIP3    H158430   1.741   6.114  16.324 -1.0706  0.0939  0.1297
12313TIP3    H258431   1.598   6.066  16.316 -0.8165 -0.6838  0.1891
12314TIP3   OH258432   3.687   0.193  12.091 -0.3920  0.4157  0.4001
12314TIP3    H158433   3.690   0.147  12.007  1.2920  2.9963 -1.0895
12314TIP3    H258434   3.599   0.232  12.094 -1.0792 -1.0942  0.7079
12315TIP3   OH258435   1.466   4.261   1.053  0.8586  0.2100 -0.1141
12315TIP3    H158436   1.545   4.315   1.062  1.3951 -0.7904  1.9234
12315TIP3    H258437   1.394   4.324   1.049  1.5499  1.1276  1.1391
12316TIP3   OH258438   5.037   5.973   5.401  0.2854 -0.6267 -0.0380
12316TIP3    H158439   4.980   5.931   5.337 -0.3077  0.2733 -0.1322
12316TIP3    H258440   4.976   6.016   5.461  0.8264 -1.5269  1.1977
12317TIP3   OH258441   1.758   1.556   5.551  0.3506  0.2451 -0.0918
12317TIP3    H158442   1.707   1.627   5.591 -0.0892  0.6050 -1.2731
12317TIP3    H258443   1.838   1.552   5.604 -1.4797 -1.3814  2.8235
12318TIP3   OH258444   3.140   6.422   3.027 -0.0431 -0.2256  0.0340
12318TIP3    H158445   3.153   6.414   2.932  0.0593 -0.4572  0.0675
12318TIP3    H258446   3.045   6.425   3.038 -0.0567 -0.2527 -0.0722
12319TIP3   OH258447   5.094   5.418   1.995 -0.4419  0.2188 -0.4511
12319TIP3    H158448   5.088   5.441   1.903 -0.9963 -0.9490 -0.7259
12319TIP3    H258449   5.004   5.396   2.021 -0.5127  1.6719  0.7038
12320TIP3   OH258450   4.643   1.925  16.627  0.0447 -0.1508  0.4800
12320TIP3    H158451   4.630   1.980  16.550  2.0365  1.0872  0.9419
12320TIP3    H258452   4.702   1.856  16.598 -1.0605 -1.0645  0.3442
12321TIP3   OH258453   6.377   2.198   1.908  0.1036  0.2642 -0.0296
12321TIP3    H158454   6.378   2.290   1.933  2.4717  0.8064 -1.7997
12321TIP3    H258455   6.466   2.168   1.924 -1.0103 -2.2659  2.0992
12322TIP3   OH258456   1.523   6.547   4.553 -0.0629  0.3571  0.0436
12322TIP3    H158457   1.473   6.576   4.629 -0.4625  1.0577 -0.4784
12322TIP3    H258458   1.547   6.457   4.574  0.1170  0.6369  1.1414
12323TIP3   OH258459   5.108   0.962  11.225  0.2676  0.2039 -0.1798
12323TIP3    H158460   5.115   0.956  11.320  0.6329 -0.1474 -0.2272
12323TIP3    H258461   5.136   1.052  11.205 -1.6985  0.9530  0.2049
12324TIP3   OH258462   4.078   5.799   5.622 -0.2715 -0.5601 -0.0389
12324TIP3    H158463   4.008   5.863   5.608 -1.0219 -0.9140  1.8706
12324TIP3    H258464   4.058   5.727   5.563 -1.4119 -0.5555  0.3230
12325TIP3   OH258465   2.928   1.364  13.974  0.0987 -0.3898 -0.0638
12325TIP3    H158466   2.849   1.407  14.007 -0.0750 -1.3574  0.8676
12325TIP3    H258467   2.957   1.309  14.047  2.3813  0.8833  0.0849
12326TIP3   OH258468   2.561   3.588   5.419  0.9516 -0.4427  0.5856
12326TIP3    H158469   2.653   3.572   5.399  1.2259  0.9018  0.6897
12326TIP3    H258470   2.548   3.550   5.506  1.2107 -1.2833  0.2642
12327TIP3   OH258471   1.318   0.635  14.441 -0.5201  0.5619 -0.7076
12327TIP3    H158472   1.372   0.713  14.448  1.5423 -0.7583 -0.9667
12327TIP3    H258473   1.312   0.601  14.530 -1.6103  1.1057 -0.5573
12328TIP3   OH258474   2.201   0.075  11.515 -0.5007 -0.0798 -0.5623
12328TIP3    H158475   2.118   0.065  11.560 -0.5605  0.2943 -0.5867
12328TIP3    H258476   2.267   0.052  11.580 -0.6164 -0.2198 -0.4955
12329TIP3   OH258477   2.770   3.899  11.235  0.0447  0.2941  0.5454
12329TIP3    H158478   2.853   3.916  11.189 -0.2451  2.4685  0.7165
12329TIP3    H258479   2.790   3.914  11.327 -0.8095  2.2712  0.4635
12330TIP3   OH258480   3.940   1.281  14.105  0.2869  0.0535  0.6460
12330TIP3    H158481   3.942   1.187  14.124  0.2585  0.1484  1.1312
12330TIP3    H258482   3.879   1.290  14.031  0.5144 -0.3398  0.4068
12331TIP3   OH258483   4.562   4.234   1.768  0.0442 -0.2194  0.0804
12331TIP3    H158484   4.584   4.289   1.844 -1.0548  0.0383  0.2230
12331TIP3    H258485   4.489   4.279   1.726 -1.7710 -2.1813  0.9391
12332TIP3   OH258486   4.725   5.514  11.359 -0.0121 -0.1870 -0.1774
12332TIP3    H158487   4.718   5.585  11.423  0.6877  0.9454 -1.2980
12332TIP3    H258488   4.635   5.496  11.333 -0.1391  2.4152 -2.0308
12333TIP3   OH258489   2.664   3.317   0.600  0.9144 -0.1526 -0.2818
12333TIP3    H158490   2.619   3.271   0.671  1.9814 -0.2979  0.3197
12333TIP3    H258491   2.745   3.350   0.640  2.1078 -1.2430 -1.6743
12334TIP3   OH258492   1.161   2.386  10.962  0.6258 -0.0324 -0.1107
12334TIP3    H158493   1.157   2.361  10.870  0.3755  0.5668 -0.2677
12334TIP3    H258494   1.161   2.482  10.961 -2.7516  0.0768  0.6192
12335TIP3   OH258495   1.648   0.680   5.648 -0.6186 -0.5041 -0.9670
12335TIP3    H158496   1.719   0.743   5.660 -2.2390  1.2184  0.2141
12335TIP3    H258497   1.570   0.735   5.634 -1.9734 -2.2693 -0.6887
12336TIP3   OH258498   0.329   5.061  14.908  0.1317 -0.3500  0.3554
12336TIP3    H158499   0.418   5.095  14.896 -0.3638  1.0878  0.6117
12336TIP3    H258500   0.300   5.039  14.820 -0.4559  2.3479 -0.2127
12337TIP3   OH258501   0.954   0.541  13.853  0.2438 -0.1580  0.5604
12337TIP3    H158502   0.930   0.630  13.828 -1.0486 -0.5111  0.4913
12337TIP3    H258503   1.049   0.539  13.843  0.4965  1.6571  2.0214
12338TIP3   OH258504   5.472   6.559  17.098 -0.2598  0.3983  0.6370
12338TIP3    H158505   5.496   6.553  17.006  3.7045 -1.6100  1.5949
12338TIP3    H258506   5.500   6.647  17.125  0.1105  0.3931  0.2759
12339TIP3   OH258507   5.761   3.449  16.798 -0.5104  0.2292  0.6502
12339TIP3    H158508   5.691   3.489  16.748 -2.1517 -1.3760  1.5465
12339TIP3    H258509   5.823   3.417  16.733  0.4459  3.3415 -0.1028
12340TIP3   OH258510   3.629   0.990  13.378 -0.2600  0.2576  0.1647
12340TIP3    H158511   3.546   1.001  13.332 -0.8857  2.0298  1.5730
12340TIP3    H258512   3.687   1.055  13.338 -0.0772  0.1699  0.2867
12341TIP3   OH258513   2.774   6.700   5.941  0.0178  0.3139 -0.4891
12341TIP3    H158514   2.706   6.754   5.901 -0.2011  1.7726  1.7225
12341TIP3    H258515   2.728   6.621   5.970 -0.1825  0.1132 -1.3091
12342TIP3   OH258516   2.022   3.393   2.695 -0.7011 -0.0743  0.0693
12342TIP3    H158517   2.082   3.325   2.724 -0.3778 -0.0361 -0.4815
12342TIP3    H258518   2.052   3.472   2.739 -1.1231 -0.2973  0.7669
12343TIP3   OH258519   6.659   6.347   3.399 -0.5502 -0.6949 -0.3291
12343TIP3    H158520   6.677   6.256   3.420  2.6809 -0.0489  0.2216
12343TIP3    H258521   6.597   6.376   3.466 -1.2706 -2.3454 -0.2580
12344TIP3   OH258522   0.980   5.288  13.583  0.0253  0.2775  0.4867
12344TIP3    H158523   0.935   5.317  13.662  1.4588  0.3689  1.3050
12344TIP3    H258524   0.910   5.257  13.525 -1.0732  0.4852  1.6660
12345TIP3   OH258525   4.230   4.754   0.496 -0.2745  0.2074 -0.2725
12345TIP3    H158526   4.235   4.744   0.591 -0.3990 -1.3023 -0.4030
12345TIP3    H258527   4.321   4.768   0.469 -0.0052 -1.0408 -0.0776
12346TIP3   OH258528   1.830   6.486  10.890 -0.0471 -0.0752  0.1075
12346TIP3    H158529   1.828   6.419  10.822  0.6553 -0.6184  0.5997
12346TIP3    H258530   1.886   6.448  10.958 -2.8201 -0.7162  2.2214
12347TIP3   OH258531   6.748   1.473  16.268  0.1464  0.0112 -0.2703
12347TIP3    H158532   6.721   1.460  16.178 -0.1133  0.2566 -0.2277
12347TIP3    H258533   6.791   1.391  16.292 -2.0549 -1.0656  0.2203
12348TIP3   OH258534   2.145   5.321  12.862 -0.2522  0.6587  0.3493
12348TIP3    H158535   2.095   5.398  12.837  1.4683  0.9634 -2.5820
12348TIP3    H258536   2.206   5.352  12.929 -0.7435  1.3795  0.4724
12349TIP3   OH258537   3.862   2.555  14.987  0.4216  0.0440 -0.1881
12349TIP3    H158538   3.935   2.601  14.946  0.3741 -1.0119 -1.5034
12349TIP3    H258539   3.893   2.534  15.075  1.6680 -0.3014 -0.7007
12350TIP3   OH258540   6.367   4.798  14.078 -0.3000  0.0078  0.5812
12350TIP3    H158541   6.357   4.703  14.076 -0.6615  0.0565 -0.6279
12350TIP3    H258542   6.462   4.812  14.078 -0.0815 -0.3779 -3.2186
12351TIP3   OH258543   2.995   4.948  12.451 -0.4086  0.6246 -0.5444
12351TIP3    H158544   2.979   4.907  12.366 -2.3713 -0.8099  0.4463
12351TIP3    H258545   3.040   4.881  12.502  1.0568  1.5888 -0.5007
12352TIP3   OH258546   6.488   2.078   4.007  0.2122 -0.3302  0.3634
12352TIP3    H158547   6.577   2.097   3.977 -0.0098 -0.0338 -0.1072
12352TIP3    H258548   6.449   2.026   3.937  0.4666 -1.6804  1.1798
12353TIP3   OH258549   4.491   3.842  14.265 -0.1138  0.7876 -0.4239
12353TIP3    H158550   4.571   3.868  14.311 -0.2114  1.6290 -0.6979
12353TIP3    H258551   4.501   3.749  14.248  0.6638  0.8209 -0.1645
12354TIP3   OH258552   0.792   5.677  13.602 -0.3608 -0.6616  0.0307
12354TIP3    H158553   0.815   5.740  13.670 -1.2057  0.5238 -0.7643
12354TIP3    H258554   0.701   5.653  13.621 -0.3109 -1.0143 -0.1586
12355TIP3   OH258555   2.445   1.828  14.024 -0.5296  0.0389 -0.3025
12355TIP3    H158556   2.386   1.901  14.006  0.2736  0.5037 -1.0991
12355TIP3    H258557   2.395   1.750  13.998 -1.5624  0.2319  0.9732
12356TIP3   OH258558   2.667   2.666   0.889 -0.0974  0.3913  0.4364
12356TIP3    H158559   2.609   2.691   0.961 -1.3976  0.9714 -0.7751
12356TIP3    H258560   2.608   2.637   0.819  1.1413 -0.3050 -0.3561
12357TIP3   OH258561   2.412   1.899   0.107 -0.0245 -0.8616 -0.1306
12357TIP3    H158562   2.351   1.929   0.175  1.7554 -0.1764  1.2792
12357TIP3    H258563   2.406   1.965   0.038  1.2814  0.9459  1.3753
12358TIP3   OH258564   5.307   6.561  12.411 -0.4488 -1.0742 -0.1025
12358TIP3    H158565   5.225   6.554  12.459 -0.5030 -3.5085 -0.4178
12358TIP3    H258566   5.369   6.507  12.461  1.2638  1.4254  0.6309
12359TIP3   OH258567   5.716   4.859   5.574 -0.3280 -0.2598  0.2035
12359TIP3    H158568   5.704   4.924   5.644 -0.3430  0.4846 -0.4690
12359TIP3    H258569   5.729   4.912   5.495 -0.0064 -1.0861 -0.3052
12360TIP3   OH258570   5.874   2.599  12.436 -0.4257 -0.1542  0.1699
12360TIP3    H158571   5.944   2.570  12.494 -1.1763 -1.5050  0.4419
12360TIP3    H258572   5.797   2.549  12.464 -0.9451 -0.4457 -1.6266
12361TIP3   OH258573   2.269   6.204   5.545  0.4806 -0.3710  0.1289
12361TIP3    H158574   2.223   6.131   5.504  0.3917 -0.9528  1.2261
12361TIP3    H258575   2.201   6.270   5.559  0.3044 -0.5894  0.3011
12362TIP3   OH258576   4.586   1.726  11.904  0.2442  0.0993 -0.8361
12362TIP3    H158577   4.566   1.769  11.821 -0.8962 -0.5671 -0.9172
12362TIP3    H258578   4.581   1.632  11.884 -2.9437 -0.1554  0.5696
12363TIP3   OH258579   2.331   2.739  11.595  0.4086 -0.3310 -0.4054
12363TIP3    H158580   2.356   2.831  11.611 -0.3641 -0.4079  1.5221
12363TIP3    H258581   2.350   2.725  11.502  0.6711  1.7432 -0.7210
12364TIP3   OH258582   2.435   1.680  15.922  0.2149  0.0113 -1.1458
12364TIP3    H158583   2.463   1.723  16.002  5.0095  0.2682 -2.6486
12364TIP3    H258584   2.398   1.596  15.950  0.9554  0.4567  1.3326
12365TIP3   OH258585   6.747   0.967  14.942  0.1591 -0.1890  0.2863
12365TIP3    H158586   6.767   1.051  14.901 -0.2970  0.9303  2.2502
12365TIP3    H258587   6.815   0.955  15.008 -1.3111  0.0429  1.9302
12366TIP3   OH258588   1.180   3.740  16.597 -0.6409 -0.5640 -0.3266
12366TIP3    H158589   1.157   3.762  16.687  2.0916  0.1315  0.3234
12366TIP3    H258590   1.248   3.673  16.606 -0.8813 -1.0608 -1.9188
12367TIP3   OH258591   3.965   1.750   4.844  0.4060 -0.4475 -0.4291
12367TIP3    H158592   4.006   1.720   4.925  1.2157 -2.5061 -1.5026
12367TIP3    H258593   3.900   1.682   4.825  0.4029 -0.1272 -1.6015
12368TIP3   OH258594   6.698   1.675   0.537 -0.1514  0.2095 -0.0162
12368TIP3    H158595   6.620   1.698   0.588  0.0761  1.5395 -0.2375
12368TIP3    H258596   6.665   1.662   0.448  0.0878  2.5634 -0.5041
12369TIP3   OH258597   5.863   3.045   1.037  0.0635  0.3434  0.0221
12369TIP3    H158598   5.809   3.073   1.111 -0.0648  1.0171 -0.3175
12369TIP3    H258599   5.942   3.098   1.043 -0.9817  2.2401 -1.7209
12370TIP3   OH258600   3.311   4.613  11.958  0.8242 -0.1237  0.1497
12370TIP3    H158601   3.221   4.582  11.968  1.3700 -1.2748  1.8152
12370TIP3    H258602   3.309   4.665  11.877 -1.0752 -1.0082 -0.4299
12371TIP3   OH258603   1.204   5.339  16.865 -0.1621  0.3384  0.2276
12371TIP3    H158604   1.242   5.419  16.899 -0.5866  1.9665 -2.8009
12371TIP3    H258605   1.189   5.357  16.772  1.2634 -3.8023 -1.0317
12372TIP3   OH258606   0.519   2.617  15.225 -0.2045 -0.1128 -0.1510
12372TIP3    H158607   0.549   2.627  15.315  0.0600 -1.3464 -0.0887
12372TIP3    H258608   0.507   2.523  15.213 -0.8399  0.0808 -1.2166
12373TIP3   OH258609   3.260   1.986   0.658 -0.5123  0.6316  0.3057
12373TIP3    H158610   3.299   1.980   0.746 -0.1414 -2.1649  0.0249
12373TIP3    H258611   3.183   2.041   0.670  0.9713  2.5401  1.8016
12374TIP3   OH258612   3.880   2.782  15.553  0.0998  0.0368 -0.4304
12374TIP3    H158613   3.916   2.853  15.500 -0.5851  1.4007  0.8315
12374TIP3    H258614   3.789   2.808  15.568  0.1846 -0.4583  1.1179
12375TIP3   OH258615   3.722   0.869  11.280  0.3683 -0.8820 -0.3210
12375TIP3    H158616   3.732   0.900  11.370 -0.3354 -1.3735 -0.0620
12375TIP3    H258617   3.732   0.948  11.226 -1.2921 -0.1902  0.3183
12376TIP3   OH258618   3.558   2.479   4.732  0.0868  0.3077  0.6303
12376TIP3    H158619   3.610   2.417   4.785 -0.5765  0.8385  1.9577
12376TIP3    H258620   3.624   2.531   4.685  0.7430  0.2896  1.4986
12377TIP3   OH258621   4.550   0.116  16.642  0.5401 -0.1969  0.0192
12377TIP3    H158622   4.524   0.109  16.734  1.9685  1.1817  0.5685
12377TIP3    H258623   4.584   0.205  16.634  2.1592 -0.9104 -1.3973
12378TIP3   OH258624   6.010   1.196   3.060  0.0164 -0.0587 -0.0298
12378TIP3    H158625   5.981   1.243   2.981  2.1145  0.7693 -0.3879
12378TIP3    H258626   5.929   1.173   3.105 -1.2030  0.9671 -1.5635
12379TIP3   OH258627   6.583   0.122  13.430  0.3860  0.3129 -0.1852
12379TIP3    H158628   6.525   0.160  13.496 -0.3810  2.1505 -1.7910
12379TIP3    H258629   6.666   0.168  13.442 -0.0894  1.5047 -1.1411
12380TIP3   OH258630   1.980   2.215   0.095 -0.6695 -0.5044  0.0405
12380TIP3    H158631   2.042   2.280   0.063  0.5855 -1.2880  0.7716
12380TIP3    H258632   1.951   2.169   0.016 -2.3450  1.5391 -0.6009
12381TIP3   OH258633   6.529   2.061   4.466  0.7342 -0.1456 -0.7464
12381TIP3    H158634   6.608   2.115   4.470 -0.1111  1.1236 -0.3950
12381TIP3    H258635   6.467   2.106   4.524 -0.0549 -1.4394 -0.5597
12382TIP3   OH258636   6.203   1.923   3.933  0.7337  0.0054 -0.1467
12382TIP3    H158637   6.267   1.889   3.870  0.8109  1.1799 -0.7391
12382TIP3    H258638   6.119   1.887   3.905  0.7522  0.5961 -1.0033
12383TIP3   OH258639   6.204   0.324   3.763  0.3459 -0.1770 -0.2367
12383TIP3    H158640   6.130   0.360   3.811  1.3164  0.0795  1.0999
12383TIP3    H258641   6.217   0.384   3.690  0.8231  1.2070  0.9549
12384TIP3   OH258642   1.141   3.430   2.613  0.1324  0.0601 -0.3192
12384TIP3    H158643   1.216   3.383   2.577  1.2205  0.7661  0.9228
12384TIP3    H258644   1.074   3.425   2.545  0.8095 -1.7673 -0.9185
12385TIP3   OH258645   6.091   2.636   3.559  0.1833 -0.1313  0.2275
12385TIP3    H158646   6.162   2.582   3.592 -0.3186 -0.2863  1.0968
12385TIP3    H258647   6.124   2.726   3.568  1.0455 -0.2736 -1.2916
12386TIP3   OH258648   1.833   3.859  14.586 -0.3489  0.2445  0.3202
12386TIP3    H158649   1.772   3.846  14.658 -0.8320 -1.4088 -0.3483
12386TIP3    H258650   1.902   3.914  14.623 -0.4467 -0.7687  2.1253
12387TIP3   OH258651   6.074   2.322   3.361 -0.1253  0.0444 -0.7377
12387TIP3    H158652   6.089   2.361   3.447 -2.9188 -0.0026 -0.1090
12387TIP3    H258653   6.048   2.396   3.306  0.7835 -0.0553 -1.3096
12388TIP3   OH258654   4.339   5.847  13.671  0.0227 -0.7739 -0.5016
12388TIP3    H158655   4.254   5.878  13.701 -0.4619 -1.1983 -1.3895
12388TIP3    H258656   4.391   5.927  13.659  0.0220 -0.5593  0.7811
12389TIP3   OH258657   2.870   3.102  17.071  0.3232 -0.2735 -0.2610
12389TIP3    H158658   2.812   3.160  17.022 -0.1427 -0.2097  0.3598
12389TIP3    H258659   2.912   3.049  17.004  0.6369  0.6684 -0.8306
12390TIP3   OH258660   4.506   4.246  13.683 -0.9821  0.1576 -0.2026
12390TIP3    H158661   4.492   4.237  13.777 -0.8038 -2.2372 -0.3338
12390TIP3    H258662   4.596   4.216  13.669 -0.9055  0.7648 -1.0939
12391TIP3   OH258663   6.647   3.574   4.276 -0.2608  0.0220 -0.0171
12391TIP3    H158664   6.651   3.663   4.241 -1.1669  0.3477  0.6812
12391TIP3    H258665   6.735   3.559   4.313 -0.9318  1.7833  2.5549
12392TIP3   OH258666   4.100   3.306  12.336 -0.2128  0.0531  0.2200
12392TIP3    H158667   4.186   3.298  12.296  0.6329  0.5491  1.8322
12392TIP3    H258668   4.071   3.395  12.316  0.3081  0.3778  0.8961
12393TIP3   OH258669   3.153   1.370  16.695 -0.0006  0.0546 -0.2566
12393TIP3    H158670   3.216   1.443  16.695  1.3333 -1.0573 -0.9601
12393TIP3    H258671   3.200   1.299  16.739 -0.9032 -0.6948 -0.4975
12394TIP3   OH258672   3.316   4.372   4.810  0.3705 -0.8945 -0.3765
12394TIP3    H158673   3.303   4.336   4.898  0.3884 -2.1506 -0.8637
12394TIP3    H258674   3.395   4.329   4.778  1.7877  1.3484 -0.1387
12395TIP3   OH258675   0.936   1.452   6.579 -0.4011 -0.0927  0.4849
12395TIP3    H158676   0.873   1.430   6.510  0.3844  1.5319 -0.7961
12395TIP3    H258677   1.009   1.392   6.564 -1.2412 -1.4356  1.4862
12396TIP3   OH258678   5.776   3.998   2.526 -0.1356  0.0089  0.5945
12396TIP3    H158679   5.743   3.909   2.537 -0.0118  0.0571  1.4098
12396TIP3    H258680   5.821   3.997   2.442 -2.2245 -0.0498 -0.5891
12397TIP3   OH258681   2.420   1.933   2.198 -0.3004  0.0980 -0.2362
12397TIP3    H158682   2.336   1.927   2.154  0.2317 -1.3806 -1.1133
12397TIP3    H258683   2.471   1.994   2.145 -0.3383 -0.1248 -0.5296
12398TIP3   OH258684   0.748   3.551   3.487  0.3090  0.1991 -0.0953
12398TIP3    H158685   0.693   3.478   3.517  2.1579 -1.8764 -1.4049
12398TIP3    H258686   0.739   3.617   3.556 -0.3351 -1.8315  1.9274
12399TIP3   OH258687   2.934   4.122   1.348  0.1905  0.7949  0.1816
12399TIP3    H158688   2.963   4.116   1.257 -0.5228  0.0995 -0.0095
12399TIP3    H258689   2.869   4.192   1.348 -1.1097 -0.3749 -0.2143
12400TIP3   OH258690   2.150   4.795  13.199  0.1451 -0.1767 -0.1899
12400TIP3    H158691   2.138   4.885  13.229  3.2549  0.3776 -0.3277
12400TIP3    H258692   2.185   4.748  13.275  0.3911 -0.7756 -0.6603
12401TIP3   OH258693   6.175   2.098  14.410  0.2389  0.0754 -0.5811
12401TIP3    H158694   6.100   2.061  14.457  0.4873 -0.4902 -0.6365
12401TIP3    H258695   6.229   2.023  14.386 -0.5875  0.1946 -3.0292
12402TIP3   OH258696   2.822   4.101   3.597  0.0636  0.0794  0.1583
12402TIP3    H158697   2.883   4.147   3.655 -0.6369  0.1590  0.8457
12402TIP3    H258698   2.853   4.121   3.509  1.7959 -0.9224  0.4887
12403TIP3   OH258699   6.298   5.653   4.629  0.2653  0.2018 -1.0964
12403TIP3    H158700   6.265   5.576   4.677 -0.0095  1.1465  0.2911
12403TIP3    H258701   6.381   5.674   4.673 -0.4109  1.5953 -0.4541
12404TIP3   OH258702   0.779   3.441   0.957  0.2778 -0.2231 -0.0078
12404TIP3    H158703   0.777   3.466   0.864 -0.9073 -0.9990 -0.2114
12404TIP3    H258704   0.853   3.380   0.963  0.6470  0.1811 -0.3418
12405TIP3   OH258705   0.709   2.565  12.592  0.7406  0.0165 -0.1292
12405TIP3    H158706   0.639   2.621  12.624  1.5592  1.7294 -1.1588
12405TIP3    H258707   0.779   2.573  12.657 -0.4014 -2.7540  1.6054
12406TIP3   OH258708   3.506   4.065   1.542  0.0885 -0.2852  0.0816
12406TIP3    H158709   3.554   4.073   1.459  0.6944  0.8202  0.5186
12406TIP3    H258710   3.416   4.047   1.516 -0.0233  1.4647 -0.8904
12407TIP3   OH258711   6.364   5.619  12.931  0.0983 -0.4602  0.3305
12407TIP3    H158712   6.435   5.622  12.866 -1.0627 -0.3058 -0.9976
12407TIP3    H258713   6.318   5.537  12.912 -0.1217 -0.5332  1.1425
12408TIP3   OH258714   4.122   6.257  12.879  0.2240 -0.2246  0.1037
12408TIP3    H158715   4.134   6.219  12.792 -0.3752  0.0780 -0.1126
12408TIP3    H258716   4.187   6.327  12.884  0.0055  0.0014 -0.2379
12409TIP3   OH258717   3.180   5.487  14.754  0.0310  0.7806  0.1591
12409TIP3    H158718   3.254   5.448  14.706 -0.1963  0.5283  0.0136
12409TIP3    H258719   3.219   5.519  14.835  0.3164  0.7167  0.0510
12410TIP3   OH258720   2.868   3.780   0.670 -0.6110  0.1610  0.7425
12410TIP3    H158721   2.879   3.685   0.679  0.5252  0.4186  2.5037
12410TIP3    H258722   2.937   3.806   0.608 -0.8644 -0.1387  0.3285
12411TIP3   OH258723   2.234   0.077   6.086  0.1166 -0.3138  0.2087
12411TIP3    H158724   2.294   0.142   6.122  0.1600 -0.8449  1.1171
12411TIP3    H258725   2.150   0.097   6.126 -0.0675 -0.2649 -0.1980
12412TIP3   OH258726   0.364   3.921  15.801  0.4895 -0.4235 -0.0021
12412TIP3    H158727   0.322   3.997  15.763  0.2188  0.0809  1.2605
12412TIP3    H258728   0.297   3.853  15.801  0.3526 -0.2883 -0.0273
12413TIP3   OH258729   1.291   2.999   3.388  0.3239 -0.0259 -0.2370
12413TIP3    H158730   1.359   3.034   3.446 -0.8571  0.4822  0.8776
12413TIP3    H258731   1.340   2.956   3.318  1.7942 -0.0512  0.7579
12414TIP3   OH258732   3.725   5.329  14.770  0.2881  0.1013  0.2602
12414TIP3    H158733   3.770   5.335  14.686  0.4572  0.1468  0.3537
12414TIP3    H258734   3.698   5.418  14.789  0.0387  0.0528  0.1400
12415TIP3   OH258735   2.447   2.098  10.973 -0.1186 -0.7166 -0.0238
12415TIP3    H158736   2.458   2.118  10.880  0.1038  1.6452  0.4474
12415TIP3    H258737   2.422   2.005  10.975  0.6710 -1.0461 -2.3659
12416TIP3   OH258738   5.844   5.436   0.789  0.3565 -0.3351  0.0619
12416TIP3    H158739   5.802   5.520   0.808  1.1619 -0.0164  0.4751
12416TIP3    H258740   5.820   5.418   0.698 -0.7593 -0.2269  0.3139
12417TIP3   OH258741   1.821   1.064  16.831  0.4032 -0.1438 -0.6914
12417TIP3    H158742   1.893   1.124  16.850 -0.1545  0.1709  0.5072
12417TIP3    H258743   1.747   1.120  16.810 -0.3757 -0.3345  1.3400
12418TIP3   OH258744   1.553   5.290  12.738 -0.2292  0.9940  0.1878
12418TIP3    H158745   1.498   5.280  12.816 -0.0108  1.2415  0.3766
12418TIP3    H258746   1.493   5.280  12.664 -0.5476  1.3685  0.3944
12419TIP3   OH258747   1.674   3.686  16.981 -0.2074  0.2222  0.1707
12419TIP3    H158748   1.743   3.743  17.015  1.1019 -1.0284 -0.3071
12419TIP3    H258749   1.666   3.616  17.046 -0.0929 -0.3463 -0.4245
12420TIP3   OH258750   2.546   4.015  15.233 -0.2069 -0.7469 -0.4537
12420TIP3    H158751   2.561   3.983  15.322 -0.6258  0.2592 -0.0097
12420TIP3    H258752   2.553   4.110  15.241 -2.2180 -0.5128 -1.1176
12421TIP3   OH258753   3.338   3.648  16.641 -0.2351 -0.1390 -0.3643
12421TIP3    H158754   3.357   3.648  16.548 -0.6366  0.5096 -0.4526
12421TIP3    H258755   3.365   3.735  16.672  0.6014 -0.6113  0.2776
12422TIP3   OH258756   3.164   0.534  11.261  0.3460  0.6349  0.1558
12422TIP3    H158757   3.092   0.510  11.203  1.4875 -1.4118 -0.5125
12422TIP3    H258758   3.135   0.510  11.348  0.5603 -1.1741 -0.2314
12423TIP3   OH258759   2.372   5.713  13.742  0.2895 -0.6876  0.0835
12423TIP3    H158760   2.390   5.789  13.688 -0.8718 -0.7615 -0.4463
12423TIP3    H258761   2.424   5.643  13.703 -2.2591 -1.3402 -2.5092
12424TIP3   OH258762   0.958   3.399  14.156 -1.0400  0.0179  0.3135
12424TIP3    H158763   0.968   3.337  14.083  1.9245  1.5019 -0.7111
12424TIP3    H258764   1.019   3.470  14.135  0.3976  0.2958  4.4889
12425TIP3   OH258765   3.521   0.645   5.676 -0.0356 -0.0040 -0.7416
12425TIP3    H158766   3.447   0.687   5.721  0.9311  0.1624  0.7391
12425TIP3    H258767   3.598   0.692   5.707  1.0800 -2.6709  0.8369
12426TIP3   OH258768   2.832   2.138   6.668 -0.6727 -0.1629 -0.2725
12426TIP3    H158769   2.846   2.182   6.584  0.1445 -1.8658 -1.0722
12426TIP3    H258770   2.800   2.208   6.726  2.9217  2.1663 -0.7337
12427TIP3   OH258771   2.439   2.594   4.425 -0.4429 -0.8935 -0.1163
12427TIP3    H158772   2.434   2.528   4.494 -2.2447 -0.9824 -0.2623
12427TIP3    H258773   2.450   2.543   4.345 -0.0792 -0.9095 -0.0539
12428TIP3   OH258774   3.666   6.445   3.291  0.0310  0.1847  0.0115
12428TIP3    H158775   3.715   6.363   3.280  0.0972  0.0970  0.8862
12428TIP3    H258776   3.574   6.417   3.295  0.0040  0.2210 -0.3743
12429TIP3   OH258777   1.899   1.901   4.730  0.3480  0.0797 -0.2533
12429TIP3    H158778   1.838   1.923   4.659 -1.6737 -1.2862  0.9657
12429TIP3    H258779   1.926   1.811   4.711  1.3641  0.3737 -0.2997
12430TIP3   OH258780   2.042   0.941  14.513 -0.0040  0.4274 -0.4422
12430TIP3    H158781   2.032   0.862  14.460 -0.2019  0.3561 -0.2953
12430TIP3    H258782   2.106   0.918  14.580  0.2871  0.5337 -0.6792
12431TIP3   OH258783   5.493   0.395  16.514  0.4728 -0.0289  0.0857
12431TIP3    H158784   5.453   0.417  16.598  2.0457 -0.6787  1.0363
12431TIP3    H258785   5.455   0.309  16.491  1.0105 -0.4634  0.7912
12432TIP3   OH258786   2.703   1.029  10.671  0.6148  0.0128  0.2146
12432TIP3    H158787   2.793   1.021  10.702  1.0850 -0.2492 -1.1534
12432TIP3    H258788   2.670   0.939  10.669  0.9907 -0.1218 -1.1172
12433TIP3   OH258789   1.337   3.534   5.715  0.4482 -0.1104  0.7320
12433TIP3    H158790   1.321   3.591   5.790  3.3499  0.2415  1.2030
12433TIP3    H258791   1.373   3.591   5.648 -1.8971 -0.4654 -0.9439
12434TIP3   OH258792   1.795   4.496  11.957 -0.2748 -0.2810 -0.1587
12434TIP3    H158793   1.857   4.439  12.002  2.3612  1.2238 -1.6378
12434TIP3    H258794   1.834   4.511  11.871 -2.4212  1.2571 -0.9670
12435TIP3   OH258795   5.021   4.202   3.049  0.3271  0.0047 -0.4440
12435TIP3    H158796   5.062   4.251   3.121 -1.0419  0.0740  0.3367
12435TIP3    H258797   5.062   4.116   3.053  1.0206  0.3380 -0.2496
12436TIP3   OH258798   4.688   0.598  11.963  0.0673  0.0276 -0.8205
12436TIP3    H158799   4.777   0.586  11.995  0.3003  0.3450 -1.3382
12436TIP3    H258800   4.696   0.663  11.894 -0.6044  0.2468 -0.7012
12437TIP3   OH258801   0.255   6.589   3.651  0.2002  0.4280 -0.1187
12437TIP3    H158802   0.230   6.664   3.705 -0.2266  1.6931 -1.9760
12437TIP3    H258803   0.189   6.586   3.582 -0.4280 -2.3616  0.4774
12438TIP3   OH258804   5.982   4.938  17.022  0.2208 -0.2101  0.1302
12438TIP3    H158805   5.895   4.949  16.984 -0.2975 -0.0868  1.3148
12438TIP3    H258806   5.974   4.972  17.111 -0.0123 -5.0516  2.2218
12439TIP3   OH258807   3.797   6.179   1.651  0.6343 -0.3775 -0.2066
12439TIP3    H158808   3.860   6.107   1.653  1.1453  0.0609 -0.2846
12439TIP3    H258809   3.718   6.144   1.692  2.1690  0.2266  3.6852
12440TIP3   OH258810   2.546   6.360  16.146 -0.7978  0.4117  0.3728
12440TIP3    H158811   2.627   6.335  16.191  1.2067 -0.1800 -3.1551
12440TIP3    H258812   2.481   6.299  16.180  0.8040 -0.7003  1.6596
12441TIP3   OH258813   1.219   6.591   1.594 -0.0713  0.0225  0.3444
12441TIP3    H158814   1.266   6.535   1.656  1.2300  0.8090  0.0953
12441TIP3    H258815   1.261   6.574   1.510 -0.8873  0.0233 -0.0744
12442TIP3   OH258816   4.096   5.655  11.155  0.3598  0.1303  0.5326
12442TIP3    H158817   4.117   5.562  11.157 -1.7592 -0.4855 -1.4981
12442TIP3    H258818   4.016   5.663  11.208 -1.8784 -0.0703 -2.5380
12443TIP3   OH258819   2.773   2.491  11.527  0.6347  0.0970  0.1182
12443TIP3    H158820   2.812   2.501  11.613  1.3724 -0.2389 -0.1700
12443TIP3    H258821   2.780   2.578  11.487  0.2746  0.2574  0.3954
12444TIP3   OH258822   4.603   3.500  17.231  0.3042 -0.1592  0.3562
12444TIP3    H158823   4.544   3.459  17.294 -1.0998 -0.3034 -0.9989
12444TIP3    H258824   4.667   3.433  17.211 -0.4888 -0.8491  0.0621
12445TIP3   OH258825   3.321   2.633  14.473  0.3082 -0.2020 -0.2162
12445TIP3    H158826   3.260   2.603  14.541  0.9115 -0.7748  0.0856
12445TIP3    H258827   3.407   2.605  14.505  0.4207 -2.4399 -2.2113
12446TIP3   OH258828   3.177   1.505  13.492  0.4422  0.1022  0.9734
12446TIP3    H158829   3.125   1.477  13.567 -1.0628  0.0166 -0.0580
12446TIP3    H258830   3.136   1.463  13.417  2.3492 -0.3939  0.1506
12447TIP3   OH258831   3.215   1.308  15.647 -0.5326 -0.4313  0.1286
12447TIP3    H158832   3.162   1.316  15.568  0.7454  1.8251 -0.5925
12447TIP3    H258833   3.286   1.248  15.622  0.2638  0.8107 -0.7546
12448TIP3   OH258834   6.591   3.054   1.291 -0.3349 -0.3624  0.5008
12448TIP3    H158835   6.653   3.075   1.361 -1.3819  0.5489  1.2019
12448TIP3    H258836   6.519   3.116   1.305 -0.3411  0.1895 -1.6995
12449TIP3   OH258837   2.865   4.082  14.349 -0.0126  0.3918 -0.1319
12449TIP3    H158838   2.811   4.103  14.425  1.0579  1.9196  0.2577
12449TIP3    H258839   2.809   4.029  14.293 -1.1957  0.1861  1.2090
12450TIP3   OH258840   3.415   3.415  11.165  0.3337  0.3643 -0.4452
12450TIP3    H158841   3.488   3.365  11.128 -0.8422  0.0938 -2.5057
12450TIP3    H258842   3.441   3.506  11.153  0.0946  0.2796 -1.7606
12451TIP3   OH258843   1.272   2.233   1.956  0.0038 -0.4405 -0.1078
12451TIP3    H158844   1.262   2.322   1.923  0.5811 -0.7284 -1.0912
12451TIP3    H258845   1.252   2.240   2.050  0.7955  0.8607 -0.0160
12452TIP3   OH258846   1.827   3.259  15.720  0.0067 -0.1587 -0.0050
12452TIP3    H158847   1.877   3.221  15.792  0.9407  1.4827  0.2745
12452TIP3    H258848   1.737   3.261  15.750  0.0513 -1.4697  0.2375
12453TIP3   OH258849   1.318   5.127   1.991  0.1845  0.0590  0.6171
12453TIP3    H158850   1.236   5.146   1.946 -0.2645 -1.8361  0.5374
12453TIP3    H258851   1.292   5.073   2.066  1.1803  1.0424  1.7081
12454TIP3   OH258852   5.343   2.880  13.677  0.0887 -0.6147 -0.2677
12454TIP3    H158853   5.291   2.893  13.599 -1.1399 -0.1355  0.6044
12454TIP3    H258854   5.346   2.966  13.719 -1.3661 -1.3550  1.4600
12455TIP3   OH258855   3.725   2.911  15.181  0.5804 -0.1365  0.7336
12455TIP3    H158856   3.716   2.880  15.091  1.2970  0.7253  0.3504
12455TIP3    H258857   3.728   2.831  15.233  0.3166 -0.6556 -0.0152
12456TIP3   OH258858   1.760   3.187   5.777  0.2617 -0.5911  0.2127
12456TIP3    H158859   1.668   3.211   5.765  0.0394 -0.6052  1.7480
12456TIP3    H258860   1.758   3.094   5.798  0.7902 -1.0162 -1.4849
12457TIP3   OH258861   5.145   6.359  13.386  0.0605  0.1185  0.0579
12457TIP3    H158862   5.088   6.428  13.421  0.4626  0.4738  0.0142
12457TIP3    H258863   5.098   6.326  13.310  0.5772  1.4267 -0.8738
12458TIP3   OH258864   4.653   3.490   5.816 -0.1757 -0.4997  0.0440
12458TIP3    H158865   4.648   3.397   5.837 -0.3062 -0.9781 -1.8867
12458TIP3    H258866   4.672   3.493   5.722  0.9297  1.4302  0.2633
12459TIP3   OH258867   2.501   1.733   4.602 -0.4219  0.3779  0.2469
12459TIP3    H158868   2.417   1.691   4.619 -1.9188  2.4452 -1.4002
12459TIP3    H258869   2.510   1.731   4.506  1.1549  0.6669  0.3641
12460TIP3   OH258870   0.340   3.719   2.543 -0.2421  0.2799 -0.0424
12460TIP3    H158871   0.426   3.753   2.566 -0.0100 -0.1162 -0.3050
12460TIP3    H258872   0.284   3.741   2.617 -0.0890  1.1952 -0.1963
12461TIP3   OH258873   2.174   4.453  11.502  0.2311 -0.8524 -0.3966
12461TIP3    H158874   2.242   4.392  11.472 -0.3786 -1.0406 -1.4402
12461TIP3    H258875   2.093   4.419  11.465 -0.0643  0.8715 -1.4344
12462TIP3   OH258876   0.298   1.530  15.742  0.2054  0.7359 -0.8036
12462TIP3    H158877   0.313   1.435  15.732  0.7065  0.6329  0.7162
12462TIP3    H258878   0.381   1.570  15.717  0.0301  0.7818 -1.3331
12463TIP3   OH258879   3.659   0.856   2.738  0.4597 -0.0129 -0.2898
12463TIP3    H158880   3.650   0.950   2.721 -0.9330 -0.1820 -0.5751
12463TIP3    H258881   3.631   0.846   2.829  0.6037 -0.1542 -0.2620
12464TIP3   OH258882   0.245   0.655  13.020  0.1015 -0.4882  0.4083
12464TIP3    H158883   0.298   0.719  12.973  1.0951 -1.0395  0.7614
12464TIP3    H258884   0.304   0.618  13.085  0.2565 -3.3428 -1.1674
12465TIP3   OH258885   0.121   5.417  16.396 -0.6990  0.3682  0.2997
12465TIP3    H158886   0.049   5.476  16.415 -1.7820  0.0347 -2.3388
12465TIP3    H258887   0.156   5.447  16.312  1.9090  0.1562  1.2127
12466TIP3   OH258888   2.154   0.340  11.233 -0.2924  0.1001  0.5034
12466TIP3    H158889   2.152   0.343  11.138 -0.8183 -2.7128  0.3523
12466TIP3    H258890   2.217   0.408  11.258  0.7026  0.1348 -1.8837
12467TIP3   OH258891   2.262   4.513   3.475 -0.2846  0.5472  0.4556
12467TIP3    H158892   2.175   4.499   3.511 -0.0766  2.4821  1.8574
12467TIP3    H258893   2.258   4.598   3.432  0.4580 -0.1378 -1.0501
12468TIP3   OH258894   3.681   2.341  14.644 -0.1109 -0.9324  0.2481
12468TIP3    H158895   3.767   2.369  14.674 -0.3526 -1.3382  1.3549
12468TIP3    H258896   3.658   2.268  14.701 -1.4492 -0.4533  0.3560
12469TIP3   OH258897   3.057   5.751  10.878  0.5227  0.3511  0.4118
12469TIP3    H158898   3.127   5.689  10.898  0.2591  0.0377  0.3739
12469TIP3    H258899   2.979   5.713  10.919  0.4004  0.7671  0.5752
12470TIP3   OH258900   1.151   3.109  11.791 -0.2196 -0.0833  0.2587
12470TIP3    H158901   1.146   3.195  11.750 -0.3634 -0.0267  0.3906
12470TIP3    H258902   1.142   3.127  11.885 -0.5683 -0.2666  0.2652
12471TIP3   OH258903   0.692   6.716   4.213  0.2183  0.0722 -0.1145
12471TIP3    H158904   0.687   6.621   4.214 -1.2699  0.1321  0.7144
12471TIP3    H258905   0.701   6.741   4.305 -0.8623  0.7662 -0.1718
12472TIP3   OH258906   2.402   2.289   3.783 -1.0171 -0.1975 -0.1265
12472TIP3    H158907   2.451   2.240   3.718 -2.2336  0.8333 -1.9093
12472TIP3    H258908   2.441   2.376   3.782 -1.0408 -0.1675  0.5712
12473TIP3   OH258909   3.773   4.299   0.408  0.1981 -0.2289 -0.2700
12473TIP3    H158910   3.831   4.366   0.372  0.3040  1.2321  2.3232
12473TIP3    H258911   3.824   4.260   0.479 -1.7104  0.7257  1.7385
12474TIP3   OH258912   4.718   4.762   3.524  0.0880 -0.3714  0.0535
12474TIP3    H158913   4.713   4.850   3.485  1.0651  0.0031  0.7366
12474TIP3    H258914   4.659   4.709   3.471  1.2235  0.1510 -1.8240
12475TIP3   OH258915   5.856   4.957  14.252 -0.3193  0.3395  0.5849
12475TIP3    H158916   5.865   4.916  14.338  0.2926  0.1074  0.4119
12475TIP3    H258917   5.769   4.999  14.255 -0.3881  0.1675  1.2384
12476TIP3   OH258918   6.390   6.217   3.271  0.8443 -0.3928  0.1900
12476TIP3    H158919   6.419   6.160   3.342 -1.5720  0.3256  1.8674
12476TIP3    H258920   6.345   6.158   3.210  1.7693 -0.8102 -0.1068
12477TIP3   OH258921   0.507   4.834  15.482 -0.1477  0.3638  0.0753
12477TIP3    H158922   0.584   4.881  15.515 -0.7004  0.7596  0.8637
12477TIP3    H258923   0.515   4.837  15.387 -0.5335  2.7729  0.0395
12478TIP3   OH258924   0.874   5.966   4.776 -0.4863 -0.2770 -0.8421
12478TIP3    H158925   0.787   5.931   4.796  0.2583 -1.6543  0.1447
12478TIP3    H258926   0.906   5.910   4.705  0.9812 -2.1837  1.1930
12479TIP3   OH258927   0.806   4.939  17.121 -0.1455  0.0180  0.4131
12479TIP3    H158928   0.839   4.956  17.032 -1.6244  1.2727  0.0657
12479TIP3    H258929   0.885   4.927  17.174  0.8072  0.8734 -0.7566
12480TIP3   OH258930   0.273   5.720   2.655  0.7584  0.3396  0.8463
12480TIP3    H158931   0.208   5.654   2.679 -0.1486  1.9535  3.1656
12480TIP3    H258932   0.258   5.736   2.562 -0.4759 -1.0975  0.7557
12481TIP3   OH258933   4.480   1.944   4.157 -0.5939 -0.4023 -0.6805
12481TIP3    H158934   4.454   1.925   4.247 -3.9731 -0.0055 -1.4272
12481TIP3    H258935   4.545   2.014   4.165  0.9481 -1.9388  1.4602
12482TIP3   OH258936   2.640   6.643   5.637 -0.4098 -0.0709  0.5436
12482TIP3    H158937   2.606   6.586   5.568  2.0986  0.7267 -1.5225
12482TIP3    H258938   2.647   6.729   5.595  1.8872  0.2784  1.4713
12483TIP3   OH258939   3.298   2.401   1.691  0.4565 -0.0365 -0.1531
12483TIP3    H158940   3.294   2.326   1.750 -0.6365  0.7408  0.8267
12483TIP3    H258941   3.370   2.382   1.632  0.4687 -1.6577  0.3323
12484TIP3   OH258942   3.809   6.785   2.237  0.1729 -0.0795 -0.1497
12484TIP3    H158943   3.753   6.720   2.194  1.3147 -0.9342 -0.3742
12484TIP3    H258944   3.756   6.865   2.237 -1.1632 -0.9384 -0.0814
12485TIP3   OH258945   0.971   0.127   0.823 -0.6047  0.2735  0.0679
12485TIP3    H158946   0.899   0.178   0.787 -0.8171  0.9340  1.3513
12485TIP3    H258947   0.939   0.097   0.908 -0.1436 -1.2484 -0.2504
12486TIP3   OH258948   5.402   3.457   2.351  0.0804 -0.2175  0.1633
12486TIP3    H158949   5.452   3.406   2.288 -1.0961 -0.6525 -0.4485
12486TIP3    H258950   5.321   3.407   2.364 -0.9060  1.2527 -0.1011
12487TIP3   OH258951   1.354   0.388   1.916  0.9563  0.1225 -0.6830
12487TIP3    H158952   1.391   0.432   1.993  1.4220  1.8530 -1.8574
12487TIP3    H258953   1.426   0.385   1.853  0.8248 -2.0225 -0.8092
12488TIP3   OH258954   2.293   4.753  13.700  0.5599  0.2536  0.3103
12488TIP3    H158955   2.337   4.669  13.716 -0.3278 -0.3703 -0.4038
12488TIP3    H258956   2.241   4.767  13.780 -1.0868 -1.0673 -0.4618
12489TIP3   OH258957   4.772   3.869  11.784  0.0065 -0.0482 -0.8838
12489TIP3    H158958   4.748   3.777  11.771  1.1868 -0.6421  0.7214
12489TIP3    H258959   4.849   3.882  11.728  0.0004 -0.1338 -0.9117
12490TIP3   OH258960   4.998   4.736  15.528 -0.2648  0.3733  0.1882
12490TIP3    H158961   5.051   4.765  15.602 -0.8973 -0.9266  1.1937
12490TIP3    H258962   5.059   4.732  15.455  0.5482  0.9606  0.8194
12491TIP3   OH258963   5.786   6.428  17.084 -0.2305 -0.2278 -0.4583
12491TIP3    H158964   5.779   6.516  17.119  0.4016  0.1229 -1.1832
12491TIP3    H258965   5.878   6.405  17.092 -0.2032 -0.4235 -1.1843
12492TIP3   OH258966   6.180   1.961  11.845 -0.3989 -0.3488 -0.0431
12492TIP3    H158967   6.122   2.012  11.902 -0.5076 -0.5025 -0.0146
12492TIP3    H258968   6.228   2.027  11.795 -0.2252 -0.2082  0.3003
12493TIP3   OH258969   1.323   4.331   5.812  0.4113 -0.0874  0.0472
12493TIP3    H158970   1.340   4.408   5.757 -0.3175 -0.0777 -0.1895
12493TIP3    H258971   1.407   4.308   5.849  0.3102  2.1242  1.8341
12494TIP3   OH258972   4.283   5.035   0.417 -0.2514  0.1371  0.3063
12494TIP3    H158973   4.236   4.954   0.396  0.5169 -0.0581 -0.7453
12494TIP3    H258974   4.221   5.104   0.394  0.2720 -0.0925 -2.0492
12495TIP3   OH258975   3.430   4.383   0.055 -0.3018  0.1832 -0.6693
12495TIP3    H158976   3.347   4.342   0.077 -0.4558  0.5428 -0.5738
12495TIP3    H258977   3.496   4.322   0.088 -0.5217 -0.3138 -1.1321
12496TIP3   OH258978   6.763   1.875   4.395 -0.3785  0.1795  0.4630
12496TIP3    H158979   6.677   1.907   4.425 -0.4536 -0.7742  1.3148
12496TIP3    H258980   6.749   1.851   4.304 -1.0108  0.0651  0.5839
12497TIP3   OH258981   3.990   2.948  16.409  0.8649 -0.1501 -0.3603
12497TIP3    H158982   3.968   2.874  16.351  1.2986 -0.6273  0.0641
12497TIP3    H258983   3.911   3.001  16.412  0.3968 -0.8288 -0.3359
12498TIP3   OH258984   4.587   2.336  10.494  0.6258  0.3238  0.3056
12498TIP3    H158985   4.557   2.360  10.582  0.0575 -0.1631  0.2469
12498TIP3    H258986   4.599   2.420  10.449 -0.4791  0.5462  0.3899
12499TIP3   OH258987   4.150   5.184   4.811 -0.8943  0.1152  0.5426
12499TIP3    H158988   4.185   5.233   4.737 -1.4005  3.0910  2.1253
12499TIP3    H258989   4.059   5.211   4.817 -0.9038 -0.1550  2.1616
12500TIP3   OH258990   0.838   1.312   1.819 -0.7303  0.1078 -0.5475
12500TIP3    H158991   0.915   1.343   1.866 -0.3269 -0.9055 -0.5170
12500TIP3    H258992   0.839   1.362   1.737  0.2101 -0.2097 -0.7405
12501TIP3   OH258993   1.140   5.641  12.787 -0.3753 -0.3249 -0.1498
12501TIP3    H158994   1.058   5.679  12.757 -0.3112  1.4480  1.7600
12501TIP3    H258995   1.189   5.625  12.706 -1.9276  0.0872 -1.2241
12502TIP3   OH258996   5.790   3.510   5.170 -0.1660 -0.2096 -0.1708
12502TIP3    H158997   5.814   3.547   5.085 -0.7712  0.2260 -0.1606
12502TIP3    H258998   5.751   3.425   5.149 -0.1052 -0.2028 -0.3120
12503TIP3   OH258999   5.004   1.582  13.473 -0.3487 -0.1660 -0.2713
12503TIP3    H159000   4.974   1.610  13.560 -1.3446 -1.5712 -0.1360
12503TIP3    H259001   5.093   1.549  13.489 -0.0394  0.7378 -0.0330
12504TIP3   OH259002   1.540   5.267  11.182 -0.0315 -0.4657 -0.5779
12504TIP3    H159003   1.487   5.212  11.124 -1.0185  0.0645 -0.1906
12504TIP3    H259004   1.582   5.205  11.241 -2.0630 -0.7862  0.6271
12505TIP3   OH259005   4.233   0.298  13.760 -0.0583 -0.1742  0.2121
12505TIP3    H159006   4.193   0.250  13.688 -0.8801 -0.8161  1.0736
12505TIP3    H259007   4.288   0.364  13.718 -0.9487 -0.1843 -0.9965
12506TIP3   OH259008   5.271   3.062   0.716 -0.1974  0.7056  0.4122
12506TIP3    H159009   5.281   3.145   0.765  1.3325  1.0633 -0.4491
12506TIP3    H259010   5.360   3.035   0.697 -0.6810 -1.1348  0.5961
12507TIP3   OH259011   3.975   0.789  13.155  0.3058  0.1969 -0.5517
12507TIP3    H159012   3.985   0.803  13.061 -0.3780  2.4025 -0.3519
12507TIP3    H259013   4.004   0.871  13.195  0.2181 -0.5597  1.1478
12508TIP3   OH259014   5.353   4.142   3.099 -0.2441 -0.1109 -0.1606
12508TIP3    H159015   5.388   4.152   3.010 -0.3083  1.0977 -0.0684
12508TIP3    H259016   5.397   4.064   3.133 -2.1451 -2.2165 -2.1394
12509TIP3   OH259017   4.326   4.214   5.248 -0.2142 -0.3671 -0.0700
12509TIP3    H159018   4.281   4.175   5.323 -0.9145  0.4425 -0.0567
12509TIP3    H259019   4.273   4.291   5.225  0.9993  0.4356 -0.2502
12510TIP3   OH259020   2.219   1.738  11.746  0.4802  0.5516 -0.5350
12510TIP3    H159021   2.137   1.784  11.764 -0.8164 -1.0462 -2.0586
12510TIP3    H259022   2.272   1.802  11.698  0.5126  1.8853  1.1929
12511TIP3   OH259023   5.084   3.963  15.326  0.0962  0.2462 -0.3026
12511TIP3    H159024   5.132   4.046  15.328  0.7080  0.0358 -2.7110
12511TIP3    H259025   4.996   3.986  15.358  0.7037  1.4597  0.5739
12512TIP3   OH259026   6.358   3.981  17.134 -0.0411 -0.1613 -0.2348
12512TIP3    H159027   6.356   3.958  17.041  0.1292 -0.3417 -0.1971
12512TIP3    H259028   6.423   3.921  17.171  0.1744  0.1689 -0.0724
12513TIP3   OH259029   2.997   3.583  13.400 -0.2274  0.4650 -0.0049
12513TIP3    H159030   3.026   3.650  13.338  0.4467 -0.0124 -0.2011
12513TIP3    H259031   2.920   3.623  13.442 -0.2558  1.0834 -0.6161
12514TIP3   OH259032   2.342   6.197   5.970  0.3067  0.5202  0.3773
12514TIP3    H159033   2.360   6.252   6.046 -1.7007  1.4259  0.2563
12514TIP3    H259034   2.285   6.250   5.914  0.4982 -0.6971 -1.0453
12515TIP3   OH259035   1.418   2.561   3.147 -0.0327  0.4041  0.3461
12515TIP3    H159036   1.399   2.469   3.128 -0.4130  0.2830  1.2798
12515TIP3    H259037   1.502   2.577   3.104 -0.7700  0.1116 -1.3092
12516TIP3   OH259038   1.884   3.706   5.675 -0.1676  0.3558  0.5323
12516TIP3    H159039   1.973   3.681   5.701 -0.2235  0.6984  1.0577
12516TIP3    H259040   1.897   3.770   5.605 -0.0208 -1.0782 -0.8296
12517TIP3   OH259041   1.366   3.145  11.436 -0.0440 -0.5238 -0.3108
12517TIP3    H159042   1.336   3.178  11.520  0.6154  0.2489 -0.3741
12517TIP3    H259043   1.372   3.222  11.380  1.9598 -0.6489 -0.3213
12518TIP3   OH259044   2.449   6.649   5.055  0.5386  0.1143 -0.5189
12518TIP3    H159045   2.401   6.669   4.975  2.0483  0.1750 -1.4490
12518TIP3    H259046   2.536   6.687   5.041  0.8251  0.1855  1.1830
12519TIP3   OH259047   4.182   1.741   3.068  0.1512  0.4410 -0.7409
12519TIP3    H159048   4.243   1.670   3.091  0.7280  0.5113 -1.9972
12519TIP3    H259049   4.221   1.819   3.106 -0.4673  0.1244  0.6216
12520TIP3   OH259050   4.967   0.756  13.462  0.8293 -0.9256  0.1814
12520TIP3    H159051   4.944   0.679  13.409 -2.2595 -0.0343  0.0148
12520TIP3    H259052   4.970   0.828  13.399  0.1776 -0.3574  0.7894
12521TIP3   OH259053   1.467   0.200   1.273 -0.3773 -0.0470  0.1307
12521TIP3    H159054   1.421   0.142   1.334 -0.1399 -0.7778 -0.3719
12521TIP3    H259055   1.545   0.228   1.321 -0.1674 -0.6546  0.1564
12522TIP3   OH259056   2.502   5.054   1.638 -0.4629  0.3601 -0.3690
12522TIP3    H159057   2.479   4.976   1.587 -2.1936  0.5358  0.0781
12522TIP3    H259058   2.596   5.064   1.625 -0.6324 -0.2652 -2.5787
12523TIP3   OH259059   6.352   5.968   4.225  0.0211  0.2596 -0.6115
12523TIP3    H159060   6.369   6.036   4.159  0.7764 -0.1943 -0.8923
12523TIP3    H259061   6.430   5.912   4.223 -0.6786 -0.7424 -0.5336
12524TIP3   OH259062   4.399   6.030   4.891  0.0797  0.5990 -0.7704
12524TIP3    H159063   4.430   6.019   4.981 -1.5016  0.7386 -0.1736
12524TIP3    H259064   4.471   6.074   4.846 -0.1071  3.0903  1.1464
12525TIP3   OH259065   2.355   1.004   4.497  0.4476  0.3039  0.2935
12525TIP3    H159066   2.368   0.910   4.487  3.7162  0.5085  1.3235
12525TIP3    H259067   2.368   1.039   4.408 -0.4403 -0.1353 -0.0279
12526TIP3   OH259068   5.910   2.252   1.149  0.1964 -0.1898  0.9271
12526TIP3    H159069   5.843   2.241   1.081  0.8238 -0.6443  0.3811
12526TIP3    H259070   5.965   2.324   1.118 -1.0850  1.4538  2.2452
12527TIP3   OH259071   0.114   4.778   2.270 -0.0975  0.6237  0.8561
12527TIP3    H159072   0.105   4.726   2.350  1.3763  0.0704  0.6851
12527TIP3    H259073   0.026   4.780   2.232 -0.3259 -1.1436  1.2418
12528TIP3   OH259074   5.541   0.224   2.683 -0.2117 -0.2315  0.1655
12528TIP3    H159075   5.569   0.310   2.715 -2.8780  1.3809 -1.4659
12528TIP3    H259076   5.477   0.194   2.747 -0.3705 -0.3050 -0.0270
12529TIP3   OH259077   0.977   1.689  16.938 -0.6192  0.9240 -0.3284
12529TIP3    H159078   1.036   1.637  16.884  1.0314  0.6332  1.6515
12529TIP3    H259079   0.932   1.626  16.993  0.8297  1.4635  1.5493
12530TIP3   OH259080   3.454   2.189   2.823  0.3679  0.4953  0.7679
12530TIP3    H159081   3.458   2.173   2.917  0.9985 -2.7688  0.3128
12530TIP3    H259082   3.540   2.224   2.801 -0.0220  1.9652  1.4488
12531TIP3   OH259083   6.498   3.036  14.143 -1.0433 -0.5709 -0.1504
12531TIP3    H159084   6.467   3.115  14.100 -0.3094 -0.5738 -0.7043
12531TIP3    H259085   6.521   3.064  14.231  1.0631  0.2898 -0.9167
12532TIP3   OH259086   5.909   1.453   3.307  0.0882 -0.0608 -0.3856
12532TIP3    H159087   5.952   1.385   3.359 -1.4705  0.3611  1.6036
12532TIP3    H259088   5.961   1.459   3.228  2.0410 -1.4553  0.6962
12533TIP3   OH259089   1.134   3.555   5.240  0.4198 -0.0121  0.3505
12533TIP3    H159090   1.066   3.578   5.303  1.1404 -0.0860  1.1708
12533TIP3    H259091   1.153   3.638   5.195  1.1505  0.4548  1.4758
12534TIP3   OH259092   6.402   2.357   2.995 -0.3144 -0.4364  0.6628
12534TIP3    H159093   6.307   2.365   2.988 -0.3188  0.0470  1.2478
12534TIP3    H259094   6.436   2.437   2.956 -0.1607 -0.3962  0.8777
12535TIP3   OH259095   2.954   6.600   4.893  0.2246  0.0934 -0.2190
12535TIP3    H159096   2.872   6.550   4.892  0.3294 -0.1179 -2.2364
12535TIP3    H259097   3.020   6.539   4.859  1.9871 -0.7674  4.0495
12536TIP3   OH259098   2.538   1.501   3.808  0.3424  0.3385 -0.1321
12536TIP3    H159099   2.572   1.489   3.896 -0.2254  1.4029  0.2478
12536TIP3    H259100   2.537   1.596   3.795  0.1780  0.2032 -1.1861
12537TIP3   OH259101   3.140   6.150  16.468  0.6420  0.6880 -0.1767
12537TIP3    H159102   3.080   6.129  16.540  1.6080  0.1329  0.4900
12537TIP3    H259103   3.136   6.245  16.460  0.2299  0.7224  0.3554
12538TIP3   OH259104   1.962   0.478  12.570 -0.7479 -0.0022 -0.2899
12538TIP3    H159105   1.960   0.407  12.634 -0.1453 -0.0343 -0.3021
12538TIP3    H259106   1.968   0.558  12.623  0.3185 -0.0539 -0.2942
12539TIP3   OH259107   2.716   1.785  15.840  0.3786  0.2976 -0.2358
12539TIP3    H159108   2.688   1.869  15.804  1.0609  0.6524  0.0435
12539TIP3    H259109   2.731   1.802  15.933  0.8659 -0.0431 -0.2470
12540TIP3   OH259110   0.146   5.721  12.269  0.2490  0.2312 -0.0311
12540TIP3    H159111   0.086   5.761  12.206 -2.2381 -1.3850  1.1455
12540TIP3    H259112   0.202   5.793  12.298 -0.5470  1.6457 -1.8037
12541TIP3   OH259113   4.669   4.268  15.558 -0.5407  0.2698 -0.0563
12541TIP3    H159114   4.649   4.360  15.541  1.1471  0.7019  0.0884
12541TIP3    H259115   4.596   4.220  15.519 -0.5433  1.5717 -1.7918
12542TIP3   OH259116   0.777   1.639  16.139  0.0628 -0.9266  0.0738
12542TIP3    H159117   0.800   1.592  16.058 -1.5567 -0.0487 -0.9415
12542TIP3    H259118   0.705   1.588  16.177  1.2651 -1.7271  1.3851
12543TIP3   OH259119   4.137   6.715   2.428 -0.4170  0.6419 -0.3331
12543TIP3    H159120   4.077   6.640   2.432 -1.5432  1.2467 -3.2012
12543TIP3    H259121   4.081   6.791   2.440 -0.2413  1.1972 -2.5848
12544TIP3   OH259122   3.754   0.185   3.982 -0.2137  0.2908  0.4654
12544TIP3    H159123   3.752   0.119   3.912 -0.7591  0.6174  0.1647
12544TIP3    H259124   3.829   0.160   4.036  0.3238  0.1360 -0.3357
12545TIP3   OH259125   3.013   1.117   6.453 -0.4737 -0.5714 -0.8032
12545TIP3    H159126   3.064   1.087   6.529 -1.3311  0.0905  0.0576
12545TIP3    H259127   2.933   1.065   6.456 -0.6035 -0.3904 -1.1345
12546TIP3   OH259128   5.736   2.812   2.864  0.1716  0.0266  0.2410
12546TIP3    H159129   5.803   2.807   2.797  1.5014  0.9163  1.4367
12546TIP3    H259130   5.738   2.903   2.894 -0.2758 -0.3715  1.5768
12547TIP3   OH259131   5.502   1.714   0.137  0.5639  0.5526  0.0058
12547TIP3    H159132   5.551   1.636   0.110 -0.8451 -0.3558 -0.0412
12547TIP3    H259133   5.568   1.772   0.176  1.4104 -1.3596  1.5834
12548TIP3   OH259134   4.099   0.893   1.655  0.2388 -0.3768  0.1191
12548TIP3    H159135   4.093   0.952   1.730  1.6145 -1.9899  1.5770
12548TIP3    H259136   4.124   0.951   1.582  2.6827  0.7832  1.7282
12549TIP3   OH259137   6.319   3.906   5.284 -0.4515  0.5593 -0.3150
12549TIP3    H159138   6.348   3.970   5.218  0.0546  0.8314  0.1609
12549TIP3    H259139   6.386   3.838   5.281  0.3224  1.2479  0.8761
12550TIP3   OH259140   0.791   2.778   1.026 -0.3650  0.0761  0.3496
12550TIP3    H159141   0.747   2.699   0.995 -0.6905  1.1928 -2.2954
12550TIP3    H259142   0.727   2.820   1.083 -0.6166 -0.9606  0.8672
12551TIP3   OH259143   3.266   6.460   3.942  0.2704  0.7396 -0.2446
12551TIP3    H159144   3.331   6.480   3.874  0.5234  1.2853  0.1506
12551TIP3    H259145   3.260   6.540   3.993  0.4462  0.1758  0.6748
12552TIP3   OH259146   1.507   5.840  14.075 -0.6897 -0.2338  0.1520
12552TIP3    H159147   1.600   5.839  14.097 -0.5174 -0.6868 -0.5689
12552TIP3    H259148   1.471   5.764  14.122 -0.7596  0.1021  0.6557
12553TIP3   OH259149   0.106   0.703  11.225  0.0479  0.6462 -0.5198
12553TIP3    H159150   0.107   0.635  11.158  0.0571  0.7121 -0.5871
12553TIP3    H259151   0.014   0.708  11.252  0.1987 -0.0315  0.1414
12554TIP3   OH259152   4.085   2.009   4.833  0.1752  0.0062  0.1250
12554TIP3    H159153   4.128   2.026   4.917 -0.9692  0.5251  0.6352
12554TIP3    H259154   4.033   1.930   4.847  1.6331 -1.1629 -0.7680
12555TIP3   OH259155   6.391   3.073   0.134 -0.8394 -0.0278 -0.0632
12555TIP3    H159156   6.359   3.160   0.156 -1.6782 -0.1611 -0.6937
12555TIP3    H259157   6.401   3.074   0.038 -1.6597 -0.8588 -0.1837
12556TIP3   OH259158   6.294   0.255  15.149  0.0085 -0.2154  1.1863
12556TIP3    H159159   6.284   0.265  15.243  1.2007 -0.2234  1.3288
12556TIP3    H259160   6.334   0.169  15.138 -0.6510 -0.4613  0.6297
12557TIP3   OH259161   3.507   2.115  12.904  0.4448 -0.6837  0.0304
12557TIP3    H159162   3.574   2.087  12.967  2.2747  0.2817 -1.3618
12557TIP3    H259163   3.501   2.210  12.917 -0.3671 -0.7100 -0.1362
12558TIP3   OH259164   1.749   1.720   4.197 -0.3466  0.4208 -0.3137
12558TIP3    H159165   1.660   1.685   4.193  0.0856 -1.3107  2.5543
12558TIP3    H259166   1.740   1.801   4.247 -0.3068  0.2845 -0.0877
12559TIP3   OH259167   2.061   6.140   0.191 -0.0326  0.0003 -0.1762
12559TIP3    H159168   1.978   6.105   0.159 -0.8788  1.9243 -0.1833
12559TIP3    H259169   2.041   6.229   0.219  2.1107  0.6292 -0.4782
12560TIP3   OH259170   0.285   3.572   0.895  0.2339  0.3597  0.0308
12560TIP3    H159171   0.221   3.505   0.917 -0.3075  1.1782  1.0189
12560TIP3    H259172   0.267   3.593   0.803  0.1431 -0.5424 -0.1662
12561TIP3   OH259173   4.689   5.592  14.477 -0.5290  0.4357  0.0829
12561TIP3    H159174   4.627   5.534  14.432  1.1695 -1.3620 -0.0586
12561TIP3    H259175   4.728   5.644  14.407 -0.5300  0.2467 -0.0593
12562TIP3   OH259176   4.876   2.722   0.193 -0.2806  0.0691  0.1150
12562TIP3    H159177   4.894   2.807   0.154 -0.9801 -0.1187 -0.6260
12562TIP3    H259178   4.825   2.675   0.128 -0.8867 -0.5057  0.9803
12563TIP3   OH259179   2.246   0.630  12.421  0.0166  0.0703 -0.4293
12563TIP3    H159180   2.216   0.544  12.448  1.8316 -0.2579  0.7554
12563TIP3    H259181   2.297   0.614  12.341  1.7110 -0.2685  0.6568
12564TIP3   OH259182   0.436   6.372   0.987 -0.2063  0.3333 -0.2541
12564TIP3    H159183   0.459   6.295   1.038 -0.9087  0.9882  1.1043
12564TIP3    H259184   0.436   6.444   1.050 -0.5795  1.2716 -1.2823
12565TIP3   OH259185   4.552   3.351  14.013 -0.3033  0.2790  0.2860
12565TIP3    H159186   4.568   3.323  13.922  0.0072 -0.3783  0.5338
12565TIP3    H259187   4.460   3.376  14.014 -0.3304  0.2167 -0.1992
12566TIP3   OH259188   1.142   6.052  15.359  0.0688 -0.1801 -0.1036
12566TIP3    H159189   1.093   6.026  15.281 -0.1969  0.3233 -0.1124
12566TIP3    H259190   1.176   6.139  15.338 -0.1221  0.0170  0.3893
12567TIP3   OH259191   0.781   0.660  13.462  0.5445 -0.3746 -0.5496
12567TIP3    H159192   0.835   0.583  13.477  1.4466  0.2760 -0.3705
12567TIP3    H259193   0.785   0.709  13.545 -0.5285 -0.4275 -0.4450
12568TIP3   OH259194   0.218   6.596   5.729 -0.1057 -0.4202  0.3246
12568TIP3    H159195   0.143   6.657   5.726  0.1340 -0.1518 -1.1148
12568TIP3    H259196   0.284   6.643   5.780 -0.5824 -0.2604  0.8089
12569TIP3   OH259197   3.711   3.620  15.380 -0.1861  0.3869 -0.0325
12569TIP3    H159198   3.736   3.711  15.362  0.4188  0.6471  1.9083
12569TIP3    H259199   3.684   3.585  15.295  1.7029  1.7188 -1.2637
12570TIP3   OH259200   6.071   2.028   5.504  0.2175 -0.4454  0.2655
12570TIP3    H159201   6.045   2.072   5.424  2.1497 -1.0490 -0.7605
12570TIP3    H259202   6.111   2.096   5.558 -2.3577  0.2769  1.4366
12571TIP3   OH259203   2.845   5.225   2.378  0.0276 -0.0051 -0.1894
12571TIP3    H159204   2.753   5.207   2.360 -0.7409  0.5307  2.7034
12571TIP3    H259205   2.876   5.148   2.426  0.2082  1.0313  1.4240
12572TIP3   OH259206   4.680   4.059   2.153 -0.0115  0.8679  0.0817
12572TIP3    H159207   4.741   4.130   2.171 -1.4183  1.8790  1.1054
12572TIP3    H259208   4.602   4.081   2.204 -0.1561 -1.9203  1.2558
12573TIP3   OH259209   1.748   6.389   0.071  0.0024 -0.5995 -0.6604
12573TIP3    H159210   1.688   6.455   0.103 -0.3266 -0.2198 -2.0043
12573TIP3    H259211   1.692   6.315   0.045  0.2530 -0.8888 -0.3832
12574TIP3   OH259212   1.070   3.140   2.388 -0.1639  0.2933  0.4575
12574TIP3    H159213   1.114   3.077   2.331  1.4607  0.7460  1.1520
12574TIP3    H259214   1.047   3.213   2.329  0.6502  0.3467  0.1896
12575TIP3   OH259215   3.045   2.129  16.422 -0.1414 -0.0152 -0.4831
12575TIP3    H159216   3.140   2.114  16.422 -0.0207  0.6845 -0.3686
12575TIP3    H259217   3.033   2.204  16.481 -0.7982 -0.2804 -0.2762
12576TIP3   OH259218   1.848   0.421  11.559 -0.1395  0.6061  0.0222
12576TIP3    H159219   1.882   0.350  11.504 -0.7760  0.4420 -0.1726
12576TIP3    H259220   1.869   0.501  11.510 -0.3691  0.4820 -0.2892
12577TIP3   OH259221   0.350   5.577   3.508  0.5535 -0.1055  0.2561
12577TIP3    H159222   0.400   5.570   3.589  2.1098 -0.7670 -0.7025
12577TIP3    H259223   0.394   5.517   3.447 -0.0774  0.9390 -1.3092
12578TIP3   OH259224   3.652   4.479   1.270 -0.0596 -0.0826  0.0683
12578TIP3    H159225   3.669   4.444   1.357  0.4023 -1.4108 -0.5301
12578TIP3    H259226   3.734   4.465   1.222  0.0664  1.6297 -0.2827
12579TIP3   OH259227   1.909   5.935   5.151  0.0389 -0.2534 -0.5822
12579TIP3    H159228   1.996   5.943   5.112 -0.2175  0.5488 -0.9924
12579TIP3    H259229   1.922   5.876   5.226  1.3947  1.6489  0.7579
12580TIP3   OH259230   1.043   3.963   6.207 -0.5013  0.5303  0.5148
12580TIP3    H159231   0.984   3.897   6.244  0.0766 -0.6962 -0.6582
12580TIP3    H259232   1.090   3.917   6.138  0.3467  2.0395  0.0380
12581TIP3   OH259233   4.762   3.379  11.059  0.1026 -0.6133  0.0992
12581TIP3    H159234   4.847   3.370  11.100 -0.0026 -0.5230  0.3386
12581TIP3    H259235   4.710   3.306  11.093 -0.1735 -0.1875  0.6050
12582TIP3   OH259236   5.652   5.868  14.236  0.0987 -0.1952 -0.3298
12582TIP3    H159237   5.603   5.867  14.154  0.2515 -0.1724 -0.4215
12582TIP3    H259238   5.621   5.946  14.282  0.4195  0.0992 -0.6114
12583TIP3   OH259239   3.557   1.420  15.325 -0.4165  0.1287  0.3253
12583TIP3    H159240   3.462   1.425  15.319 -0.5195 -0.7245  1.1048
12583TIP3    H259241   3.584   1.507  15.353 -1.0054  0.2769  0.4408
12584TIP3   OH259242   4.557   1.360  13.123  0.0431  0.3195  0.2280
12584TIP3    H159243   4.539   1.358  13.217  0.6826 -2.1822  0.3722
12584TIP3    H259244   4.550   1.269  13.095 -1.7111  1.1788 -2.5166
12585TIP3   OH259245   3.823   4.359  10.748  0.0081  0.4892 -0.1869
12585TIP3    H159246   3.874   4.312  10.814 -0.5788  0.7446  0.4488
12585TIP3    H259247   3.738   4.375  10.789 -0.8844 -0.6302 -1.5129
12586TIP3   OH259248   5.723   4.268   0.008 -0.4787  0.1639  0.0841
12586TIP3    H159249   5.688   4.207  -0.057  1.8868 -1.6446  0.3482
12586TIP3    H259250   5.800   4.223   0.043  0.8025  2.9143  1.0627
12587TIP3   OH259251   6.537   0.999   0.205 -0.5005 -0.4579  0.1868
12587TIP3    H159252   6.528   0.905   0.223 -1.3765 -0.0553  2.1075
12587TIP3    H259253   6.612   1.005   0.146 -1.8328 -2.5508 -1.8807
12588TIP3   OH259254   1.461   2.065   2.857  0.3163 -0.0293  0.3003
12588TIP3    H159255   1.466   1.978   2.819 -1.4753 -0.7671  1.6302
12588TIP3    H259256   1.390   2.109   2.810  0.8273  0.5376  0.0304
12589TIP3   OH259257   1.959   4.893   6.589 -0.3538  0.2671  0.3547
12589TIP3    H159258   2.052   4.893   6.565 -0.0598  1.5096  1.4019
12589TIP3    H259259   1.923   4.969   6.544 -0.7048  0.2178  0.5522
12590TIP3   OH259260   4.195   6.242   4.191 -0.0135  0.1712  0.0592
12590TIP3    H159261   4.114   6.266   4.235  0.9221  0.0681  1.9407
12590TIP3    H259262   4.262   6.247   4.260  1.3749 -0.9231 -1.1519
12591TIP3   OH259263   2.170   1.162  15.136  0.2163  0.2844  0.3304
12591TIP3    H159264   2.227   1.142  15.210 -0.4849 -0.3573  0.7133
12591TIP3    H259265   2.182   1.089  15.076  1.9852  1.5692 -0.9652
12592TIP3   OH259266   2.894   0.860   0.344 -0.2349 -0.2671 -0.2871
12592TIP3    H159267   2.925   0.908   0.421 -1.5514  0.5816 -0.2402
12592TIP3    H259268   2.800   0.849   0.359  0.0141 -2.9373 -0.3028
12593TIP3   OH259269   3.312   4.482  16.121  0.3623  0.3088 -0.2091
12593TIP3    H159270   3.286   4.420  16.053  2.8995 -0.3457 -0.6806
12593TIP3    H259271   3.402   4.506  16.099  0.6542  1.4308  1.9378
12594TIP3   OH259272   3.861   4.102  12.452  0.0348  0.3248  0.6867
12594TIP3    H159273   3.861   4.115  12.357 -0.7373  0.3729  0.6812
12594TIP3    H259274   3.786   4.154  12.483  0.5708  0.6992  1.3763
12595TIP3   OH259275   3.027   0.394  14.532  0.0006 -0.1932 -0.2957
12595TIP3    H159276   2.967   0.468  14.533  0.7194  0.4083  0.9995
12595TIP3    H259277   3.044   0.377  14.439 -1.1424  0.4437 -0.6389
12596TIP3   OH259278   5.358   4.698   3.129  0.4854  0.0192  0.6632
12596TIP3    H159279   5.439   4.748   3.137 -0.2034  0.8797  2.9787
12596TIP3    H259280   5.383   4.609   3.152  0.8467  0.2067  1.0045
12597TIP3   OH259281   1.750   5.572   0.236  0.4410  0.1290  0.0953
12597TIP3    H159282   1.654   5.575   0.240  0.4843  2.3549  1.3572
12597TIP3    H259283   1.770   5.557   0.144 -1.1107 -0.6516 -0.1496
12598TIP3   OH259284   6.489   3.694   0.273 -0.4658 -0.1482 -0.0078
12598TIP3    H159285   6.403   3.701   0.231 -0.7247  1.8727  0.7553
12598TIP3    H259286   6.488   3.761   0.341  1.8790  0.2704 -0.2938
12599TIP3   OH259287   2.649   2.653  10.638  0.0434  0.2972 -0.5950
12599TIP3    H159288   2.621   2.563  10.655  1.3355 -0.4613 -2.1308
12599TIP3    H259289   2.570   2.705  10.647 -0.5836 -0.8562  1.1213
12600TIP3   OH259290   1.278   2.506  14.679 -0.0638 -0.3556  0.3289
12600TIP3    H159291   1.183   2.504  14.681 -0.0889 -2.7864  3.2735
12600TIP3    H259292   1.303   2.437  14.618 -0.0965  0.5757 -0.7911
12601TIP3   OH259293   6.037   2.346   2.290 -0.4011  0.2464 -0.2147
12601TIP3    H159294   6.115   2.342   2.345 -1.9528  0.1658  2.1567
12601TIP3    H259295   6.068   2.325   2.202  1.9194 -1.8518  0.9781
12602TIP3   OH259296   3.660   6.409  17.102  0.0535 -0.1523  0.5201
12602TIP3    H159297   3.619   6.375  17.182 -2.0603 -1.2924 -0.9422
12602TIP3    H259298   3.752   6.384  17.110  0.1818  0.8933  3.1334
12603TIP3   OH259299   3.193   0.080  14.626  0.3991  0.0453 -0.1430
12603TIP3    H159300   3.198  -0.006  14.668  0.1536 -0.2731 -0.7505
12603TIP3    H259301   3.101   0.104  14.630  0.3468 -0.0583 -0.6238
12604TIP3   OH259302   1.832   5.440   0.454 -0.0748  0.0077  0.0915
12604TIP3    H159303   1.778   5.467   0.379 -1.4214  0.3796  1.1485
12604TIP3    H259304   1.900   5.384   0.415 -1.4181 -0.7687 -1.2766
12605TIP3   OH259305   0.173   5.314  16.814  0.1965 -0.2858 -0.6582
12605TIP3    H159306   0.262   5.281  16.827 -0.2651 -0.5705  2.8894
12605TIP3    H259307   0.185   5.406  16.793  1.3189 -0.9172 -3.1308
12606TIP3   OH259308   4.244   1.432  17.053 -0.1611 -0.0731  0.2449
12606TIP3    H159309   4.270   1.361  17.111  0.5611 -0.4117 -0.4857
12606TIP3    H259310   4.207   1.389  16.976  2.7119  0.1532 -1.4324
12607TIP3   OH259311   2.465   1.956  17.106  0.0160  0.3195 -0.7433
12607TIP3    H159312   2.557   1.974  17.128 -0.4464  2.9173 -0.6793
12607TIP3    H259313   2.436   2.034  17.060 -2.3772 -0.1761 -0.1765
12608TIP3   OH259314   3.832   2.126   5.038  0.5549 -0.4091  0.1810
12608TIP3    H159315   3.851   2.176   5.117  1.9907  0.7728 -0.8489
12608TIP3    H259316   3.857   2.036   5.060  2.7263  0.2157  0.5642
12609TIP3   OH259317   1.911   0.453  15.256 -0.1151  0.2945  0.3036
12609TIP3    H159318   1.831   0.412  15.289 -1.0042  1.9980  0.4119
12609TIP3    H259319   1.959   0.480  15.334 -0.8624  1.8262  0.2719
12610TIP3   OH259320   0.522   1.197   4.762  0.3412 -1.1543 -0.2935
12610TIP3    H159321   0.539   1.115   4.715  0.1844 -1.2607 -0.1679
12610TIP3    H259322   0.478   1.169   4.843 -0.5394 -0.8818 -0.6682
12611TIP3   OH259323   5.407   5.193  11.298  0.6096  0.1428 -0.6165
12611TIP3    H159324   5.405   5.281  11.335  0.7513  1.0413 -2.6254
12611TIP3    H259325   5.322   5.155  11.321 -0.1233  1.4244 -1.1034
12612TIP3   OH259326   6.209   2.588  11.328 -0.1521  0.4790  0.3476
12612TIP3    H159327   6.132   2.532  11.322 -0.6964  1.1725  0.7326
12612TIP3    H259328   6.232   2.605  11.236 -0.7758  0.6897  0.2223
12613TIP3   OH259329   5.429   6.577  16.519  0.6967 -0.1557  0.6725
12613TIP3    H159330   5.492   6.573  16.447 -0.1345  1.3174 -0.1895
12613TIP3    H259331   5.348   6.606  16.478  0.0839  0.2919  2.1410
12614TIP3   OH259332   2.380   5.600   4.319 -0.7060  0.1308  0.0109
12614TIP3    H159333   2.454   5.647   4.279 -1.8651  0.4045 -1.9259
12614TIP3    H259334   2.411   5.578   4.407  1.9994 -0.5321 -1.0094
12615TIP3   OH259335   1.423   0.348   0.071  0.2223  0.2258 -0.5308
12615TIP3    H159336   1.410   0.359   0.165  0.7887 -0.5347 -0.3571
12615TIP3    H259337   1.431   0.437   0.037  1.8810  0.4873  0.4224
12616TIP3   OH259338   2.789   2.258   5.047  0.1463 -0.7377  0.4298
12616TIP3    H159339   2.862   2.262   4.985 -1.2117 -2.0302 -1.3612
12616TIP3    H259340   2.711   2.260   4.992 -1.1552 -0.7923  2.1968
12617TIP3   OH259341   5.821   1.355   0.521  0.0805 -0.1734  0.5587
12617TIP3    H159342   5.912   1.337   0.497  0.8410  0.2967  2.8929
12617TIP3    H259343   5.793   1.277   0.568 -0.5704 -0.0927  0.3211
12618TIP3   OH259344   6.763   2.965  13.035  0.0363 -0.2260 -0.1938
12618TIP3    H159345   6.703   3.032  13.067 -3.4624 -2.8080 -0.8300
12618TIP3    H259346   6.778   2.987  12.944  0.9357  0.9782  0.2215
12619TIP3   OH259347   5.995   2.929  14.398  0.5087  0.3033  0.2330
12619TIP3    H159348   6.069   2.963  14.448 -1.0753  0.9668  2.2314
12619TIP3    H259349   5.934   2.895  14.464 -0.9792 -0.2401 -1.3379
12620TIP3   OH259350   0.509   4.631  10.916  0.1493 -0.2474 -0.3079
12620TIP3    H159351   0.522   4.686  10.993  0.9924 -1.1035  0.1822
12620TIP3    H259352   0.588   4.643  10.864 -0.4946  0.4706 -1.1548
12621TIP3   OH259353   1.637   5.506   4.383  0.0635  0.2181 -0.0732
12621TIP3    H159354   1.551   5.548   4.389  0.2565  0.6187 -0.1642
12621TIP3    H259355   1.681   5.530   4.465  0.4961  0.9003 -0.5014
12622TIP3   OH259356   2.815   2.229   1.044 -0.6317 -0.7383  0.2238
12622TIP3    H159357   2.791   2.240   0.952  3.5666  4.4860 -0.7264
12622TIP3    H259358   2.735   2.250   1.092 -2.3030 -1.1332 -2.1945
12623TIP3   OH259359   0.835   3.412  13.460 -0.3223  0.0713  0.2000
12623TIP3    H159360   0.881   3.482  13.413 -0.9224  0.2173 -0.1745
12623TIP3    H259361   0.847   3.434  13.553 -0.2905  0.5253  0.0912
12624TIP3   OH259362   4.747   2.435   0.302  0.4804 -0.2370 -0.2927
12624TIP3    H159363   4.732   2.446   0.208  1.6136  1.5349 -0.3018
12624TIP3    H259364   4.745   2.340   0.316  0.0946 -0.5093 -2.0680
12625TIP3   OH259365   2.007   5.212   2.561 -0.0774  0.3361 -0.7299
12625TIP3    H159366   1.984   5.120   2.573  0.2391  0.1317 -1.5774
12625TIP3    H259367   1.937   5.261   2.603 -0.0639 -0.2972  0.0319
12626TIP3   OH259368   2.875   0.910  11.375  0.1322 -0.0917  0.0209
12626TIP3    H159369   2.928   0.919  11.296 -1.0664  0.8821 -0.7130
12626TIP3    H259370   2.797   0.861  11.346 -0.0571 -0.2218  0.7342
12627TIP3   OH259371   6.087   4.364   1.871 -0.1401  0.3974  0.3229
12627TIP3    H159372   6.052   4.284   1.909  1.8574 -1.0253 -0.6662
12627TIP3    H259373   6.033   4.434   1.908 -1.8400 -1.3618  1.3415
12628TIP3   OH259374   1.001   3.826  15.225 -0.2445 -0.1188 -0.0585
12628TIP3    H159375   0.994   3.921  15.233  0.8335 -0.1559  2.3431
12628TIP3    H259376   0.970   3.806  15.137 -1.0883  2.3853 -0.3967
12629TIP3   OH259377   5.360   3.416   5.713  0.3736 -0.5844 -0.1734
12629TIP3    H159378   5.346   3.481   5.782 -0.4518 -0.6413 -0.2741
12629TIP3    H259379   5.440   3.370   5.738  2.3623  2.0175 -1.3011
12630TIP3   OH259380   3.000   3.171  12.894  0.4094 -0.4197 -0.3067
12630TIP3    H159381   3.028   3.261  12.877 -0.8960  0.1691  0.4892
12630TIP3    H259382   3.032   3.152  12.982  0.1692 -0.5008 -0.2339
12631TIP3   OH259383   2.879   3.280  15.497 -0.5398  0.3076  0.1183
12631TIP3    H159384   2.943   3.291  15.427 -0.1272  0.6825  0.5485
12631TIP3    H259385   2.798   3.256  15.452 -0.5204  1.4728 -0.5634
12632TIP3   OH259386   1.233   3.969  11.466  0.7212 -0.0753  0.7767
12632TIP3    H159387   1.214   3.880  11.436 -0.3961  0.1502  0.7725
12632TIP3    H259388   1.257   4.016  11.386  0.3962 -0.1486  0.6331
12633TIP3   OH259389   0.131   1.947  11.957  0.2742  0.7767  0.1443
12633TIP3    H159390   0.184   1.870  11.977 -1.4686 -0.6658 -0.4814
12633TIP3    H259391   0.146   1.964  11.864 -1.1284 -0.3279 -0.3187
12634TIP3   OH259392   5.360   3.328  14.992 -0.2130 -0.2794  0.4343
12634TIP3    H159393   5.339   3.398  14.930 -0.4592  0.3701  1.2223
12634TIP3    H259394   5.337   3.248  14.946 -1.5963  0.2534  0.1391
12635TIP3   OH259395   1.428   3.651   3.451  0.1323  0.6278  0.7545
12635TIP3    H159396   1.492   3.713   3.417 -0.0504  0.5837  0.3114
12635TIP3    H259397   1.345   3.699   3.447  0.2129  0.8724  1.8329
12636TIP3   OH259398   0.047   1.090   5.271 -0.2935  0.6549  0.8895
12636TIP3    H159399   0.049   1.120   5.362 -1.6465 -1.3404  1.6441
12636TIP3    H259400  -0.045   1.094   5.247 -0.0200  0.5865 -0.2049
12637TIP3   OH259401   0.605   4.431  14.058  0.3705 -0.0979  0.6065
12637TIP3    H159402   0.538   4.487  14.099  1.5157  1.1754  0.7926
12637TIP3    H259403   0.658   4.490  14.005  0.3406 -1.3635 -0.9224
12638TIP3   OH259404   6.548   6.425  15.515 -0.4652  0.0918  0.1347
12638TIP3    H159405   6.585   6.501  15.561 -0.5445  0.7264 -0.8115
12638TIP3    H259406   6.570   6.350  15.570  1.6488  0.5140 -0.0279
12639TIP3   OH259407   3.124   4.990  16.468  0.9699 -0.0020 -0.0285
12639TIP3    H159408   3.070   4.913  16.485 -0.8110  1.2362  0.0870
12639TIP3    H259409   3.144   4.984  16.374  0.5925 -0.4481 -0.0854
12640TIP3   OH259410   5.192   0.538  12.018 -0.2739 -0.0966 -0.2833
12640TIP3    H159411   5.150   0.552  11.933  0.6793  1.0267 -0.5887
12640TIP3    H259412   5.217   0.625  12.048  0.6973 -0.6137  0.4822
12641TIP3   OH259413   3.593   4.737  12.653  0.0203  0.0535  0.2658
12641TIP3    H159414   3.573   4.733  12.746 -0.2170  0.2861  0.2278
12641TIP3    H259415   3.603   4.831  12.634  0.0587  0.0093  0.0574
12642TIP3   OH259416   2.022   4.902   0.835 -0.0486 -0.1594 -0.0465
12642TIP3    H159417   1.995   4.906   0.927 -0.4875  1.1564 -0.2048
12642TIP3    H259418   2.000   4.988   0.800 -0.2316 -0.7647 -1.4967
12643TIP3   OH259419   6.698   6.317  14.707 -0.3818 -0.7801  0.3875
12643TIP3    H159420   6.728   6.231  14.680 -0.8646 -0.1883 -2.3099
12643TIP3    H259421   6.742   6.378  14.648 -0.8686  0.7406  1.5249
12644TIP3   OH259422   4.317   4.464   0.351 -0.2454 -0.4162 -0.4685
12644TIP3    H159423   4.226   4.451   0.323 -0.2623  1.3828 -1.3994
12644TIP3    H259424   4.367   4.463   0.270  0.2409  1.0020 -0.2051
12645TIP3   OH259425   6.545   5.491  13.993 -0.4320  0.4826  0.0614
12645TIP3    H159426   6.540   5.430  13.920 -0.3832 -1.1321  1.3480
12645TIP3    H259427   6.635   5.482  14.025 -0.8439  0.1194  1.1626
12646TIP3   OH259428   1.892   0.421  11.035  0.0895 -0.2146 -0.0727
12646TIP3    H159429   1.892   0.360  10.962 -1.7900  2.3415 -2.3766
12646TIP3    H259430   1.982   0.453  11.039  0.7160 -1.8582  0.1701
12647TIP3   OH259431   0.551   3.373   3.617 -0.2438 -0.4455 -0.1329
12647TIP3    H159432   0.552   3.315   3.694 -3.1160 -0.0237  0.3166
12647TIP3    H259433   0.465   3.414   3.619  0.1030  0.6006 -2.8790
12648TIP3   OH259434   5.032   6.120   6.717 -0.0523 -0.1771  0.9006
12648TIP3    H159435   4.968   6.120   6.788  1.6346 -0.3887  2.4732
12648TIP3    H259436   5.004   6.048   6.660 -1.1557 -0.3136  1.5821
12649TIP3   OH259437   2.505   0.189  11.158  0.9182 -0.1270 -0.2817
12649TIP3    H159438   2.498   0.095  11.173 -0.7735  0.0494  0.2859
12649TIP3    H259439   2.443   0.206  11.087 -0.3000  0.8071  0.9473
12650TIP3   OH259440   2.795   4.285   1.735  0.2884 -0.0146  0.2333
12650TIP3    H159441   2.766   4.193   1.738  0.3395 -0.1586 -2.0446
12650TIP3    H259442   2.714   4.334   1.721  0.1678  0.4084  2.1276
12651TIP3   OH259443   0.543   6.200   4.664  0.0057 -0.1074  0.3723
12651TIP3    H159444   0.465   6.193   4.609 -0.0241  0.3567  0.3500
12651TIP3    H259445   0.536   6.128   4.726  0.5600 -1.2909 -0.8917
12652TIP3   OH259446   1.119   1.672  16.268 -0.1077  0.0473  0.5332
12652TIP3    H159447   1.026   1.660  16.287  0.1437  1.9117  3.5088
12652TIP3    H259448   1.122   1.743  16.204 -0.7522 -2.4412 -2.4935
12653TIP3   OH259449   5.869   4.379  13.180 -0.3394  0.0012 -0.0169
12653TIP3    H159450   5.860   4.460  13.130  0.8251 -0.0390 -0.3036
12653TIP3    H259451   5.956   4.384  13.219 -1.4112  0.2963  2.5180
12654TIP3   OH259452   6.811   2.415   3.389 -0.3698 -0.3241  0.4996
12654TIP3    H159453   6.891   2.379   3.428 -1.1685 -0.3509  2.2058
12654TIP3    H259454   6.833   2.506   3.370  0.6383 -0.8026 -0.8472
12655TIP3   OH259455   1.367   5.765  14.483 -0.4878  0.1666 -0.1285
12655TIP3    H159456   1.422   5.838  14.512  0.6640 -0.4343 -0.7298
12655TIP3    H259457   1.384   5.759  14.389 -2.0758  0.3621 -0.4473
12656TIP3   OH259458   1.435   2.863   3.192 -0.3606 -0.3497 -0.5263
12656TIP3    H159459   1.514   2.916   3.190 -1.1431  0.8518 -1.9988
12656TIP3    H259460   1.466   2.772   3.198  1.2911 -0.1322 -3.9119
12657TIP3   OH259461   3.574   1.356  14.443  0.2133  0.2209 -0.4588
12657TIP3    H159462   3.580   1.351  14.538  1.1391  1.2818 -0.4420
12657TIP3    H259463   3.623   1.280  14.412 -0.2923 -0.2600 -0.0921
12658TIP3   OH259464   3.423   2.455   1.208  0.1539  0.4603 -0.2173
12658TIP3    H159465   3.516   2.459   1.185  0.2101  1.9691  0.1061
12658TIP3    H259466   3.412   2.524   1.274 -1.1087 -0.0010  0.0871
12659TIP3   OH259467   2.512   5.399  11.958 -0.1941  0.9359  0.1780
12659TIP3    H159468   2.534   5.349  12.037  1.1927  0.2602 -0.5965
12659TIP3    H259469   2.422   5.430  11.973 -0.5083 -0.4493  1.3558
12660TIP3   OH259470   5.103   1.632  13.929  0.0460 -1.2660  0.1715
12660TIP3    H159471   5.148   1.708  13.891 -0.4925 -0.8918  0.2671
12660TIP3    H259472   5.041   1.604  13.862 -0.1718 -1.2512  0.3628
12661TIP3   OH259473   6.753   4.996   5.963 -0.7591  0.2334  0.3462
12661TIP3    H159474   6.827   5.028   5.912 -1.3914 -0.6042 -1.1840
12661TIP3    H259475   6.677   5.011   5.906 -2.0531  2.5850  2.5243
12662TIP3   OH259476   2.938   2.831  14.022  0.2203 -0.3286  0.3494
12662TIP3    H159477   2.989   2.910  14.005  2.4553 -1.6183  0.6113
12662TIP3    H259478   2.924   2.793  13.935  3.0439 -1.8552  0.4636
12663TIP3   OH259479   5.536   3.011  15.289  0.2555  0.2330  0.3826
12663TIP3    H159480   5.565   3.078  15.227  1.3271  1.9679  2.6300
12663TIP3    H259481   5.616   2.985  15.335 -0.2758 -2.0235  0.1817
12664TIP3   OH259482   3.497   1.706   2.008  0.1902 -0.7572  0.3066
12664TIP3    H159483   3.476   1.649   1.934  1.2309 -0.0640 -0.5639
12664TIP3    H259484   3.587   1.681   2.031  0.3942  0.0310  0.3788
12665TIP3   OH259485   5.477   5.502  11.014 -0.0853 -0.1793 -0.2402
12665TIP3    H159486   5.493   5.431  10.952 -0.7044 -1.1608  0.6924
12665TIP3    H259487   5.563   5.521  11.051  0.1023 -0.3630 -0.5721
12666TIP3   OH259488   5.917   6.389   6.087  0.4677 -0.2877 -0.3602
12666TIP3    H159489   5.988   6.451   6.105 -0.7995  0.2600  3.6332
12666TIP3    H259490   5.844   6.444   6.059  0.7179 -0.5705 -1.6424
12667TIP3   OH259491   6.377   1.466  11.595  0.1955 -0.0173  0.2859
12667TIP3    H159492   6.363   1.443  11.687  0.3888  1.5194  0.7260
12667TIP3    H259493   6.452   1.526  11.597  2.0004 -2.0395 -1.1762
12668TIP3   OH259494   4.236   2.131  12.989 -0.2062 -0.2353  0.2102
12668TIP3    H159495   4.308   2.155  13.048 -0.2968  2.0838 -0.5139
12668TIP3    H259496   4.157   2.153  13.039 -0.3606 -0.6645  0.1586
12669TIP3   OH259497   0.781   5.222   0.150  0.1715 -0.0967  0.2322
12669TIP3    H159498   0.831   5.252   0.226  1.2815  0.0362 -0.5285
12669TIP3    H259499   0.722   5.155   0.184 -0.0470  0.6459  1.3773
12670TIP3   OH259500   2.994   1.442   5.139  0.0946  0.2821  0.2157
12670TIP3    H159501   2.999   1.392   5.058 -2.1229 -0.7972  0.6742
12670TIP3    H259502   2.902   1.437   5.165  0.8888 -0.3089  3.3498
12671TIP3   OH259503   0.453   5.869   0.834  0.8236  0.0137  0.1494
12671TIP3    H159504   0.466   5.952   0.789  1.9118 -0.6899 -0.8927
12671TIP3    H259505   0.502   5.877   0.916  0.6319  0.5211  0.2158
12672TIP3   OH259506   6.024   4.532  16.323  0.3411  0.0118  0.1766
12672TIP3    H159507   5.962   4.551  16.253  0.6029 -0.8261 -0.3025
12672TIP3    H259508   5.990   4.579  16.399  0.5540  1.7127 -0.7282
12673TIP3   OH259509   0.056   3.074  11.146  0.2156 -0.3125  0.0806
12673TIP3    H159510   0.138   3.052  11.189  0.1723  0.3585  0.5207
12673TIP3    H259511   0.036   2.997  11.093  0.7866 -0.7484  0.4765
12674TIP3   OH259512   5.181   6.143  11.352 -0.5599 -0.2096  0.6748
12674TIP3    H159513   5.174   6.075  11.285  0.3762  0.1194  0.2290
12674TIP3    H259514   5.114   6.120  11.416 -3.0163  0.6534 -1.3887
12675TIP3   OH259515   4.504   6.219   5.834  0.1007  0.6949  0.0664
12675TIP3    H159516   4.447   6.290   5.803  0.3827  1.4498  1.2465
12675TIP3    H259517   4.457   6.181   5.908 -0.3200 -0.7572 -0.9037
12676TIP3   OH259518   3.662   2.323  11.815 -0.2869 -0.6350  0.7459
12676TIP3    H159519   3.758   2.317  11.817 -0.3875 -2.9893  0.9426
12676TIP3    H259520   3.633   2.256  11.877 -2.0782  0.3108  0.9836
12677TIP3   OH259521   4.345   1.776  15.126  0.7102  0.0844  0.1530
12677TIP3    H159522   4.260   1.776  15.169  0.6813  0.2580  0.0959
12677TIP3    H259523   4.334   1.719  15.050  0.7045 -0.0623  0.2639
12678TIP3   OH259524   5.857   4.250   4.765  0.0858 -0.0948  0.1420
12678TIP3    H159525   5.847   4.212   4.678 -1.4973  2.1584 -0.7525
12678TIP3    H259526   5.875   4.175   4.822 -2.8324 -2.2199 -1.4678
12679TIP3   OH259527   3.137   6.409   5.563  0.2796  0.0221  0.4529
12679TIP3    H159528   3.114   6.324   5.601  0.5656 -1.1665 -1.8720
12679TIP3    H259529   3.102   6.406   5.474  2.0129  1.5440 -0.3483
12680TIP3   OH259530   0.187   4.043  13.093  0.1068  0.0987 -0.1393
12680TIP3    H159531   0.232   4.119  13.129 -0.8110  0.3295  0.5708
12680TIP3    H259532   0.199   3.975  13.160 -0.4813  0.1285  0.0032
12681TIP3   OH259533   4.004   0.127   2.479  0.2598 -0.0696 -0.1068
12681TIP3    H159534   4.044   0.208   2.511 -0.4199 -0.1179  0.9093
12681TIP3    H259535   3.917   0.153   2.448  0.4908 -0.2174 -0.8951
12682TIP3   OH259536   0.320   2.113  11.208  0.2556  0.0539  0.2324
12682TIP3    H159537   0.300   2.095  11.116 -1.0974 -0.8962  0.6688
12682TIP3    H259538   0.339   2.207  11.211 -0.3003  0.2193 -0.9164
12683TIP3   OH259539   0.379   0.827   3.903 -0.2756 -0.0494  0.4640
12683TIP3    H159540   0.317   0.804   3.833 -1.8547  2.4799  0.8940
12683TIP3    H259541   0.426   0.904   3.869  0.2914  0.0502  1.4379
12684TIP3   OH259542   6.440   1.517  16.858 -0.1445 -0.0609 -0.2137
12684TIP3    H159543   6.462   1.484  16.771 -0.6100 -1.2087  0.0786
12684TIP3    H259544   6.399   1.442  16.902  3.3368 -0.7077  2.2948
12685TIP3   OH259545   2.392   1.422  10.962 -0.2021 -0.8668 -0.6568
12685TIP3    H159546   2.428   1.432  11.050 -1.2631 -0.1947 -0.2921
12685TIP3    H259547   2.439   1.487  10.910 -0.6896 -0.1644 -0.2372
12686TIP3   OH259548   2.224   3.091  13.127  0.7402 -0.3913 -0.4212
12686TIP3    H159549   2.286   3.028  13.089 -1.2682 -1.9457 -1.3432
12686TIP3    H259550   2.153   3.095  13.063 -1.2729 -0.5961  1.6659
12687TIP3   OH259551   2.964   0.155  17.130 -0.1500  0.5520  0.2397
12687TIP3    H159552   2.941   0.086  17.192  0.3222  0.0261 -0.1719
12687TIP3    H259553   2.887   0.213  17.130 -0.7092 -0.1788  0.2832
12688TIP3   OH259554   0.348   1.132  14.616 -0.2175  0.0698 -0.0049
12688TIP3    H159555   0.339   1.223  14.590 -1.1556 -0.0813 -0.2541
12688TIP3    H259556   0.401   1.092  14.546  1.2643  0.6848  0.7497
12689TIP3   OH259557   0.543   4.495  14.358 -0.0022 -0.7132 -0.0788
12689TIP3    H159558   0.628   4.511  14.315  0.1023 -0.7628  0.1119
12689TIP3    H259559   0.545   4.551  14.436  0.1951 -1.3419  0.3722
12690TIP3   OH259560   6.367   2.513  15.100  0.2764 -0.1270  0.0151
12690TIP3    H159561   6.404   2.456  15.167  0.3156 -0.1185  0.0014
12690TIP3    H259562   6.308   2.572  15.147  0.8264  0.3368  0.1413
12691TIP3   OH259563   0.274   5.175   2.475  0.2901 -0.1506 -0.5197
12691TIP3    H159564   0.281   5.134   2.389 -1.6920 -1.8193  0.0259
12691TIP3    H259565   0.180   5.192   2.486  0.4264 -0.4150  1.4984
12692TIP3   OH259566   5.916   4.915   5.253 -0.4875 -0.2604  0.2200
12692TIP3    H159567   5.884   4.978   5.317 -1.7180 -0.8342  0.2005
12692TIP3    H259568   5.973   4.856   5.303  0.4654  0.6823  0.2862
12693TIP3   OH259569   2.760   6.448   4.986  0.6932 -0.3116 -0.5895
12693TIP3    H159570   2.673   6.426   5.020 -0.1175  0.4644 -2.0622
12693TIP3    H259571   2.818   6.383   5.026 -0.4075 -0.3418  1.0803
12694TIP3   OH259572   6.311   0.591  15.418  0.2676  0.1520  0.4670
12694TIP3    H159573   6.287   0.649  15.490  1.5489 -1.3724  2.2207
12694TIP3    H259574   6.405   0.602  15.407  1.2044 -3.6437  2.9730
12695TIP3   OH259575   4.698   4.191  17.138 -0.0761  0.1201  0.5032
12695TIP3    H159576   4.609   4.224  17.121 -0.2183 -1.0344 -1.1866
12695TIP3    H259577   4.756   4.262  17.111 -0.4345 -0.1053 -0.9041
12696TIP3   OH259578   5.530   0.155  11.282  0.2635  0.0927 -0.1268
12696TIP3    H159579   5.579   0.089  11.332  1.3013  1.2208  0.3933
12696TIP3    H259580   5.549   0.135  11.190 -2.5104 -2.6669 -0.2643
12697TIP3   OH259581   4.699   6.784  14.313 -0.3849 -0.1545 -0.3660
12697TIP3    H159582   4.646   6.716  14.273 -0.5395  0.6068 -1.4988
12697TIP3    H259583   4.758   6.813  14.243  0.4911  0.0629  0.4395
12698TIP3   OH259584   4.349   4.465  10.814  0.2888  0.2528  0.0124
12698TIP3    H159585   4.398   4.404  10.869 -0.7320  0.1052  0.7898
12698TIP3    H259586   4.353   4.427  10.726  0.6828 -0.2891  0.2630
12699TIP3   OH259587   0.633   0.512   1.883 -0.2060 -0.0549  0.2367
12699TIP3    H159588   0.583   0.580   1.929  1.5636  0.6274  1.2380
12699TIP3    H259589   0.688   0.560   1.822 -1.4164 -0.8712 -1.5780
12700TIP3   OH259590   0.622   0.250  15.978 -0.6066 -0.0925 -0.2522
12700TIP3    H159591   0.539   0.281  15.942 -0.5224 -0.5634 -0.8650
12700TIP3    H259592   0.606   0.158  15.999 -0.5537  0.0878  0.6117
12701TIP3   OH259593   5.787   4.952   1.880 -0.0870  0.0330 -0.1746
12701TIP3    H159594   5.816   5.041   1.860 -1.3658  0.0470 -2.2618
12701TIP3    H259595   5.756   4.957   1.971 -1.0307  1.9879 -0.5444
12702TIP3   OH259596   5.996   3.830  11.975  0.1785  0.3664 -0.6590
12702TIP3    H159597   5.954   3.911  11.947 -0.2307  1.5223  2.8055
12702TIP3    H259598   5.924   3.771  11.997  0.1995  1.4887  2.9712
12703TIP3   OH259599   3.063   6.608  16.514  0.0139  0.3758  0.3286
12703TIP3    H159600   3.132   6.664  16.550  0.6931  0.2211 -0.6916
12703TIP3    H259601   2.996   6.670  16.485  0.7987  0.6838 -0.8710
12704TIP3   OH259602   5.626   0.216   1.262  0.9878  0.4874 -0.1221
12704TIP3    H159603   5.542   0.254   1.237  0.0623  0.6245  2.7790
12704TIP3    H259604   5.624   0.127   1.226 -0.8199  0.2015  0.5648
12705TIP3   OH259605   3.825   5.982   3.631 -0.2566 -0.7667  0.5210
12705TIP3    H159606   3.895   6.042   3.656 -1.7143  1.2434 -0.0031
12705TIP3    H259607   3.843   5.902   3.680  2.6765 -0.5328  0.0211
12706TIP3   OH259608   4.669   1.424  16.769 -0.0312 -0.1395 -0.5899
12706TIP3    H159609   4.671   1.423  16.674  0.0487  2.1021 -0.6662
12706TIP3    H259610   4.578   1.406  16.791  0.2489 -2.3014 -0.9770
12707TIP3   OH259611   2.995   0.196  14.849  0.5638 -0.1529 -0.3352
12707TIP3    H159612   2.968   0.135  14.780  0.0643 -1.8023  1.2293
12707TIP3    H259613   2.912   0.224  14.889  0.8733  0.1261  0.1145
12708TIP3   OH259614   3.951   4.780  16.232  0.1179  0.4598  0.1303
12708TIP3    H159615   4.044   4.780  16.256 -0.1801  1.0118  1.3483
12708TIP3    H259616   3.919   4.695  16.262 -0.6122  1.7276  3.3673
12709TIP3   OH259617   3.998   6.420  15.335  0.1370  0.1194 -0.3987
12709TIP3    H159618   4.061   6.452  15.271 -0.7253 -0.2836 -1.5015
12709TIP3    H259619   3.920   6.473  15.320 -0.6319 -1.0802 -0.8677
12710TIP3   OH259620   4.025   1.897   1.555  0.0843 -0.2072  0.1992
12710TIP3    H159621   4.076   1.965   1.599 -1.2323  2.5479 -2.1231
12710TIP3    H259622   3.957   1.873   1.618  0.7715  0.4286  1.1967
12711TIP3   OH259623   4.848   2.679   0.844  0.6704 -0.1945  0.2720
12711TIP3    H159624   4.805   2.763   0.861  1.1089  0.1003 -0.0575
12711TIP3    H259625   4.776   2.619   0.824  0.3537  0.0984  0.5181
12712TIP3   OH259626   5.556   0.008   1.484 -0.4924  0.0804  0.3304
12712TIP3    H159627   5.542   0.098   1.452  1.2054  0.5630  0.8814
12712TIP3    H259628   5.590  -0.039   1.408  0.6381  0.4571  0.5894
12713TIP3   OH259629   4.695   6.637   2.342 -0.5511  0.0560  0.1265
12713TIP3    H159630   4.628   6.640   2.274 -0.3367  0.6746 -0.0715
12713TIP3    H259631   4.754   6.711   2.321 -1.5962  1.5563  2.1039
12714TIP3   OH259632   4.902   5.835  16.145 -0.0723 -0.3904  0.2386
12714TIP3    H159633   4.986   5.851  16.189  0.4014 -0.1850 -0.7226
12714TIP3    H259634   4.914   5.750  16.102 -0.0293  0.0494 -0.6409
12715TIP3   OH259635   0.546   4.468   2.525 -0.6915  0.1542  0.2514
12715TIP3    H159636   0.597   4.432   2.452 -1.0004 -1.1105  0.6425
12715TIP3    H259637   0.459   4.483   2.487 -1.1226 -1.3816  0.5602
12716TIP3   OH259638   0.360   1.367   0.090 -0.0474 -0.0352 -0.2339
12716TIP3    H159639   0.306   1.424   0.144  0.2507  0.1312 -0.1093
12716TIP3    H259640   0.310   1.285   0.085 -0.4701  0.2279 -0.4027
12717TIP3   OH259641   4.681   0.247   4.493 -0.4240  0.1541 -0.0985
12717TIP3    H159642   4.590   0.225   4.476 -0.5716 -0.0634  0.9533
12717TIP3    H259643   4.686   0.342   4.483 -0.3478 -0.0021 -2.0091
12718TIP3   OH259644   2.900   2.607  15.169 -0.2706  0.0526 -0.1915
12718TIP3    H159645   2.897   2.562  15.253  0.8988  1.2756  0.5472
12718TIP3    H259646   2.850   2.551  15.110 -0.7601 -1.0464  1.2095
12719TIP3   OH259647   3.365   4.854   2.535  0.4108 -0.3283  0.3930
12719TIP3    H159648   3.367   4.849   2.631  0.4275 -0.6298  0.3779
12719TIP3    H259649   3.289   4.802   2.510 -1.4745  2.2704  0.3907
12720TIP3   OH259650   5.011   4.608  16.864  0.2303 -0.1596 -0.7581
12720TIP3    H159651   4.938   4.669  16.873 -1.2213 -2.0970  1.2031
12720TIP3    H259652   5.089   4.664  16.873 -1.0150  1.5219  0.1401
12721TIP3   OH259653   3.690   5.899   4.331  0.2917 -0.1312 -0.4850
12721TIP3    H159654   3.730   5.952   4.400 -0.8365  0.3193 -0.1554
12721TIP3    H259655   3.761   5.882   4.269  1.0090  0.5565  0.1297
12722TIP3   OH259656   3.843   4.734   3.260  0.1639  0.1336 -0.3397
12722TIP3    H159657   3.786   4.807   3.236 -0.7026 -0.6914 -0.8953
12722TIP3    H259658   3.931   4.770   3.255 -0.2883  1.4101  0.4097
12723TIP3   OH259659   1.139   1.796  12.839 -0.2127  0.2802 -0.1023
12723TIP3    H159660   1.155   1.890  12.843 -1.6104  0.5791 -1.1097
12723TIP3    H259661   1.116   1.772  12.929  1.4586  0.6183  0.4533
12724TIP3   OH259662   3.287   5.733   6.444  0.2261  0.5092 -0.1248
12724TIP3    H159663   3.287   5.687   6.528  0.2534  2.4428  1.0103
12724TIP3    H259664   3.209   5.702   6.399  0.5301 -0.9996  0.3372
12725TIP3   OH259665   4.327   5.475   5.087 -0.3222  0.0055  0.1695
12725TIP3    H159666   4.330   5.380   5.079 -0.9589 -0.4344  3.7083
12725TIP3    H259667   4.380   5.507   5.014 -1.1928 -2.9388 -1.9384
12726TIP3   OH259668   1.711   3.465  14.888  0.0998  0.4916  0.0454
12726TIP3    H159669   1.746   3.510  14.965  1.6347  0.0311 -0.3491
12726TIP3    H259670   1.772   3.488  14.818 -1.3474  1.0070 -1.0773
12727TIP3   OH259671   6.453   3.335  15.364 -0.1998 -0.2255 -0.7243
12727TIP3    H159672   6.507   3.321  15.442  0.7438  3.5212 -0.5233
12727TIP3    H259673   6.495   3.282  15.296  1.4321 -0.3855  0.3499
12728TIP3   OH259674   3.742   0.948  15.581  0.3192  0.1754  0.1775
12728TIP3    H159675   3.651   0.923  15.598 -0.1426  1.1949 -0.6618
12728TIP3    H259676   3.751   1.034  15.623  0.8014  0.2168 -0.0079
12729TIP3   OH259677   5.812   2.202   2.149 -0.0040  0.0420 -0.4080
12729TIP3    H159678   5.878   2.267   2.174 -0.4579  0.5960 -0.6276
12729TIP3    H259679   5.821   2.194   2.054  2.9504 -3.3918 -0.0665
12730TIP3   OH259680   0.690   6.770  13.955  0.0510  0.2334 -0.1085
12730TIP3    H159681   0.610   6.823  13.953 -0.5123 -0.6110 -0.2420
12730TIP3    H259682   0.742   6.809  14.026 -0.5808  0.6417  0.1442
12731TIP3   OH259683   3.696   5.225  15.376 -0.3395 -0.2253  0.5279
12731TIP3    H159684   3.632   5.285  15.337  0.4306 -0.6760 -1.5468
12731TIP3    H259685   3.735   5.180  15.301  2.9419  0.5639  1.6155
12732TIP3   OH259686   5.041   5.314   1.467  0.0239  0.1050  0.1235
12732TIP3    H159687   5.067   5.375   1.397  0.7689  0.4078  0.6462
12732TIP3    H259688   5.070   5.228   1.436  1.1017  0.3500  0.4042
12733TIP3   OH259689   0.896   4.844   3.883 -0.0536  0.0876 -0.0842
12733TIP3    H159690   0.907   4.749   3.884  1.8288  0.1600  3.4833
12733TIP3    H259691   0.980   4.878   3.854 -0.4839  0.6902 -0.6470
12734TIP3   OH259692   3.204   5.699  16.807 -0.3974 -0.2576 -0.8737
12734TIP3    H159693   3.165   5.622  16.766  1.1586 -1.4576 -0.1983
12734TIP3    H259694   3.178   5.694  16.899  0.5607 -0.5637 -0.6132
12735TIP3   OH259695   4.852   1.521  12.106  0.0335 -0.4304  0.0587
12735TIP3    H159696   4.864   1.480  12.192 -0.8022  1.7516  1.3115
12735TIP3    H259697   4.922   1.586  12.101 -0.9292  0.6104 -0.1481
12736TIP3   OH259698   0.640   2.343  17.038 -0.5413 -0.1014 -0.8510
12736TIP3    H159699   0.599   2.367  16.955 -1.3485  0.3607 -0.3407
12736TIP3    H259700   0.585   2.386  17.104  1.0867  0.9663 -0.1536
12737TIP3   OH259701   6.158   2.453   0.160 -0.9336  0.1404  0.2497
12737TIP3    H159702   6.125   2.414   0.241 -0.7487 -0.3256  0.1016
12737TIP3    H259703   6.101   2.529   0.145 -0.8245  0.3660  0.9380
12738TIP3   OH259704   4.882   6.511  17.149  0.4207  0.0576  0.3584
12738TIP3    H159705   4.798   6.557  17.138 -0.8995 -2.0987  0.9088
12738TIP3    H259706   4.882   6.445  17.079  1.9171  0.3615  0.0561
12739TIP3   OH259707   2.578   5.707   6.454 -0.0636  0.0719  0.0926
12739TIP3    H159708   2.491   5.690   6.415 -0.5882  0.2432  1.1562
12739TIP3    H259709   2.599   5.626   6.500 -0.2244  0.4516  0.8539
12740TIP3   OH259710   1.676   5.670  13.926  0.0838 -0.4456  0.3860
12740TIP3    H159711   1.607   5.736  13.938  1.6067  1.3894 -0.4523
12740TIP3    H259712   1.646   5.594  13.976 -2.4003  0.3790  0.2731
12741TIP3   OH259713   0.568   6.049   1.786 -0.6308 -0.3129  0.5053
12741TIP3    H159714   0.545   5.956   1.774  0.5410 -0.4658 -0.7252
12741TIP3    H259715   0.620   6.050   1.866  0.8618 -1.0259 -0.4143
12742TIP3   OH259716   0.406   4.197   0.327 -0.4496  0.8800 -0.0605
12742TIP3    H159717   0.473   4.134   0.354 -0.1477  1.3421  0.2705
12742TIP3    H259718   0.324   4.146   0.326 -0.4801  0.8300  1.6937
12743TIP3   OH259719   5.226   6.532   2.157 -0.2330  0.6789  1.0041
12743TIP3    H159720   5.218   6.519   2.251  0.5228  1.7719  1.2369
12743TIP3    H259721   5.164   6.471   2.119  0.1317 -0.4528  2.1721
12744TIP3   OH259722   2.942   3.463  13.094 -0.2830 -0.3600  0.5489
12744TIP3    H159723   2.947   3.545  13.145  0.0636 -0.4101  0.5941
12744TIP3    H259724   3.007   3.473  13.025  2.0305 -1.8380  2.3460
12745TIP3   OH259725   5.982   0.643   5.105 -0.3579 -0.0208  0.1753
12745TIP3    H159726   5.918   0.681   5.046 -1.4515 -2.7533 -0.5730
12745TIP3    H259727   5.929   0.598   5.172  0.7919 -0.8232  0.5820
12746TIP3   OH259728   2.282   1.662  12.532 -0.0831 -0.8411 -0.4518
12746TIP3    H159729   2.334   1.713  12.595  1.1085 -0.4569 -1.6831
12746TIP3    H259730   2.225   1.608  12.586 -0.3349  0.7243  0.9283
12747TIP3   OH259731   0.858   2.657  10.158  0.1150 -0.6839 -0.4116
12747TIP3    H159732   0.791   2.630  10.222 -0.5649  0.6870 -0.5156
12747TIP3    H259733   0.913   2.579  10.148 -1.6138 -1.9697 -0.5243
12748TIP3   OH259734   3.111   1.187  15.131 -0.0469 -0.5331 -0.5354
12748TIP3    H159735   3.154   1.183  15.045 -0.4084  2.0849 -0.9238
12748TIP3    H259736   3.051   1.113  15.131  0.3597 -0.9159 -2.3260
12749TIP3   OH259737   4.357   3.764  15.494 -0.6720  0.1744 -0.3868
12749TIP3    H159738   4.424   3.758  15.562 -1.2142 -0.7654  0.0814
12749TIP3    H259739   4.404   3.797  15.417  0.2443 -0.0941  0.0435
12750TIP3   OH259740   1.864   4.289  14.113 -0.3993  0.4311 -0.2020
12750TIP3    H159741   1.809   4.362  14.086 -0.4883  0.3804 -0.1549
12750TIP3    H259742   1.891   4.248  14.031  0.5179  1.1525 -0.2929
12751TIP3   OH259743   4.079   0.486  13.205 -0.2593 -0.2281 -0.5424
12751TIP3    H159744   4.026   0.561  13.232 -2.3701 -0.5359 -3.3634
12751TIP3    H259745   4.162   0.524  13.177  0.7641  0.3971  2.8235
12752TIP3   OH259746   2.244   3.588  11.334 -0.1183  0.5121 -0.0745
12752TIP3    H159747   2.182   3.639  11.387 -0.4446 -0.1416  0.1908
12752TIP3    H259748   2.330   3.618  11.363 -0.2960  1.4796 -0.4931
12753TIP3   OH259749   0.509   2.687   2.357 -0.0821  0.2890 -0.3071
12753TIP3    H159750   0.495   2.657   2.447  2.8152 -0.9161 -0.1372
12753TIP3    H259751   0.564   2.764   2.366 -0.1257  0.4061 -1.0379
12754TIP3   OH259752   4.937   0.690   1.494  0.8049  0.5810  0.1375
12754TIP3    H159753   4.964   0.668   1.405  0.5343  0.5166  0.0712
12754TIP3    H259754   4.994   0.763   1.519  2.1373 -0.5565  0.5759
12755TIP3   OH259755   3.410   3.806   1.141  0.5945 -0.3519 -0.1553
12755TIP3    H159756   3.330   3.842   1.179  0.5807  0.8541 -1.2403
12755TIP3    H259757   3.380   3.744   1.075  0.6031 -1.3018  0.7054
12756TIP3   OH259758   1.823   1.783   5.145  0.1708  0.0015 -0.0392
12756TIP3    H159759   1.858   1.719   5.084  1.8199 -0.8946  1.7043
12756TIP3    H259760   1.756   1.736   5.195  0.6668 -0.0845  0.5618
12757TIP3   OH259761   5.444   4.367   5.961 -0.2259  0.2454  0.2883
12757TIP3    H159762   5.475   4.289   5.914  0.3481  0.0324  0.9976
12757TIP3    H259763   5.476   4.440   5.908  3.7579  0.1398  2.1873
12758TIP3   OH259764   5.555   6.509   0.580 -0.0521  0.1168 -0.2039
12758TIP3    H159765   5.571   6.416   0.600 -0.2072 -0.4347 -2.3979
12758TIP3    H259766   5.613   6.556   0.639 -0.6235 -1.3074  1.6102
12759TIP3   OH259767   5.096   2.738  12.696  0.1943 -0.2283 -0.2301
12759TIP3    H159768   5.071   2.777  12.780 -0.8450  0.7865 -0.9709
12759TIP3    H259769   5.134   2.653  12.719 -0.6927 -0.2686  1.2113
12760TIP3   OH259770   6.689   0.382   2.697 -0.0800  0.1100 -0.1332
12760TIP3    H159771   6.702   0.468   2.657  0.0029  0.7159  1.1555
12760TIP3    H259772   6.768   0.332   2.674  1.9673  1.7983  2.6225
12761TIP3   OH259773   1.220   1.513   4.402 -0.2019  0.0563 -0.1651
12761TIP3    H159774   1.156   1.535   4.334 -1.0699 -1.3525  0.1710
12761TIP3    H259775   1.173   1.457   4.463  1.1896 -0.5562  0.3931
12762TIP3   OH259776   4.425   3.070  17.247 -0.6383  0.0282 -0.0409
12762TIP3    H159777   4.334   3.081  17.222 -0.5651  0.3145 -0.1795
12762TIP3    H259778   4.455   3.157  17.271  0.2529  0.3938 -2.2286
12763TIP3   OH259779   0.045   5.516   5.970 -0.3354 -0.3207  0.2774
12763TIP3    H159780   0.069   5.470   5.890 -0.0996 -1.2732  0.8782
12763TIP3    H259781   0.100   5.594   5.971  0.0348 -0.5763 -0.2282
12764TIP3   OH259782   0.801   3.752  15.817 -0.3558  0.5372 -0.4110
12764TIP3    H159783   0.895   3.762  15.801  0.0661 -0.5643  1.1244
12764TIP3    H259784   0.770   3.842  15.831  0.8813  0.7980  0.9654
12765TIP3   OH259785   6.163   6.111  15.431 -0.0265  0.1947  0.0318
12765TIP3    H159786   6.167   6.186  15.490  1.6523  1.4724 -1.5928
12765TIP3    H259787   6.254   6.083  15.422 -0.2791 -0.1292 -1.7152
12766TIP3   OH259788   0.920   5.985  14.185  0.0514 -1.1364  0.0628
12766TIP3    H159789   0.893   6.018  14.271  0.0740  2.4821 -1.1650
12766TIP3    H259790   0.848   5.928  14.157  0.3005 -2.8570  2.6106
12767TIP3   OH259791   3.983   6.500  16.028  0.4511 -0.3553  0.1393
12767TIP3    H159792   3.977   6.596  16.026  1.2107 -0.2760 -2.4768
12767TIP3    H259793   4.076   6.483  16.042  0.0883 -0.8057  2.3555
12768TIP3   OH259794   5.147   0.598  15.019  0.4322 -0.3250  0.1571
12768TIP3    H159795   5.189   0.560  14.942 -1.2532  1.5154 -1.8212
12768TIP3    H259796   5.088   0.530  15.051  0.5816 -0.8601 -0.6833
12769TIP3   OH259797   3.284   5.965  16.755 -0.7840 -0.5587 -0.1525
12769TIP3    H159798   3.281   5.871  16.768  0.3046 -0.5367  0.3943
12769TIP3    H259799   3.319   5.976  16.666  0.2998 -0.6875  0.2356
12770TIP3   OH259800   0.235   1.212   5.112  0.1323 -0.8819 -0.3751
12770TIP3    H159801   0.309   1.151   5.120 -0.3966 -1.4195  0.5401
12770TIP3    H259802   0.182   1.195   5.190 -0.4248  0.2209 -0.5088
12771TIP3   OH259803   3.022   6.165   3.171 -0.0692 -0.5810  0.3290
12771TIP3    H159804   2.942   6.161   3.223 -0.1954 -1.1546  0.0952
12771TIP3    H259805   2.993   6.152   3.081  0.3125 -1.0741  0.2709
12772TIP3   OH259806   3.523   5.330  13.462  0.6239  0.0147 -0.5898
12772TIP3    H159807   3.485   5.409  13.500  0.0990  0.8039 -2.6307
12772TIP3    H259808   3.478   5.258  13.505  2.4898  0.6370  2.7977
12773TIP3   OH259809   3.328   0.940   0.363 -0.2997 -0.3464  0.3054
12773TIP3    H159810   3.265   0.929   0.292 -0.6331 -0.2132  0.5813
12773TIP3    H259811   3.292   1.010   0.417  0.2736 -0.0052  0.2542
12774TIP3   OH259812   0.044   6.451   2.735  0.2073  0.2351  0.4402
12774TIP3    H159813  -0.028   6.492   2.783  0.7700  0.1176  1.4257
12774TIP3    H259814   0.002   6.399   2.667 -0.6104  0.6204  0.6406
12775TIP3   OH259815   0.512   3.124  12.508  0.6505  0.6220 -0.1225
12775TIP3    H159816   0.550   3.104  12.422 -0.0421  0.1033 -0.3139
12775TIP3    H259817   0.583   3.108  12.570  1.2074  1.1506 -0.6020
12776TIP3   OH259818   1.243   4.588  13.751 -0.7171  0.0022  0.2561
12776TIP3    H159819   1.300   4.658  13.783 -0.1434  0.0750 -0.8596
12776TIP3    H259820   1.274   4.570  13.662 -0.5238 -2.0363  0.6827
12777TIP3   OH259821   4.029   0.876  12.905 -0.1805 -0.4323 -0.0493
12777TIP3    H159822   3.990   0.959  12.874 -0.5652 -0.4172  0.4670
12777TIP3    H259823   4.098   0.858  12.842  0.4818  0.7344  0.3027
12778TIP3   OH259824   2.469   2.581   6.282 -0.0984 -0.0378  0.1002
12778TIP3    H159825   2.513   2.665   6.297 -2.4327  1.4725 -0.9155
12778TIP3    H259826   2.400   2.601   6.219 -1.0006 -2.6583  0.1447
12779TIP3   OH259827   5.803   4.878   4.650 -0.1030 -0.6119  0.2290
12779TIP3    H159828   5.758   4.883   4.566  0.9854 -2.8106 -0.5548
12779TIP3    H259829   5.782   4.961   4.694 -0.7519  0.5588 -2.1513
12780TIP3   OH259830   1.379   2.750  14.736  0.2032  0.3588 -0.1378
12780TIP3    H159831   1.415   2.722  14.821 -0.3666  1.1773  0.3985
12780TIP3    H259832   1.337   2.672  14.700  0.2780  0.0469  0.4314
12781TIP3   OH259833   2.397   5.881   0.386  0.0978  0.3587 -0.1894
12781TIP3    H159834   2.449   5.939   0.330  1.7898 -1.9323 -1.1500
12781TIP3    H259835   2.441   5.885   0.471  1.2674 -0.7244 -0.7062
12782TIP3   OH259836   4.618   4.557  15.606 -0.0400 -0.7733 -0.5137
12782TIP3    H159837   4.620   4.636  15.553  0.0203 -0.5087 -0.1157
12782TIP3    H259838   4.582   4.585  15.690  2.7157 -0.5300  0.6811
12783TIP3   OH259839   6.409   3.532   6.238  0.3331 -0.1542 -0.3187
12783TIP3    H159840   6.349   3.506   6.308 -1.1042 -0.2811 -1.5248
12783TIP3    H259841   6.496   3.531   6.278 -0.0843 -2.9698  0.7588
12784TIP3   OH259842   0.592   2.634  15.469 -0.0142  0.7897 -0.8000
12784TIP3    H159843   0.520   2.668  15.522 -0.3315  0.2421 -0.8773
12784TIP3    H259844   0.671   2.673  15.508  0.4874 -3.5970  3.6111
12785TIP3   OH259845   5.927   0.927  16.454  0.1682 -0.8126 -0.2671
12785TIP3    H159846   5.839   0.952  16.426  0.5903  0.5607 -0.4481
12785TIP3    H259847   5.954   0.859  16.392 -0.9716 -1.6575  0.1464
12786TIP3   OH259848   1.866   0.606  16.373  0.5047 -0.3341 -0.2547
12786TIP3    H159849   1.794   0.664  16.347  0.1182 -0.9274 -0.5066
12786TIP3    H259850   1.918   0.597  16.293  1.5328  1.0380  0.2157
12787TIP3   OH259851   4.365   4.451   1.684  0.2534  0.0928  0.3703
12787TIP3    H159852   4.420   4.524   1.657 -0.3836  0.1787 -0.7604
12787TIP3    H259853   4.281   4.491   1.705 -0.4791 -0.4012 -1.4090
12788TIP3   OH259854   4.121   3.654   3.038 -0.2786  0.4661 -0.2575
12788TIP3    H159855   4.071   3.575   3.056 -1.4060  1.3832  0.7901
12788TIP3    H259856   4.056   3.719   3.012  0.3889  1.5596  0.6985
12789TIP3   OH259857   3.788   4.371  14.158 -0.5246 -0.1469 -0.1793
12789TIP3    H159858   3.849   4.390  14.087  0.0456  0.2642  0.4092
12789TIP3    H259859   3.775   4.455  14.202 -1.3941 -0.2593 -0.1946
12790TIP3   OH259860   5.135   3.009   4.005 -0.4685 -0.0792 -0.4478
12790TIP3    H159861   5.171   2.975   4.087 -0.1929  1.1736 -0.0222
12790TIP3    H259862   5.178   3.094   3.994 -2.0832  0.7272 -0.7721
12791TIP3   OH259863   2.562   5.605   5.775  0.0310  0.5395 -0.2944
12791TIP3    H159864   2.558   5.525   5.722 -1.0580  0.3893 -0.0241
12791TIP3    H259865   2.578   5.573   5.864  0.2340  0.6733 -0.2831
12792TIP3   OH259866   2.574   2.811  17.199  0.5860  0.1260  0.0242
12792TIP3    H159867   2.482   2.812  17.222  0.6709  1.2512  0.3691
12792TIP3    H259868   2.577   2.771  17.112 -0.3246  0.9302 -0.3886
12793TIP3   OH259869   6.543   3.893  14.891 -0.1349 -0.4632 -0.3846
12793TIP3    H159870   6.573   3.927  14.975 -0.4713  0.0139 -0.4489
12793TIP3    H259871   6.621   3.893  14.835 -0.4187  1.7221 -0.8605
12794TIP3   OH259872   0.044   2.782  11.635 -0.0593 -0.2592  0.1480
12794TIP3    H159873  -0.001   2.866  11.648 -1.4866 -0.7920 -1.0546
12794TIP3    H259874   0.107   2.799  11.565 -1.3757 -0.4872 -1.1592
12795TIP3   OH259875   0.982   1.028   4.202  0.0578  0.5409  0.2024
12795TIP3    H159876   0.967   1.019   4.296  1.2401 -1.6521  0.2466
12795TIP3    H259877   1.030   0.949   4.178 -1.7593  0.1462 -2.5775
12796TIP3   OH259878   5.647   3.382   2.946 -0.7092 -0.3012 -0.7292
12796TIP3    H159879   5.587   3.382   3.021 -0.8513  0.6448 -0.8310
12796TIP3    H259880   5.596   3.342   2.876 -0.2147 -2.1896 -0.0734
12797TIP3   OH259881   4.756   5.528  15.237  0.1187 -0.1464  0.0793
12797TIP3    H159882   4.725   5.492  15.319 -2.8073  0.5605 -0.6148
12797TIP3    H259883   4.782   5.452  15.185 -3.3287 -1.1950 -0.3490
12798TIP3   OH259884   6.723   6.370   2.484  0.3479 -0.0860 -0.6940
12798TIP3    H159885   6.674   6.451   2.498  1.5136  0.7909 -1.4390
12798TIP3    H259886   6.678   6.305   2.537 -0.2149  1.2064  0.4681
12799TIP3   OH259887   5.547   3.220  13.451  0.5888 -0.2327 -0.1003
12799TIP3    H159888   5.460   3.221  13.490  1.4483  0.1511  1.9348
12799TIP3    H259889   5.550   3.298  13.396  0.2069  0.6974  1.1618
12800TIP3   OH259890   2.130   0.820  12.613 -0.6370  0.2884 -0.4192
12800TIP3    H159891   2.158   0.765  12.540  1.1388  0.0538  0.3730
12800TIP3    H259892   2.190   0.895  12.611 -3.4484  2.7109 -1.9337
12801TIP3   OH259893   3.058   4.412  11.330  0.0532 -0.3211 -0.1089
12801TIP3    H159894   3.007   4.331  11.331  0.4912 -0.6046 -0.5609
12801TIP3    H259895   3.048   4.447  11.418  2.3717 -2.4546  1.1239
12802TIP3   OH259896   5.324   3.902  10.899  0.2359  0.2678  0.1808
12802TIP3    H159897   5.399   3.952  10.866 -1.1590  1.6422 -1.0424
12802TIP3    H259898   5.329   3.818  10.853  2.8217 -1.0386  2.5375
12803TIP3   OH259899   6.489   2.327  15.352  0.0630  1.1578  0.2627
12803TIP3    H159900   6.516   2.355  15.439 -3.0919  0.8306  1.4656
12803TIP3    H259901   6.394   2.331  15.353 -0.2660 -1.8439 -2.1407
12804TIP3   OH259902   2.897   5.444  12.992  0.2153 -0.2153 -0.1512
12804TIP3    H159903   2.904   5.404  12.905 -1.0815 -1.1186  0.1241
12804TIP3    H259904   2.966   5.403  13.043 -0.4563 -1.3938 -0.1567
12805TIP3   OH259905   4.034   2.759   0.799 -0.2693  0.3626  0.3632
12805TIP3    H159906   3.990   2.705   0.733  0.5714  1.3621 -1.0734
12805TIP3    H259907   4.122   2.771   0.764  0.3455  0.5688  1.9081
12806TIP3   OH259908   2.080   2.232  16.910  0.5421  0.0273 -0.1419
12806TIP3    H159909   2.099   2.170  16.839  1.3267  0.7836 -0.6149
12806TIP3    H259910   2.094   2.318  16.871  1.3794  0.4484  1.0366
12807TIP3   OH259911   0.159   4.831   3.417  0.2871 -0.2150 -0.0512
12807TIP3    H159912   0.077   4.789   3.444  1.4014 -2.3861  0.1373
12807TIP3    H259913   0.158   4.916   3.462 -2.5553  0.5418 -1.2787
12808TIP3   OH259914   2.010   1.273  14.013  0.2334 -0.0192  0.7159
12808TIP3    H159915   1.952   1.203  14.042 -0.3661  0.2578  0.2164
12808TIP3    H259916   1.959   1.320  13.947  1.6993 -0.9130 -1.1369
12809TIP3   OH259917   1.496   5.194  13.181  0.4619 -0.3085  0.5579
12809TIP3    H159918   1.501   5.099  13.190  0.7859 -0.3867 -0.3161
12809TIP3    H259919   1.479   5.208  13.088  1.4653  0.5182  0.4849
12810TIP3   OH259920   1.744   3.473  14.324  1.0977 -0.1431 -0.6168
12810TIP3    H159921   1.751   3.431  14.409 -0.0737 -1.2168 -1.0232
12810TIP3    H259922   1.815   3.538  14.323  1.4614 -0.4905  0.9424
12811TIP3   OH259923   5.385   4.941   1.857 -0.1918 -0.1435  0.5782
12811TIP3    H159924   5.319   4.873   1.871 -0.6159  0.1856  0.2046
12811TIP3    H259925   5.377   4.964   1.764 -0.1319  0.5004  0.7291
12812TIP3   OH259926   5.020   4.750   1.248 -0.5333  0.6149  0.0585
12812TIP3    H159927   4.993   4.841   1.258 -2.1005  0.1652  0.1681
12812TIP3    H259928   4.967   4.717   1.175 -1.4042 -0.7076  1.2260
12813TIP3   OH259929   2.067   3.707   1.985 -0.1518 -0.5051  0.0029
12813TIP3    H159930   2.089   3.647   2.057  2.5835 -1.3207 -1.3627
12813TIP3    H259931   2.060   3.650   1.909  0.4973  0.6945 -0.9857
12814TIP3   OH259932   1.893   0.327   3.296  0.0137  0.2496  0.1235
12814TIP3    H159933   1.895   0.302   3.204 -2.0623  0.2074  0.0585
12814TIP3    H259934   1.952   0.402   3.301  0.9378 -0.3498 -1.0141
12815TIP3   OH259935   3.708   4.621  14.284 -0.0150  0.3362 -0.0734
12815TIP3    H159936   3.791   4.617  14.332 -0.0085 -1.0466 -0.1559
12815TIP3    H259937   3.641   4.609  14.351 -0.0598 -0.2854 -0.2203
12816TIP3   OH259938   5.544   2.218  13.727  0.2822  0.3491 -0.0876
12816TIP3    H159939   5.461   2.247  13.765  0.2059 -1.2081  1.0059
12816TIP3    H259940   5.573   2.146  13.783  1.9826  0.3377 -0.9141
12817TIP3   OH259941   5.511   3.352   6.154 -0.4445 -0.2078 -0.0780
12817TIP3    H159942   5.459   3.288   6.105  0.6530 -0.6807 -0.6709
12817TIP3    H259943   5.581   3.300   6.193  0.4969  0.6257 -0.6181
12818TIP3   OH259944   3.583   1.971  15.076  0.3317 -0.0853 -0.2716
12818TIP3    H159945   3.618   1.883  15.068  0.1982 -0.0378 -1.6043
12818TIP3    H259946   3.491   1.958  15.102 -0.5039 -0.5092 -3.0905
12819TIP3   OH259947   5.778   4.729  12.017 -1.0011  0.0276  0.7558
12819TIP3    H159948   5.766   4.774  12.101 -0.0817  0.2133  0.8052
12819TIP3    H259949   5.842   4.660  12.036 -0.5340  0.2854  0.1384
12820TIP3   OH259950   4.656   6.546   6.290 -0.2808  0.4633  0.0419
12820TIP3    H159951   4.665   6.468   6.345  2.4129  1.3742  1.0785
12820TIP3    H259952   4.631   6.616   6.351  2.6096  1.4582  0.2227
12821TIP3   OH259953   4.327   5.025  10.677 -0.1980  0.3899 -0.9822
12821TIP3    H159954   4.299   5.079  10.603 -1.1463  1.4020  0.0821
12821TIP3    H259955   4.398   5.076  10.718  0.3708 -0.1968 -1.2206
12822TIP3   OH259956   3.147   5.627  10.486  0.1097 -0.3764  0.0046
12822TIP3    H159957   3.184   5.714  10.475  0.7930 -0.6071  0.4162
12822TIP3    H259958   3.082   5.619  10.416  1.4971 -0.3205 -1.3439
12823TIP3   OH259959   6.317   6.180  13.766 -0.0518 -0.1433 -0.4819
12823TIP3    H159960   6.345   6.210  13.679  0.9994 -1.3929 -0.6014
12823TIP3    H259961   6.225   6.156  13.755 -0.1182  0.3450 -1.0663
12824TIP3   OH259962   4.875   4.536   4.244  0.3143  0.2728 -0.6392
12824TIP3    H159963   4.870   4.509   4.153 -0.1009 -3.1624  0.2608
12824TIP3    H259964   4.785   4.561   4.266  0.3436  0.7594 -1.0520
12825TIP3   OH259965   0.262   3.475   2.415 -0.3586 -0.5199  0.3513
12825TIP3    H159966   0.346   3.437   2.443 -0.6211 -0.9500  0.5529
12825TIP3    H259967   0.274   3.570   2.427  0.8864 -0.3503 -1.7014
12826TIP3   OH259968   1.551   6.491   1.223 -0.3529 -0.0250  0.2816
12826TIP3    H159969   1.544   6.436   1.145  0.7185  0.8207 -0.4469
12826TIP3    H259970   1.640   6.475   1.255  0.4559  2.1702 -0.6758
12827TIP3   OH259971   0.710   6.136  15.608 -0.0454  0.6338 -0.1815
12827TIP3    H159972   0.797   6.120  15.644 -0.0133  0.3813 -0.3699
12827TIP3    H259973   0.725   6.151  15.515  0.0001  2.3919  0.0715
12828TIP3   OH259974   0.515   5.801   5.379 -0.2967  0.9723 -0.7614
12828TIP3    H159975   0.450   5.870   5.399  1.4628  2.6191 -0.4185
12828TIP3    H259976   0.506   5.787   5.285 -0.5854  1.8142 -0.8726
12829TIP3   OH259977   0.236   3.654   3.391  0.2768 -0.3963  0.1337
12829TIP3    H159978   0.189   3.676   3.311  0.7230 -1.9440 -0.5852
12829TIP3    H259979   0.221   3.729   3.449  0.9187  1.3300 -1.8023
12830TIP3   OH259980   4.900   1.738   0.581  0.8367 -0.4788  0.6292
12830TIP3    H159981   4.911   1.770   0.671  1.3781 -0.0255  0.4073
12830TIP3    H259982   4.985   1.703   0.557  1.4203  1.5439 -0.5240
12831TIP3   OH259983   4.775   1.933  15.859  0.0083 -0.3775 -0.1674
12831TIP3    H159984   4.742   1.897  15.942  0.0032  0.0902  0.0364
12831TIP3    H259985   4.802   2.022  15.881 -0.8228  0.0647 -0.8617
12832TIP3   OH259986   1.288   6.109  17.227  0.5179 -0.2491 -0.3459
12832TIP3    H159987   1.341   6.173  17.180  0.1141 -0.8351 -1.6484
12832TIP3    H259988   1.211   6.157  17.255  0.0433 -0.2320 -1.6317
12833TIP3   OH259989   5.378   5.042  12.228 -0.2782 -0.5818 -0.1028
12833TIP3    H159990   5.370   5.137  12.229 -1.4864 -0.6643 -0.1007
12833TIP3    H259991   5.421   5.022  12.145 -0.9787 -0.0857 -0.5919
12834TIP3   OH259992   1.943   1.065  12.096  0.3101  0.6427  0.7248
12834TIP3    H159993   1.982   0.991  12.144 -3.0472 -2.1590 -0.3776
12834TIP3    H259994   1.866   1.089  12.148 -0.4834  1.0840 -0.5998
12835TIP3   OH259995   6.142   3.227   5.510  0.2511  0.2652 -0.4372
12835TIP3    H159996   6.195   3.150   5.491  0.7112 -0.2253  2.3292
12835TIP3    H259997   6.204   3.293   5.540 -0.4733  0.1633  1.4627
12836TIP3   OH259998   2.968   5.683   2.438 -0.6237 -0.4501 -0.0650
12836TIP3    H159999   2.981   5.633   2.358  2.1302 -3.0629  1.7769
12836TIP3    H260000   3.055   5.718   2.459 -1.6400  1.7021  0.9296
12837TIP3   OH260001   0.215   6.076   6.084 -0.6055  0.2249 -0.3392
12837TIP3    H160002   0.209   6.079   5.988 -2.0057 -0.3235 -0.2985
12837TIP3    H260003   0.293   6.024   6.101 -0.6494 -0.1551 -1.2037
12838TIP3   OH260004   2.011   1.931   3.370  0.0626 -0.5894 -0.0879
12838TIP3    H160005   2.012   1.990   3.295  2.9362 -1.6330 -0.9872
12838TIP3    H260006   1.928   1.884   3.362 -1.4016  1.8959 -0.4324
12839TIP3   OH260007   2.433   4.488   3.700 -0.1003 -0.5591  1.0013
12839TIP3    H160008   2.351   4.499   3.653  0.2376  1.8055  0.8178
12839TIP3    H260009   2.475   4.413   3.658 -0.6026  0.3739 -1.3518
12840TIP3   OH260010   0.569   3.354  13.352 -0.1519  0.0711 -0.1426
12840TIP3    H160011   0.655   3.391  13.371  0.8622 -2.2296  0.0445
12840TIP3    H260012   0.534   3.328  13.438  0.4728 -2.0259 -0.4611
12841TIP3   OH260013   4.949   2.348  13.262  0.3971 -0.4145 -0.2597
12841TIP3    H160014   4.974   2.433  13.298 -0.1056  0.2352 -1.3774
12841TIP3    H260015   4.912   2.369  13.176 -0.1675 -1.7251 -0.3548
12842TIP3   OH260016   6.573   4.446  15.731  0.1639  0.0583  0.1043
12842TIP3    H160017   6.543   4.446  15.640 -1.2455 -2.2656  0.4926
12842TIP3    H260018   6.497   4.473  15.782  0.1667 -1.1380  0.7653
12843TIP3   OH260019   5.148   5.184   0.018  0.0040  0.0215 -0.1656
12843TIP3    H160020   5.061   5.154  -0.009 -0.5648  0.8546  0.6599
12843TIP3    H260021   5.201   5.104   0.021 -0.7998 -0.5384 -0.4430
12844TIP3   OH260022   1.564   1.111  16.350 -0.3115 -0.4533 -0.0242
12844TIP3    H160023   1.471   1.089  16.348 -0.3492 -0.2962  0.0088
12844TIP3    H260024   1.586   1.132  16.260 -0.5743  0.6126  0.1472
12845TIP3   OH260025   1.973   1.820   1.474  0.5322  0.7489 -0.1901
12845TIP3    H160026   2.043   1.792   1.533 -0.7843 -0.6813  0.7885
12845TIP3    H260027   1.899   1.836   1.532 -0.2574  1.1732 -1.2955
12846TIP3   OH260028   5.827   6.080   4.220 -0.3297 -0.2140  0.3942
12846TIP3    H160029   5.796   6.063   4.309  1.3512 -0.6918  0.9117
12846TIP3    H260030   5.916   6.113   4.231 -0.2979  0.2607 -1.0858
12847TIP3   OH260031   2.494   2.859  15.497  0.1104  0.5054  0.1487
12847TIP3    H160032   2.505   2.953  15.489  0.3554  0.4297 -0.4830
12847TIP3    H260033   2.569   2.830  15.548 -0.2454  0.7114  0.8043
12848TIP3   OH260034   0.437   6.011  12.632  0.7515  0.7009  0.4701
12848TIP3    H160035   0.437   5.991  12.726  4.2685 -2.1517  0.0873
12848TIP3    H260036   0.476   6.098  12.626  1.3817  0.5109  1.6171
12849TIP3   OH260037   6.642   2.559  15.774  0.0611  0.5682  0.1365
12849TIP3    H160038   6.575   2.505  15.732 -0.6654  1.0944  0.5946
12849TIP3    H260039   6.695   2.496  15.824  0.0058  0.1301 -0.3528
12850TIP3   OH260040   1.457   0.335  10.775  0.0062 -0.0925  0.1537
12850TIP3    H160041   1.378   0.290  10.745  0.5497 -1.3025  0.4904
12850TIP3    H260042   1.513   0.340  10.697 -0.1907  0.3415  0.0323
12851TIP3   OH260043   0.572   4.459   1.671 -0.0329 -0.2184  0.0172
12851TIP3    H160044   0.663   4.461   1.641  0.4146 -0.4423  1.2637
12851TIP3    H260045   0.575   4.405   1.750 -1.0691  0.6161  0.6549
12852TIP3   OH260046   5.570   2.478   6.494  0.0252  0.2680  0.2234
12852TIP3    H160047   5.557   2.395   6.448  0.1578  1.5578 -2.3432
12852TIP3    H260048   5.494   2.530   6.469 -0.2182  0.8507  2.0621
12853TIP3   OH260049   4.549   4.397  14.219  0.5310  0.0718  0.1852
12853TIP3    H160050   4.527   4.374  14.310 -0.9398  1.2460  0.1741
12853TIP3    H260051   4.642   4.419  14.222  0.0301  2.2923  1.9296
12854TIP3   OH260052   1.515   4.187  14.418  0.1349  0.1542 -0.2624
12854TIP3    H160053   1.448   4.118  14.425 -1.9406  2.2653  3.8016
12854TIP3    H260054   1.588   4.155  14.471 -0.1555  0.3690  0.2718
12855TIP3   OH260055   1.342   0.176   2.254 -0.0765 -0.0300 -0.0618
12855TIP3    H160056   1.311   0.153   2.341  0.5767  1.1708  0.5104
12855TIP3    H260057   1.433   0.149   2.252  0.5009  1.7543  0.3776
12856TIP3   OH260058   3.806   2.244  16.398  0.1216  0.3378 -0.6307
12856TIP3    H160059   3.886   2.193  16.392 -0.7332 -1.1788  0.1283
12856TIP3    H260060   3.774   2.228  16.487 -1.6019 -0.0781 -1.2706
12857TIP3   OH260061   5.716   1.369  14.313 -0.0104  0.3431  0.0810
12857TIP3    H160062   5.664   1.312  14.256  0.1585  0.2597  0.0086
12857TIP3    H260063   5.702   1.334  14.401  0.3445 -0.0116  0.0023
12858TIP3   OH260064   6.756   4.855  15.446 -0.1780  0.4010 -0.3288
12858TIP3    H160065   6.707   4.937  15.456  1.2262  1.2166  0.2522
12858TIP3    H260066   6.815   4.853  15.522  1.8664  0.3464 -1.8219
12859TIP3   OH260067   1.088   3.118   5.070 -0.3837 -0.2988 -0.0143
12859TIP3    H160068   1.178   3.129   5.041 -0.3953 -0.6773 -0.1940
12859TIP3    H260069   1.038   3.184   5.022 -0.1893 -0.0233  0.1606
12860TIP3   OH260070   5.861   6.251  15.706  0.2341 -0.0769  0.1519
12860TIP3    H160071   5.870   6.161  15.738 -2.5338 -0.1774  0.8707
12860TIP3    H260072   5.948   6.289  15.718  1.5131 -2.6591 -0.2752
12861TIP3   OH260073   3.428   6.505   6.185  0.8584  0.2911 -0.2109
12861TIP3    H160074   3.500   6.455   6.144  1.7498  1.0127  0.4375
12861TIP3    H260075   3.452   6.596   6.171  0.8458  0.5529  1.3134
12862TIP3   OH260076   5.702   6.471  14.689  0.5173  0.5330  0.4005
12862TIP3    H160077   5.685   6.499  14.599  0.3735  2.1537  0.9040
12862TIP3    H260078   5.797   6.473  14.697  0.5748 -0.3497  0.0828
12863TIP3   OH260079   2.174   4.082  13.090  0.8946 -0.3582  0.0879
12863TIP3    H160080   2.081   4.072  13.112  0.6564  1.1022 -0.1877
12863TIP3    H260081   2.182   4.045  13.002  0.5027 -0.1502 -0.0372
12864TIP3   OH260082   4.548   0.459  16.869 -0.0595  0.4222  0.0824
12864TIP3    H160083   4.534   0.365  16.870  2.4093 -0.0945 -2.2434
12864TIP3    H260084   4.460   0.497  16.865 -1.0751 -1.7917  0.2002
12865TIP3   OH260085   1.560   2.660  10.975  0.5988  0.2990 -0.2345
12865TIP3    H160086   1.620   2.624  10.910 -0.3885 -0.5500 -0.6867
12865TIP3    H260087   1.497   2.711  10.925  1.3593  1.8679  0.3084
12866TIP3   OH260088   0.083   5.455  13.337 -0.3064 -0.2508  0.1865
12866TIP3    H160089   0.113   5.436  13.426  1.6257  0.6153 -0.2355
12866TIP3    H260090  -0.013   5.462  13.344 -0.4688 -2.8621  1.6688
12867TIP3   OH260091   5.907   2.880   2.670  0.2132 -0.1962 -0.6402
12867TIP3    H160092   5.972   2.926   2.724  0.4034  0.7556 -1.6404
12867TIP3    H260093   5.886   2.942   2.601 -0.1854 -1.3026 -1.5348
12868TIP3   OH260094   5.501   4.299  11.656  0.0399  0.1002  0.2990
12868TIP3    H160095   5.451   4.217  11.652  0.1820  0.0200  0.1885
12868TIP3    H260096   5.491   4.338  11.569  4.0077 -2.1483 -1.3888
12869TIP3   OH260097   5.645   6.631   4.963 -0.0754  0.1465 -0.4146
12869TIP3    H160098   5.604   6.560   5.013 -0.1060  1.9036  2.2439
12869TIP3    H260099   5.738   6.612   4.966 -0.1900 -0.5708 -1.0726
12870TIP3   OH260100   1.016   5.623   3.609  0.4101  0.6958  0.2424
12870TIP3    H160101   0.953   5.693   3.593  0.6919  0.5837 -1.6174
12870TIP3    H260102   1.027   5.581   3.524 -0.2999 -2.1123  1.4399
12871TIP3   OH260103   5.032   3.924   1.612  0.0696 -0.0725 -0.0515
12871TIP3    H160104   5.108   3.938   1.668 -0.9129  0.7061  1.1594
12871TIP3    H260105   4.984   3.853   1.655 -0.5299  0.3133 -0.0628
12872TIP3   OH260106   4.456   1.097  16.371  0.1548 -0.4312  0.0214
12872TIP3    H160107   4.480   1.020  16.320 -2.6341  0.3979 -2.8862
12872TIP3    H260108   4.409   1.062  16.446  1.3089 -1.6058  0.2303
12873TIP3   OH260109   4.704   4.425  10.213 -0.2239  0.3104 -0.2818
12873TIP3    H160110   4.715   4.398  10.304 -0.3420 -0.3882 -0.4675
12873TIP3    H260111   4.764   4.499  10.202  0.0728  0.1539  0.2601
12874TIP3   OH260112   1.596   1.420   5.728 -0.9778 -0.4542  0.8063
12874TIP3    H160113   1.588   1.506   5.769 -1.5089 -0.2058  0.2009
12874TIP3    H260114   1.640   1.438   5.645 -0.3940 -0.8758  1.0205
12875TIP3   OH260115   0.832   2.702  15.249  0.9784  0.5507 -0.4162
12875TIP3    H160116   0.795   2.789  15.263 -0.8881 -0.3746  0.7643
12875TIP3    H260117   0.808   2.653  15.327  0.1766 -1.6006 -1.9170
12876TIP3   OH260118   1.719   4.567   4.854 -0.2451  0.4862 -0.0180
12876TIP3    H160119   1.772   4.602   4.926 -1.1269  2.4569 -0.2549
12876TIP3    H260120   1.770   4.586   4.775  0.0672 -0.3784 -0.0323
12877TIP3   OH260121   1.320   2.232  15.202 -0.3577 -0.0380  0.1303
12877TIP3    H160122   1.241   2.271  15.241  0.2809  2.4244 -0.8580
12877TIP3    H260123   1.294   2.212  15.112  0.2422  1.4028 -0.4088
12878TIP3   OH260124   5.653   5.123  14.179 -0.3210  0.2830  0.0051
12878TIP3    H160125   5.561   5.148  14.172 -0.4259  0.3165  1.2175
12878TIP3    H260126   5.688   5.177  14.250  0.1921 -0.8866  0.6913
12879TIP3   OH260127   6.361   4.192   3.375  0.0936  0.0751  0.6056
12879TIP3    H160128   6.428   4.124   3.382 -0.7774 -0.8905 -0.2290
12879TIP3    H260129   6.303   4.177   3.450  1.0758  1.2643  1.6593
12880TIP3   OH260130   0.257   2.007  11.719  0.3056 -0.4478 -0.0346
12880TIP3    H160131   0.251   2.036  11.628 -0.7329 -1.2056 -0.2165
12880TIP3    H260132   0.326   2.062  11.757  1.4509 -0.7983 -1.5230
12881TIP3   OH260133   4.528   4.058  11.718 -0.0362  0.3363  0.0192
12881TIP3    H160134   4.566   4.140  11.751  0.2219  0.1492  0.1993
12881TIP3    H260135   4.600   3.995  11.722 -0.0960  0.2265 -0.6004
12882TIP3   OH260136   6.221   4.911  14.275 -0.4606 -0.5360  0.3590
12882TIP3    H160137   6.270   4.882  14.198 -2.9525 -0.4655 -1.4168
12882TIP3    H260138   6.162   4.979  14.241 -0.6833  0.5059  2.6553
12883TIP3   OH260139   5.424   4.388   1.909 -0.4558  0.2474  0.3171
12883TIP3    H160140   5.411   4.397   2.003 -3.0431  0.3249  0.0303
12883TIP3    H260141   5.433   4.478   1.877  0.3129  0.2261  0.4491
12884TIP3   OH260142   2.244   6.023   1.449  0.1455  0.1781 -0.6154
12884TIP3    H160143   2.256   6.082   1.375 -0.8227  0.6582 -0.4100
12884TIP3    H260144   2.324   5.971   1.453  0.1117 -0.0223 -2.1444
12885TIP3   OH260145   6.628   1.426  12.899 -0.2954  0.8508 -0.6445
12885TIP3    H160146   6.605   1.477  12.977  1.1497 -0.5162  0.7435
12885TIP3    H260147   6.544   1.411  12.855 -1.3584  0.6104  1.3285
12886TIP3   OH260148   1.936   4.902   3.921 -0.7504  0.3133  0.0180
12886TIP3    H160149   1.878   4.831   3.949 -0.9644  0.2022 -0.6814
12886TIP3    H260150   1.916   4.914   3.828  1.8934 -1.2393 -0.8532
12887TIP3   OH260151   2.282   4.974  12.956 -0.4659  0.0518 -0.7981
12887TIP3    H160152   2.315   4.911  13.021 -1.9389  0.8507  0.7844
12887TIP3    H260153   2.346   5.045  12.958 -1.0683  0.5938  0.6613
12888TIP3   OH260154   6.078   1.798   5.998 -0.2189  0.4098  0.3742
12888TIP3    H160155   6.165   1.817   6.032 -0.5736 -0.3005  1.7859
12888TIP3    H260156   6.045   1.882   5.966  1.0182  0.6587 -0.2963
12889TIP3   OH260157   1.220   5.260  16.504 -0.6736  0.0381  0.1404
12889TIP3    H160158   1.147   5.309  16.541 -1.1789 -0.3055 -0.3746
12889TIP3    H260159   1.192   5.240  16.414 -0.3768 -0.9449  0.2544
12890TIP3   OH260160   0.101   1.870   1.478  0.0387 -0.3338 -0.1416
12890TIP3    H160161   0.174   1.912   1.525  0.8857 -0.9536 -0.8715
12890TIP3    H260162   0.097   1.915   1.394 -0.7547  0.0315  0.0888
12891TIP3   OH260163   1.208   0.332  12.516 -0.2579 -0.0836 -0.2285
12891TIP3    H160164   1.164   0.416  12.527 -3.0952 -1.6228  1.3863
12891TIP3    H260165   1.232   0.305  12.604  2.9071  0.0187 -0.9328
12892TIP3   OH260166   0.350   0.577  17.143  0.1006  0.0225 -0.3918
12892TIP3    H160167   0.369   0.509  17.207  2.3907  2.5019  1.7846
12892TIP3    H260168   0.294   0.640  17.190 -1.5068  0.0378 -2.1606
12893TIP3   OH260169   5.563   4.069  10.787 -0.0846 -0.2209  0.0398
12893TIP3    H160170   5.542   4.124  10.713 -1.9335  1.7761  1.9044
12893TIP3    H260171   5.658   4.058  10.783 -0.1949 -0.7972 -2.9363
12894TIP3   OH260172   0.082   1.235  16.250  0.5322  0.6823 -0.0277
12894TIP3    H160173   0.129   1.253  16.168  2.6156 -0.5250  0.8299
12894TIP3    H260174   0.016   1.170  16.226 -1.9258  3.5027 -1.5710
12895TIP3   OH260175   2.903   4.825   0.913 -0.2184 -0.3030  0.7733
12895TIP3    H160176   2.930   4.860   0.828  0.9729 -0.1321  1.2125
12895TIP3    H260177   2.949   4.878   0.978  1.5986 -2.5371  1.4651
12896TIP3   OH260178   2.732   2.106   0.400 -0.0997  0.2225 -0.3623
12896TIP3    H160179   2.666   2.042   0.426 -1.4890  0.9781 -1.8270
12896TIP3    H260180   2.703   2.189   0.439  0.8065  0.2946  0.1941
12897TIP3   OH260181   4.879   1.952   1.761 -0.0498  0.8748  0.1323
12897TIP3    H160182   4.837   1.904   1.832  0.7125 -0.4189 -0.2503
12897TIP3    H260183   4.958   1.990   1.800  0.2152  0.4059  0.0695
12898TIP3   OH260184   4.097   3.736  15.094 -0.2592 -0.2894 -0.1452
12898TIP3    H160185   4.152   3.658  15.095 -0.5799 -0.5183  0.2720
12898TIP3    H260186   4.105   3.773  15.182 -0.4553 -0.1012 -0.2038
12899TIP3   OH260187   6.658   5.850  14.711 -0.1750 -0.3133 -0.0186
12899TIP3    H160188   6.593   5.826  14.776  0.1156 -1.3164 -0.0669
12899TIP3    H260189   6.694   5.933  14.741 -0.1698 -0.6723  1.0102
12900TIP3   OH260190   1.823   4.428   0.150  0.0285 -0.5962 -1.1981
12900TIP3    H160191   1.843   4.509   0.196  0.9110 -0.1346 -2.3460
12900TIP3    H260192   1.906   4.380   0.146 -0.0378 -0.6458 -2.2372
12901TIP3   OH260193   0.004   3.323   3.823  0.0886  0.5839 -0.6056
12901TIP3    H160194  -0.033   3.254   3.768  0.3755 -1.1171  1.1857
12901TIP3    H260195   0.087   3.287   3.853  0.6018  2.0500 -0.2064
12902TIP3   OH260196   5.251   2.292  13.729  0.5070  0.4232  0.3654
12902TIP3    H160197   5.182   2.328  13.786 -0.6697 -0.4599 -0.4386
12902TIP3    H260198   5.252   2.351  13.654  1.5151  1.1407  0.9214
12903TIP3   OH260199   1.494   2.168   0.744  0.3517 -0.1789 -0.1863
12903TIP3    H160200   1.434   2.240   0.759  0.1981 -0.5341  1.0202
12903TIP3    H260201   1.575   2.194   0.788  0.9230  0.0651 -1.3466
12904TIP3   OH260202   4.914   3.232   5.753  0.2800 -0.2259  0.4931
12904TIP3    H160203   4.952   3.287   5.821  1.1317 -0.1847 -0.0004
12904TIP3    H260204   4.901   3.148   5.796  1.3652 -0.3781  0.5695
12905TIP3   OH260205   0.679   1.719   5.330 -0.1804 -0.5835 -0.0258
12905TIP3    H160206   0.719   1.798   5.294  1.0812 -0.8067  0.8085
12905TIP3    H260207   0.623   1.686   5.260  1.1388 -0.2775 -1.2705
12906TIP3   OH260208   3.555   0.901   4.743  0.3542 -0.0329  0.0976
12906TIP3    H160209   3.517   0.953   4.672 -1.2566  0.2200  1.0934
12906TIP3    H260210   3.640   0.942   4.760  0.1533  0.7668 -0.7334
12907TIP3   OH260211   1.382   4.233  12.125 -0.2130 -0.0868 -0.5477
12907TIP3    H160212   1.359   4.245  12.033 -1.5437  0.7678 -0.1410
12907TIP3    H260213   1.300   4.205  12.166  0.1590  0.3465  0.5148
12908TIP3   OH260214   3.997   4.067  14.197  0.1798  0.1301 -0.3118
12908TIP3    H160215   4.079   4.027  14.226 -0.6110 -0.5953  1.0529
12908TIP3    H260216   3.935   4.049  14.268 -1.3212  0.1622 -1.5487
12909TIP3   OH260217   0.579   5.615  10.403  0.1506 -0.1893 -0.2645
12909TIP3    H160218   0.670   5.597  10.377 -0.3123 -2.4487 -0.5288
12909TIP3    H260219   0.585   5.692  10.460  2.1450  0.0841 -0.7747
12910TIP3   OH260220   3.111   3.726  14.022  0.4002  0.2587 -0.0396
12910TIP3    H160221   3.054   3.651  14.010 -1.6900  1.2332  2.7235
12910TIP3    H260222   3.196   3.698  13.986  0.1210 -3.9296  1.9918
12911TIP3   OH260223   5.527   5.328  10.429  0.0533  0.1184 -0.4993
12911TIP3    H160224   5.593   5.325  10.498 -0.1023  4.6054  0.1378
12911TIP3    H260225   5.444   5.315  10.475  0.0790  1.3701 -0.0565
12912TIP3   OH260226   0.002   5.660   1.774 -0.5380 -0.0768  0.2593
12912TIP3    H160227   0.080   5.605   1.780 -0.9245 -0.5412  1.2919
12912TIP3    H260228  -0.049   5.622   1.702  0.3755  0.5056 -0.7249
12913TIP3   OH260229   0.925   2.105   0.793  0.5220 -0.1015 -0.0155
12913TIP3    H160230   0.944   2.035   0.730  0.3611 -0.0971 -0.0690
12913TIP3    H260231   0.921   2.185   0.740  2.1782  0.1867  0.2286
12914TIP3   OH260232   0.899   4.115   3.376 -0.5121 -0.1497 -0.4853
12914TIP3    H160233   0.827   4.165   3.414 -0.0501 -0.7331  1.2332
12914TIP3    H260234   0.951   4.180   3.329  0.4879  1.2223  2.2870
12915TIP3   OH260235   5.331   2.138   1.954 -0.3415 -0.0565  1.0380
12915TIP3    H160236   5.359   2.141   2.045 -1.1451  0.7816  1.2648
12915TIP3    H260237   5.409   2.164   1.904  0.2313 -0.9443  1.4305
12916TIP3   OH260238   1.216   1.713   5.195  0.8551 -0.7731  0.6620
12916TIP3    H160239   1.211   1.759   5.279 -0.0122 -1.1479  0.8226
12916TIP3    H260240   1.126   1.711   5.163  1.2040 -0.4343 -0.3921
12917TIP3   OH260241   3.654   0.085   0.640 -0.4149  0.0173 -0.0989
12917TIP3    H160242   3.615   0.165   0.606  0.4942  0.8352  0.7183
12917TIP3    H260243   3.748   0.104   0.644 -0.1174 -1.2589 -0.3163
12918TIP3   OH260244   2.771   3.819   0.308  0.3631  0.2885 -0.2172
12918TIP3    H160245   2.743   3.739   0.353  2.0221  0.5212  1.3100
12918TIP3    H260246   2.728   3.890   0.356  1.6598  0.5014  0.6633
12919TIP3   OH260247   4.840   4.113  16.710 -0.1855 -1.0901 -0.1894
12919TIP3    H160248   4.870   4.041  16.654  2.1675 -0.7175  0.4862
12919TIP3    H260249   4.908   4.180  16.702  0.2555 -0.9876  3.0312
12920TIP3   OH260250   0.018   5.907  14.213  0.0210  0.1761 -0.0066
12920TIP3    H160251  -0.033   5.870  14.141 -1.2392 -2.7916  2.1684
12920TIP3    H260252  -0.043   5.967  14.256  0.3857  1.0766 -0.7298
12921TIP3   OH260253   2.042   1.304   3.668  0.0738 -0.0717 -0.2886
12921TIP3    H160254   2.026   1.332   3.758 -0.0857 -1.6690  0.2133
12921TIP3    H260255   1.958   1.314   3.624 -0.0707 -0.1107 -0.0244
12922TIP3   OH260256   1.953   4.411  16.259  0.3966  0.1119 -0.2240
12922TIP3    H160257   1.874   4.443  16.216  0.1254 -0.8364 -0.4513
12922TIP3    H260258   1.964   4.322  16.226  1.4478  0.1597 -0.0377
12923TIP3   OH260259   5.990   4.360  12.535  0.4693  0.0758  0.0524
12923TIP3    H160260   6.025   4.449  12.545  2.2098 -0.5318 -0.2933
12923TIP3    H260261   6.064   4.309  12.505 -0.2710 -1.7089  1.1374
12924TIP3   OH260262   5.292   0.264   2.290  0.5337 -0.3717 -0.5525
12924TIP3    H160263   5.296   0.168   2.298 -1.8500 -0.4510  0.6930
12924TIP3    H260264   5.199   0.285   2.302  1.0479  2.1425 -0.4041
12925TIP3   OH260265   0.424   0.335  16.341  0.0624 -0.1118 -0.1115
12925TIP3    H160266   0.402   0.303  16.428  0.0355  0.3279  0.0455
12925TIP3    H260267   0.436   0.429  16.352  0.1471 -0.0658 -0.5660
12926TIP3   OH260268   1.321   0.145  13.956 -0.0995  0.0201 -0.0685
12926TIP3    H160269   1.229   0.138  13.932  0.2066 -0.8852 -1.0679
12926TIP3    H260270   1.326   0.105  14.043 -1.0653  2.4793  1.2089
12927TIP3   OH260271   1.073   4.356   1.116  0.4667 -0.7955 -0.3009
12927TIP3    H160272   1.000   4.414   1.097 -0.8176 -1.1808  2.8337
12927TIP3    H260273   1.129   4.406   1.176  0.9793 -1.7117  0.0060
12928TIP3   OH260274   4.099   3.294  14.412  0.7685  0.2940  0.5277
12928TIP3    H160275   4.029   3.230  14.422  0.7603 -0.0961 -1.5815
12928TIP3    H260276   4.080   3.360  14.479 -0.8503 -0.4509  0.8708
12929TIP3   OH260277   0.213   4.562   2.799  0.8706  0.3616 -0.2259
12929TIP3    H160278   0.273   4.635   2.782  0.5501  0.4573 -1.0082
12929TIP3    H260279   0.270   4.486   2.807  1.0477 -0.2776 -4.7395
12930TIP3   OH260280   1.600   4.293   5.383  0.0116  0.1768  0.0120
12930TIP3    H160281   1.585   4.378   5.343 -0.9535  0.9232  1.8550
12930TIP3    H260282   1.609   4.233   5.309  1.0080  1.8982 -1.3231
12931TIP3   OH260283   3.823   5.384   1.924  0.0061 -0.0819 -0.3751
12931TIP3    H160284   3.733   5.391   1.893 -0.4666 -0.8799  0.7472
12931TIP3    H260285   3.861   5.470   1.906 -0.9469  0.2447 -0.9285
12932TIP3   OH260286   2.127   6.595   6.262  0.5766  0.7180 -0.4381
12932TIP3    H160287   2.107   6.518   6.314  0.5737 -0.0692 -1.5789
12932TIP3    H260288   2.186   6.647   6.317 -1.6891  1.3679  1.5458
12933TIP3   OH260289   2.252   1.867  11.125 -0.3420  0.7528  0.4049
12933TIP3    H160290   2.201   1.927  11.070 -1.3892 -0.4294  0.0316
12933TIP3    H260291   2.302   1.814  11.064 -0.2639  0.5229  0.6641
12934TIP3   OH260292   4.074   2.002  17.251  0.2736 -0.5904  0.0997
12934TIP3    H160293   4.052   1.922  17.204  0.8477 -1.3297  1.0697
12934TIP3    H260294   4.160   2.027  17.216  0.2978 -0.6430  0.1222
12935TIP3   OH260295   2.245   6.484   2.382  0.6779 -0.4271  0.5920
12935TIP3    H160296   2.227   6.397   2.417  1.3898  0.1496  2.4883
12935TIP3    H260297   2.333   6.505   2.412 -0.0025  1.5108  1.3992
12936TIP3   OH260298   6.123   3.119  14.865  0.5988  0.5761  0.2384
12936TIP3    H160299   6.128   3.095  14.772 -0.1095 -0.0970  0.3556
12936TIP3    H260300   6.066   3.196  14.866  0.9315  0.8280  0.0804
12937TIP3   OH260301   5.995   1.792  14.592  0.0542  0.5272 -0.4646
12937TIP3    H160302   5.989   1.887  14.583 -1.3587  0.4701 -0.4100
12937TIP3    H260303   5.915   1.768  14.639  0.2321 -0.7250 -0.7796
12938TIP3   OH260304   1.242   3.267   0.900  0.0937 -0.3040 -0.0353
12938TIP3    H160305   1.228   3.308   0.815 -0.5310 -0.5194 -0.0477
12938TIP3    H260306   1.336   3.254   0.906  0.2113  0.3768 -0.3798
12939TIP3   OH260307   1.449   0.140  17.059 -0.3464  0.6516 -0.3106
12939TIP3    H160308   1.408   0.224  17.081  0.2228  0.9559 -0.3909
12939TIP3    H260309   1.539   0.148  17.092 -0.3786 -0.0504 -0.0303
12940TIP3   OH260310   6.407   2.538  15.631  0.1264  0.9265 -0.5164
12940TIP3    H160311   6.323   2.519  15.589  0.6111 -0.3107 -0.9698
12940TIP3    H260312   6.428   2.627  15.604 -0.4110  0.7776 -1.4605
12941TIP3   OH260313   0.327   1.119   0.761 -0.0695  0.1038 -0.0532
12941TIP3    H160314   0.351   1.184   0.828  2.0565 -1.2298  0.6111
12941TIP3    H260315   0.331   1.167   0.679  1.2163  0.9054  0.4387
12942TIP3   OH260316   5.357   5.298  13.192  0.0778 -0.4191  0.0042
12942TIP3    H160317   5.272   5.288  13.150 -0.0038  0.8712 -0.1631
12942TIP3    H260318   5.398   5.212  13.183 -0.6650 -0.6772 -1.1000
12943TIP3   OH260319   1.777   1.568   0.842  0.2606  0.3980  0.3742
12943TIP3    H160320   1.867   1.599   0.839  0.5459 -0.1989  1.8926
12943TIP3    H260321   1.754   1.570   0.935 -1.4901  1.0768 -0.0325
12944TIP3   OH260322   3.417   3.499   5.899 -0.0475  0.7411  0.1830
12944TIP3    H160323   3.459   3.478   5.983  0.0996  1.6062  0.3371
12944TIP3    H260324   3.336   3.448   5.898 -0.6621  1.6472  1.4051
12945TIP3   OH260325   2.816   4.002   5.781  0.3926 -0.0099 -0.0730
12945TIP3    H160326   2.791   4.022   5.871  0.2382  0.2418 -0.1716
12945TIP3    H260327   2.874   4.074   5.756  0.1458  0.1116 -0.2974
12946TIP3   OH260328   5.094   4.048  12.841  0.4429  0.7452  0.7064
12946TIP3    H160329   5.061   4.130  12.878  0.7599  1.8326 -1.2788
12946TIP3    H260330   5.183   4.069  12.811  0.0659  0.1162 -1.0141
12947TIP3   OH260331   4.938   0.560  13.271  0.1098  0.2164  0.0980
12947TIP3    H160332   4.898   0.573  13.184 -2.5944  1.2799  1.3818
12947TIP3    H260333   5.032   0.570  13.256  0.1794 -3.2342 -3.3070
12948TIP3   OH260334   5.369   2.693  15.062  0.0936  0.2147 -0.0791
12948TIP3    H160335   5.288   2.715  15.107  0.1257  0.3257 -0.0746
12948TIP3    H260336   5.385   2.767  15.003 -0.1595 -0.1086 -0.5666
12949TIP3   OH260337   5.318   3.423   1.113  0.4547 -0.5167 -0.1670
12949TIP3    H160338   5.261   3.399   1.186  1.0540 -0.7683  0.2318
12949TIP3    H260339   5.295   3.361   1.044  0.2280 -0.6006 -0.0172
12950TIP3   OH260340   4.930   2.243   4.945  0.7142  0.7725 -0.0798
12950TIP3    H160341   4.968   2.194   4.872 -0.4205  0.6175 -0.5754
12950TIP3    H260342   4.878   2.312   4.904  0.0473  0.6722  0.5797
12951TIP3   OH260343   4.066   1.142  15.375  0.4138 -0.3943  0.3232
12951TIP3    H160344   3.997   1.207  15.384  3.1101  2.8898 -0.7563
12951TIP3    H260345   4.040   1.091  15.298 -1.0529  0.3067  0.3096
12952TIP3   OH260346   3.762   6.200   3.292  0.0667  0.2270  0.1386
12952TIP3    H160347   3.742   6.120   3.244  1.6788  0.2551 -0.6401
12952TIP3    H260348   3.835   6.176   3.349  1.0235  1.2920 -0.6046
12953TIP3   OH260349   3.882   0.391   6.523  0.0868  0.0574  0.5052
12953TIP3    H160350   3.866   0.412   6.616  3.1436 -1.2623  1.4399
12953TIP3    H260351   3.862   0.473   6.477 -2.0856  0.5915  2.1754
12954TIP3   OH260352   6.024   4.919   3.175 -0.0005 -0.2610 -0.0786
12954TIP3    H160353   6.004   4.884   3.089 -0.3248  0.9439 -0.5119
12954TIP3    H260354   6.087   4.858   3.212  1.4798  0.1114 -1.8663
12955TIP3   OH260355   2.061   1.035   4.128 -0.2442  0.2024  0.3041
12955TIP3    H160356   2.007   1.111   4.151  1.3444  1.4533  0.1264
12955TIP3    H260357   2.050   1.026   4.034 -0.2935  0.3440  0.2961
12956TIP3   OH260358   2.476   4.434  14.502 -0.1955 -0.3442 -0.1353
12956TIP3    H160359   2.408   4.377  14.468 -1.1990  1.3218 -1.0660
12956TIP3    H260360   2.542   4.436  14.432 -1.0113  0.9947 -0.9093
12957TIP3   OH260361   4.619   0.829   0.999  0.4664 -0.2928 -0.6273
12957TIP3    H160362   4.693   0.769   1.010 -1.0931 -2.0983  0.4280
12957TIP3    H260363   4.660   0.916   0.997  2.6255 -1.2305 -0.1467
12958TIP3   OH260364   2.776   4.809  14.305  0.4073 -0.2050  0.0293
12958TIP3    H160365   2.768   4.758  14.386  2.5474  1.4180  1.3902
12958TIP3    H260366   2.748   4.897  14.330  1.4678  0.4145 -0.8585
12959TIP3   OH260367   0.962   1.051  14.798 -0.6145  0.0991 -0.0140
12959TIP3    H160368   0.906   0.980  14.767 -1.5973  1.0279 -0.4466
12959TIP3    H260369   0.911   1.092  14.868  0.5118 -0.4213  1.1556
12960TIP3   OH260370   1.801   1.070   4.350  0.0367  0.5915 -0.0519
12960TIP3    H160371   1.841   1.044   4.433 -0.8822 -0.8048 -0.0017
12960TIP3    H260372   1.868   1.122   4.306  0.7722  0.8311  1.2893
12961TIP3   OH260373   6.537   0.210   5.415  0.6869 -0.3318 -0.3886
12961TIP3    H160374   6.546   0.153   5.492  0.3838 -2.0620 -1.5724
12961TIP3    H260375   6.626   0.241   5.399  0.6877  0.3939  0.8895
12962TIP3   OH260376   0.048   4.504  16.952  0.2330 -0.4842 -0.0089
12962TIP3    H160377   0.078   4.511  16.861  0.5885 -0.0280  0.1360
12962TIP3    H260378   0.090   4.578  16.996 -0.0675 -0.6103  0.4917
12963TIP3   OH260379   0.773   3.651  11.365 -0.4571  0.5896  0.5725
12963TIP3    H160380   0.806   3.738  11.344 -0.1771  0.6784  1.3377
12963TIP3    H260381   0.695   3.667  11.418  0.6907  0.4229  2.4333
12964TIP3   OH260382   6.517   0.288   3.159 -0.4238  0.6175 -0.4327
12964TIP3    H160383   6.572   0.326   3.228  0.0411  0.5419 -0.7554
12964TIP3    H260384   6.561   0.206   3.136 -0.7170  0.5189 -0.6385
12965TIP3   OH260385   2.859   1.605  10.729  0.5009  0.2439 -0.1200
12965TIP3    H160386   2.855   1.510  10.724  1.1421  0.1511  0.9361
12965TIP3    H260387   2.771   1.634  10.703  0.9225 -0.5127 -2.6407
12966TIP3   OH260388   5.781   1.741  15.850 -0.0550  0.5228 -0.2664
12966TIP3    H160389   5.728   1.804  15.899 -0.6878 -0.7768  0.7796
12966TIP3    H260390   5.717   1.680  15.812  0.5941 -0.1728 -0.2660
12967TIP3   OH260391   0.877   3.023   5.433  0.5747 -0.5365  0.3066
12967TIP3    H160392   0.958   3.025   5.484  1.0906  0.6894 -0.5161
12967TIP3    H260393   0.855   3.115   5.419 -0.1407 -0.8492 -0.7417
12968TIP3   OH260394   2.735   2.064  10.654  0.0647 -0.0775 -0.1076
12968TIP3    H160395   2.666   2.022  10.705  0.8039 -1.2058 -0.0180
12968TIP3    H260396   2.791   1.993  10.626  1.6695  0.8913  0.5179
12969TIP3   OH260397   1.474   3.435   3.116  0.5134 -0.1564 -0.1094
12969TIP3    H160398   1.464   3.387   3.198  0.1191  0.2138  0.0594
12969TIP3    H260399   1.388   3.473   3.099  0.2202 -1.2804 -1.3579
12970TIP3   OH260400   3.262   3.071  12.667 -0.7664 -0.0135 -0.5761
12970TIP3    H160401   3.342   3.108  12.705 -1.0661 -0.0304  0.0854
12970TIP3    H260402   3.206   3.146  12.650 -0.7890 -0.0407 -0.6236
12971TIP3   OH260403   1.681   5.342  15.585  0.1522  0.1341  0.3833
12971TIP3    H160404   1.719   5.276  15.528  0.7932  0.8810 -0.0861
12971TIP3    H260405   1.754   5.368  15.643  0.4534  1.7133 -0.6406
12972TIP3   OH260406   5.738   6.770   5.614 -0.2961  0.4680 -0.5957
12972TIP3    H160407   5.648   6.786   5.587 -0.3397  1.3415  0.0309
12972TIP3    H260408   5.768   6.854   5.648  0.3258 -0.1581  0.4403
12973TIP3   OH260409   0.664   1.297  12.631  0.2802  0.4240 -0.1857
12973TIP3    H160410   0.660   1.349  12.711  1.7405  0.7395 -0.2863
12973TIP3    H260411   0.591   1.328  12.578 -0.2148  0.7776  0.6757
12974TIP3   OH260412   3.971   0.990   1.226 -0.5481 -0.2135  0.4066
12974TIP3    H160413   3.974   0.944   1.142  1.0677  1.7069 -0.6681
12974TIP3    H260414   3.881   0.977   1.257 -0.5189 -2.9692 -0.4077
12975TIP3   OH260415   1.669   3.652   4.180  0.4535  0.1137  0.2230
12975TIP3    H160416   1.714   3.677   4.260 -0.4882  2.2357  0.1767
12975TIP3    H260417   1.709   3.570   4.154  1.6715  0.0346  2.1619
12976TIP3   OH260418   1.349   1.385   0.804  0.8225  0.0638 -0.0144
12976TIP3    H160419   1.265   1.432   0.804  1.9714  2.3245  1.9099
12976TIP3    H260420   1.376   1.384   0.713 -1.1822 -0.6042 -0.6683
12977TIP3   OH260421   5.476   6.297  12.322  0.3787 -0.1095  0.2663
12977TIP3    H160422   5.460   6.310  12.415 -2.0407  0.3088 -0.1399
12977TIP3    H260423   5.518   6.378  12.293  0.4639  0.0531  0.8424
12978TIP3   OH260424   0.674   5.824  14.142 -0.0949 -0.7981 -0.8240
12978TIP3    H160425   0.618   5.879  14.088  0.2789  0.5442  0.0842
12978TIP3    H260426   0.613   5.765  14.187 -0.7503  0.2120 -0.3267
12979TIP3   OH260427   5.558   6.509   4.738 -1.1749 -0.5881 -0.4674
12979TIP3    H160428   5.515   6.570   4.678  0.0524 -0.1758 -0.9623
12979TIP3    H260429   5.546   6.547   4.825 -0.0053  0.6434 -0.8210
12980TIP3   OH260430   4.083   4.464  15.867  0.5612 -0.2860 -0.2208
12980TIP3    H160431   4.052   4.438  15.780  2.5036  0.4707 -1.2012
12980TIP3    H260432   4.037   4.545  15.887 -0.5837 -0.9421 -0.0879
12981TIP3   OH260433   5.161   3.472  13.634  0.1015 -0.3724  0.1467
12981TIP3    H160434   5.141   3.493  13.726 -0.1459  1.5522 -0.3098
12981TIP3    H260435   5.076   3.470  13.591  0.3940  1.4488 -0.5562
12982TIP3   OH260436   1.054   1.842   1.809  0.5053 -0.5127  1.0546
12982TIP3    H160437   1.129   1.803   1.854  0.4527 -0.9780  0.7447
12982TIP3    H260438   1.083   1.930   1.784  1.9118 -1.5545 -1.3620
12983TIP3   OH260439   6.751   6.072  11.008  0.0550  0.1555  0.5120
12983TIP3    H160440   6.692   6.142  10.981  0.7174  0.4210 -0.2903
12983TIP3    H260441   6.836   6.115  11.018  0.2877 -0.3723  0.8433
12984TIP3   OH260442   4.209   0.513  16.715  0.0829  0.1640 -0.4796
12984TIP3    H160443   4.288   0.565  16.731 -0.3015  1.0094 -1.2664
12984TIP3    H260444   4.137   0.568  16.747 -0.2045 -0.6142  0.2622
12985TIP3   OH260445   0.901   5.542  15.744 -0.6659  0.3969 -0.5762
12985TIP3    H160446   0.819   5.587  15.765 -1.5557 -1.0860 -0.7285
12985TIP3    H260447   0.916   5.561  15.651 -0.9855  0.4437 -0.6191
12986TIP3   OH260448   5.636   5.104  15.975  0.2216 -0.0600  0.1658
12986TIP3    H160449   5.610   5.051  16.051  1.2584 -2.6110 -1.1396
12986TIP3    H260450   5.702   5.051  15.930  1.2681  2.3624 -1.3269
12987TIP3   OH260451   0.845   4.443  13.349 -0.6102  0.2252 -0.1544
12987TIP3    H160452   0.780   4.375  13.370 -1.0716  0.9348  0.8104
12987TIP3    H260453   0.808   4.489  13.273 -0.5743 -0.2232 -0.4481
12988TIP3   OH260454   4.847   4.146  14.113  0.4257 -0.0653  0.1013
12988TIP3    H160455   4.758   4.115  14.097  0.3507  0.1052  0.1876
12988TIP3    H260456   4.903   4.074  14.084  0.2583 -0.1948  0.0990
12989TIP3   OH260457   1.399   6.010  11.508  0.1481 -0.0305 -0.0143
12989TIP3    H160458   1.375   5.999  11.416  1.6482 -0.0103 -0.4346
12989TIP3    H260459   1.428   5.922  11.535 -0.0475  0.0208  0.3653
12990TIP3   OH260460   4.272   0.369   3.638 -0.1531  0.6458 -0.3606
12990TIP3    H160461   4.194   0.395   3.687 -1.3872 -0.8725 -1.4241
12990TIP3    H260462   4.286   0.277   3.662  0.9160  0.7008 -0.7148
12991TIP3   OH260463   4.579   1.831  13.703 -0.4398  0.0630  0.0774
12991TIP3    H160464   4.509   1.887  13.736  0.2906  0.5587  0.8035
12991TIP3    H260465   4.621   1.883  13.635  0.0859  0.2930  0.5825
12992TIP3   OH260466   0.452   2.870   4.759  0.4656 -0.2523 -0.1710
12992TIP3    H160467   0.529   2.851   4.813  0.8113  0.3651 -0.4393
12992TIP3    H260468   0.450   2.965   4.753 -0.4728 -0.2449  0.0422
12993TIP3   OH260469   0.521   3.002  16.373 -0.4486 -0.4099 -0.5501
12993TIP3    H160470   0.482   2.985  16.287 -0.3070 -0.3522 -0.6260
12993TIP3    H260471   0.493   2.929  16.427 -3.2137  1.1101  0.2519
12994TIP3   OH260472   2.656   2.967   1.232  0.3953  0.1711 -0.2874
12994TIP3    H160473   2.684   2.878   1.210  0.0986  0.5905 -2.5818
12994TIP3    H260474   2.717   2.995   1.300 -0.1855 -2.1482  1.3192
12995TIP3   OH260475   2.702   5.119   3.137 -0.4164  0.1138 -0.5199
12995TIP3    H160476   2.753   5.142   3.215  3.0399 -0.6395 -2.3447
12995TIP3    H260477   2.736   5.177   3.068 -2.8795  0.3017 -1.6720
12996TIP3   OH260478   2.152   6.624  12.293  0.0562 -0.4182 -0.0706
12996TIP3    H160479   2.085   6.561  12.266  0.8846 -1.6946  0.7268
12996TIP3    H260480   2.152   6.619  12.389  0.2402  0.7044  0.0019
12997TIP3   OH260481   0.357   1.021  12.598 -0.0211 -0.0140  0.5678
12997TIP3    H160482   0.267   1.020  12.564  0.1073  2.8492 -0.1519
12997TIP3    H260483   0.412   0.998  12.524  0.0597  3.2410 -0.5388
12998TIP3   OH260484   4.438   0.616  12.044  0.4140 -0.2468  0.0698
12998TIP3    H160485   4.533   0.615  12.036  0.3732  0.0492 -0.5369
12998TIP3    H260486   4.417   0.538  12.095  1.1265  0.8171  2.0878
12999TIP3   OH260487   5.078   6.129   2.982  0.4716 -0.5164 -0.0647
12999TIP3    H160488   5.043   6.054   2.934 -0.0483  0.1416 -0.7293
12999TIP3    H260489   5.010   6.149   3.047 -0.5470  0.8872 -1.4864
13000TIP3   OH260490   6.759   4.706   4.941 -0.4323 -0.0928 -0.0408
13000TIP3    H160491   6.760   4.699   5.036 -0.3463  0.1477 -0.0237
13000TIP3    H260492   6.844   4.743   4.918 -0.6045  0.2216 -0.1817
13001TIP3   OH260493   6.597   5.117  12.914  0.8031 -0.3408  0.3531
13001TIP3    H160494   6.527   5.099  12.851  0.7224  0.9693  0.0320
13001TIP3    H260495   6.554   5.112  13.000  0.3271  0.3217  0.1662
13002TIP3   OH260496   0.241   0.904  11.336  0.6170  0.5252  0.2669
13002TIP3    H160497   0.173   0.972  11.337  0.7558  0.6585  1.3326
13002TIP3    H260498   0.196   0.826  11.302 -0.1116  0.5804  1.0657
13003TIP3   OH260499   5.250   1.699   4.891  0.1028  0.2524 -0.4466
13003TIP3    H160500   5.286   1.675   4.977  2.0116  1.8132 -0.7571
13003TIP3    H260501   5.155   1.691   4.903  0.3690 -1.2788  1.2529
13004TIP3   OH260502   6.658   1.307   6.109 -0.7012  0.3923 -0.5686
13004TIP3    H160503   6.703   1.223   6.119 -1.0066  0.2671 -0.2185
13004TIP3    H260504   6.662   1.326   6.015  1.0690  0.9347 -0.4170
13005TIP3   OH260505   1.374   4.049  12.412  0.4904  1.1016  0.1979
13005TIP3    H160506   1.321   4.109  12.464  0.8686  0.3246  1.5192
13005TIP3    H260507   1.465   4.074  12.433  0.7159 -1.1685  2.3769
13006TIP3   OH260508   0.919   1.379  11.383 -0.4294  0.4278  0.0221
13006TIP3    H160509   0.861   1.324  11.330 -1.0554  0.8368  0.2805
13006TIP3    H260510   0.890   1.365  11.473 -0.4558  1.0333  0.1071
13007TIP3   OH260511   2.561   0.431  16.354  0.1848  0.0385 -0.3022
13007TIP3    H160512   2.537   0.378  16.279  0.2241 -0.7567  0.2396
13007TIP3    H260513   2.649   0.402  16.378  0.0632  0.0791  0.2207
13008TIP3   OH260514   4.742   3.807  15.191  1.2199  0.6901  0.1987
13008TIP3    H160515   4.752   3.887  15.242 -1.0813  0.1964  1.5824
13008TIP3    H260516   4.714   3.837  15.105  0.1202  1.3997  0.7819
13009TIP3   OH260517   1.289   5.563  12.560 -0.4750  0.8298 -0.2505
13009TIP3    H160518   1.383   5.575  12.564 -0.5089  1.4166 -1.0376
13009TIP3    H260519   1.261   5.613  12.483 -1.2063 -0.7399 -1.0457
13010TIP3   OH260520   3.171   5.463  11.825  0.1380  0.1487 -0.3858
13010TIP3    H160521   3.081   5.445  11.799 -0.3344  0.8207  0.7408
13010TIP3    H260522   3.207   5.377  11.847 -0.8599  0.0728  1.0838
13011TIP3   OH260523   0.271   3.385   5.454 -1.1527 -0.7099 -0.5209
13011TIP3    H160524   0.220   3.336   5.389 -0.5067 -1.5342 -0.4289
13011TIP3    H260525   0.351   3.410   5.407 -0.3786 -1.8809  0.1055
13012TIP3   OH260526   2.356   4.684   1.240  0.5252  0.1075  0.3009
13012TIP3    H160527   2.371   4.748   1.170 -1.7261 -0.7221 -1.0457
13012TIP3    H260528   2.425   4.619   1.228  0.9897  0.6853 -0.2506
13013TIP3   OH260529   4.185   4.498   6.342  0.2283  0.2107  0.0753
13013TIP3    H160530   4.256   4.523   6.283 -0.5775 -0.6033 -1.2789
13013TIP3    H260531   4.183   4.567   6.407  1.2066  1.0912 -0.7945
13014TIP3   OH260532   5.352   1.802   5.916  0.4330 -0.3221  0.8511
13014TIP3    H160533   5.433   1.837   5.880 -0.4669  1.3271  0.3153
13014TIP3    H260534   5.373   1.780   6.007  1.4895 -0.0147  0.6903
13015TIP3   OH260535   2.082   6.644   1.926 -0.3595  0.4031 -0.4294
13015TIP3    H160536   2.009   6.631   1.986 -0.4746 -0.5308 -0.7589
13015TIP3    H260537   2.093   6.560   1.882  2.0126 -0.0474  0.8294
13016TIP3   OH260538   0.561   2.880   2.911 -0.2386 -0.1539  0.5526
13016TIP3    H160539   0.613   2.831   2.975 -1.6907 -0.6305  1.3998
13016TIP3    H260540   0.497   2.817   2.879 -2.4557  1.2402  2.0122
13017TIP3   OH260541   1.231   0.825  15.712  0.0818 -0.0297  0.0052
13017TIP3    H160542   1.221   0.784  15.798 -0.6968 -1.3522 -0.6744
13017TIP3    H260543   1.324   0.845  15.705  0.9340 -3.3950 -0.2794
13018TIP3   OH260544   5.465   3.562  16.621 -0.1046  0.2724 -0.2067
13018TIP3    H160545   5.418   3.642  16.644  0.0473  0.6706 -1.2481
13018TIP3    H260546   5.397   3.501  16.593 -0.2175  0.0379  0.5624
13019TIP3   OH260547   6.254   3.402   1.025  0.3139  0.1872 -0.2650
13019TIP3    H160548   6.236   3.466   0.956  0.9705 -0.3194 -0.9176
13019TIP3    H260549   6.270   3.455   1.103  1.0780  0.8459 -0.8469
13020TIP3   OH260550   3.099   4.366   0.837 -0.0805  0.1359  0.2239
13020TIP3    H160551   3.017   4.317   0.848  0.1462 -0.1465  0.6657
13020TIP3    H260552   3.124   4.391   0.926 -0.7115  1.9249 -0.0431
13021TIP3   OH260553   0.707   3.917  14.565  0.6047  0.0637 -0.3394
13021TIP3    H160554   0.697   3.857  14.491  3.0980 -2.1227  0.9546
13021TIP3    H260555   0.740   3.998  14.526 -0.2912 -0.2535 -1.8366
13022TIP3   OH260556   3.765   0.704  12.465  0.2829  0.5595 -0.1246
13022TIP3    H160557   3.818   0.754  12.402  3.6490 -1.6480  0.6795
13022TIP3    H260558   3.823   0.690  12.539 -1.3225 -2.3486  0.7281
13023TIP3   OH260559   2.308   0.989  16.279 -0.0555  0.1657  0.0108
13023TIP3    H160560   2.247   1.062  16.292 -0.1420  0.3180 -1.1841
13023TIP3    H260561   2.300   0.937  16.359 -0.3846  1.1706  0.6551
13024TIP3   OH260562   4.407   2.150  12.358  0.3852  0.0785 -0.2063
13024TIP3    H160563   4.330   2.142  12.303  0.3055 -0.7151  0.0024
13024TIP3    H260564   4.479   2.117  12.303  0.1661 -1.5545  0.4428
13025TIP3   OH260565   2.657   0.572  12.911 -0.0725  0.0437 -0.2002
13025TIP3    H160566   2.672   0.640  12.846 -3.3124  0.3736 -0.7299
13025TIP3    H260567   2.573   0.533  12.887 -1.8575  0.6325  4.0857
13026TIP3   OH260568   2.136   3.131   2.695 -0.5879  0.4002  0.1735
13026TIP3    H160569   2.100   3.119   2.783 -0.1889 -0.8628  0.1885
13026TIP3    H260570   2.220   3.086   2.698 -0.5598  0.3785 -0.8474
13027TIP3   OH260571   4.194   3.216  16.766 -0.3677 -0.0621  0.5666
13027TIP3    H160572   4.208   3.304  16.728  0.9721 -0.0535  1.0296
13027TIP3    H260573   4.100   3.201  16.757 -0.4431  0.9301 -0.6062
13028TIP3   OH260574   4.450   2.511  14.009  0.5086  0.3532 -0.2935
13028TIP3    H160575   4.502   2.516  13.928  0.0694 -0.9066 -0.6745
13028TIP3    H260576   4.499   2.453  14.066  0.2878  0.3962 -0.0595
13029TIP3   OH260577   0.196   0.914   1.124 -0.0912 -0.5868  0.5927
13029TIP3    H160578   0.115   0.897   1.075  0.1207  0.1247 -0.0216
13029TIP3    H260579   0.167   0.963   1.201 -0.2181 -0.0520  0.2120
13030TIP3   OH260580   1.514   4.459   5.098  0.5753 -0.2646 -0.3590
13030TIP3    H160581   1.488   4.539   5.144  0.5770 -0.2024 -0.4635
13030TIP3    H260582   1.517   4.486   5.006  2.8612  0.2367 -0.1917
13031TIP3   OH260583   1.564   2.461  10.780 -0.2296 -0.0544  0.7465
13031TIP3    H160584   1.471   2.478  10.767  0.0455  0.9599 -0.0517
13031TIP3    H260585   1.608   2.527  10.727  0.9466 -1.1149  0.3419
13032TIP3   OH260586   2.240   2.034  13.753 -0.1737 -0.6119 -0.1291
13032TIP3    H160587   2.208   2.007  13.840  0.5031 -1.7328 -0.2092
13032TIP3    H260588   2.334   2.047  13.766 -0.3837  1.3029 -0.2226
13033TIP3   OH260589   1.576   0.536  10.587 -0.2812 -0.1533  0.2778
13033TIP3    H160590   1.584   0.592  10.664 -0.7028  1.5523 -0.8640
13033TIP3    H260591   1.564   0.597  10.514 -4.2275 -1.7352 -0.6491
13034TIP3   OH260592   2.203   0.804   0.761 -0.1048 -0.7197  0.4140
13034TIP3    H160593   2.173   0.882   0.809  1.2218 -0.5615  1.0567
13034TIP3    H260594   2.283   0.833   0.717 -1.0749 -0.9825 -1.6368
13035TIP3   OH260595   2.372   3.566  13.347  0.3884 -0.5263  0.3970
13035TIP3    H160596   2.291   3.617  13.352  0.7154 -0.0388  0.9180
13035TIP3    H260597   2.343   3.476  13.333 -0.2654 -0.4427  1.1438
13036TIP3   OH260598   4.442   6.760  16.109 -0.1019  0.2458  0.4715
13036TIP3    H160599   4.530   6.728  16.092 -0.3127 -0.6702  1.0573
13036TIP3    H260600   4.413   6.712  16.186 -2.5127 -2.2247 -1.7686
13037TIP3   OH260601   0.375   1.149   2.917 -0.6475  0.1333 -0.1584
13037TIP3    H160602   0.374   1.205   2.839 -0.3543 -2.9753 -2.6217
13037TIP3    H260603   0.431   1.195   2.979  1.4867  1.5516 -2.8813
13038TIP3   OH260604   4.020   3.439  11.897 -0.2096  0.1531  0.5857
13038TIP3    H160605   4.015   3.346  11.917  3.3698  0.3293  3.1224
13038TIP3    H260606   3.973   3.448  11.813 -0.6354 -3.8666  0.2101
13039TIP3   OH260607   2.035   5.066  13.231 -0.8964 -0.6200 -0.3616
13039TIP3    H160608   2.111   5.123  13.233 -1.5269  0.2615 -0.6810
13039TIP3    H260609   1.962   5.124  13.209 -1.9341 -1.1174  1.4928
13040TIP3   OH260610   1.514   3.905  13.670 -0.1135 -0.4078 -0.2283
13040TIP3    H160611   1.435   3.852  13.657 -1.8983  2.2899 -1.2001
13040TIP3    H260612   1.501   3.948  13.755 -0.4583  1.1438 -1.0233
13041TIP3   OH260613   5.040   5.692   2.584 -0.4500  0.1107 -0.2403
13041TIP3    H160614   4.949   5.700   2.555 -0.1874 -0.1398 -1.1557
13041TIP3    H260615   5.079   5.628   2.525  0.5008  0.7054 -0.2833
13042TIP3   OH260616   5.934   3.305   2.476 -0.0100 -1.0122  0.4629
13042TIP3    H160617   6.007   3.270   2.526  0.1138  0.3744  1.2957
13042TIP3    H260618   5.866   3.322   2.542 -0.5559 -0.9598 -0.1039
13043TIP3   OH260619   0.824   1.211  15.286  0.3429 -0.0159  0.1559
13043TIP3    H160620   0.843   1.148  15.356  1.5004 -0.3589 -0.4344
13043TIP3    H260621   0.871   1.290  15.312  0.4381 -0.0107 -0.0320
13044TIP3   OH260622   0.381   5.003   5.920 -0.5220  0.1556 -0.1041
13044TIP3    H160623   0.473   5.022   5.939  0.0311 -1.2311 -1.2112
13044TIP3    H260624   0.365   4.920   5.965 -1.3604  0.5779  0.3892
13045TIP3   OH260625   2.836   1.514   1.859  0.1275 -0.3036  0.0281
13045TIP3    H160626   2.776   1.466   1.916 -0.2669 -2.0797 -1.7862
13045TIP3    H260627   2.905   1.452   1.838  0.7300  0.5986 -0.7447
13046TIP3   OH260628   2.849   1.578   3.964 -0.1770 -0.1034 -0.2585
13046TIP3    H160629   2.860   1.499   4.017  0.1637  1.1740  1.6881
13046TIP3    H260630   2.762   1.612   3.989  0.4127  1.0648  0.3217
13047TIP3   OH260631   4.448   6.623   2.223 -0.1846  0.1426  0.4278
13047TIP3    H160632   4.419   6.585   2.307 -0.9588  1.5733  0.8407
13047TIP3    H260633   4.395   6.702   2.213  0.2177  0.2400 -1.2133
13048TIP3   OH260634   0.295   5.515  10.402 -0.0101 -0.1469  0.5317
13048TIP3    H160635   0.292   5.421  10.420 -0.3310 -0.0231  1.1513
13048TIP3    H260636   0.380   5.529  10.359  0.3930 -0.5971  1.1763
13049TIP3   OH260637   1.623   1.228  16.094 -0.5451  0.0862 -0.0761
13049TIP3    H160638   1.599   1.319  16.112 -0.7650  0.6035 -2.5823
13049TIP3    H260639   1.613   1.220  15.999  3.8613 -1.2588 -0.6060
13050TIP3   OH260640   3.851   2.607   0.990  0.1177  0.0245 -0.5032
13050TIP3    H160641   3.764   2.591   0.953 -0.6894 -1.0034  1.6769
13050TIP3    H260642   3.876   2.523   1.030  1.0734  0.9450  0.9444
13051TIP3   OH260643   1.707   2.698  12.707  0.6992  1.0129  0.1284
13051TIP3    H160644   1.677   2.775  12.755 -1.3280  0.2050  0.2686
13051TIP3    H260645   1.702   2.724  12.615 -2.4416  0.3798 -0.0032
13052TIP3   OH260646   5.078   1.914  14.310 -0.4698  0.3881 -0.0055
13052TIP3    H160647   4.995   1.928  14.264 -0.3629 -2.2318 -1.1382
13052TIP3    H260648   5.054   1.858  14.384  0.1159  0.6962  0.4214
13053TIP3   OH260649   0.205   2.954   4.968 -0.1673 -0.4556  0.1938
13053TIP3    H160650   0.115   2.922   4.977 -0.0402 -1.0556 -0.5848
13053TIP3    H260651   0.245   2.895   4.904  0.4607  0.4830 -0.2878
13054TIP3   OH260652   1.271   0.502  14.894  0.2975 -0.6854 -0.2512
13054TIP3    H160653   1.258   0.567  14.964  0.6499 -0.7075 -0.1649
13054TIP3    H260654   1.361   0.516  14.865  0.0934 -0.5578 -0.8260
13055TIP3   OH260655   4.810   4.564   1.916  0.6212 -0.3492 -0.4597
13055TIP3    H160656   4.846   4.610   1.992 -0.9721 -1.7188  1.2112
13055TIP3    H260657   4.886   4.526   1.872  1.5708  0.4740  0.4156
13056TIP3   OH260658   4.482   5.415  12.947 -0.3882  0.3996  0.1172
13056TIP3    H160659   4.495   5.503  12.982  3.2764  0.0979 -0.0907
13056TIP3    H260660   4.501   5.357  13.021  0.3582 -0.1960 -0.5184
13057TIP3   OH260661   2.087   3.981   1.942  0.1174 -0.9412 -0.1249
13057TIP3    H160662   2.078   3.886   1.944  2.2505 -1.3410 -2.8348
13057TIP3    H260663   2.010   4.011   1.893 -1.7332 -0.9285  2.6051
13058TIP3   OH260664   4.882   2.455  12.078 -0.2085 -0.0206 -0.5250
13058TIP3    H160665   4.952   2.479  12.017  0.8766 -0.4194  0.5299
13058TIP3    H260666   4.916   2.479  12.164 -1.7006  0.4986 -0.0590
13059TIP3   OH260667   2.665   5.729   3.864  0.1457  0.0326  0.5627
13059TIP3    H160668   2.713   5.661   3.816 -0.3029  1.3326 -1.8998
13059TIP3    H260669   2.710   5.735   3.948  1.5687 -1.7619 -0.0034
13060TIP3   OH260670   3.051   5.229   4.860 -1.1633  0.2791  0.1663
13060TIP3    H160671   2.973   5.242   4.914 -0.9240 -1.7048  1.0829
13060TIP3    H260672   3.124   5.232   4.922 -0.6833  0.2134 -0.3890
13061TIP3   OH260673   3.178   6.301  13.488 -0.3909 -0.0969  0.5677
13061TIP3    H160674   3.220   6.237  13.545 -1.8690 -1.3028  0.3816
13061TIP3    H260675   3.111   6.343  13.542 -0.3484  0.3123  0.3120
13062TIP3   OH260676   5.502   1.465  13.279 -0.0763 -0.1824  0.3022
13062TIP3    H160677   5.474   1.378  13.251 -1.3205  0.8347 -1.8159
13062TIP3    H260678   5.525   1.454  13.371  2.1284 -3.2592 -0.4637
13063TIP3   OH260679   4.169   2.404  13.643  0.1363  0.0322  0.0099
13063TIP3    H160680   4.190   2.467  13.711 -1.6810  0.2772  0.4113
13063TIP3    H260681   4.235   2.335  13.652  0.6398  0.6409  1.2170
13064TIP3   OH260682   6.610   3.662  15.119  0.3524 -0.0506 -0.2290
13064TIP3    H160683   6.656   3.746  15.120 -0.1967  0.2602 -0.6523
13064TIP3    H260684   6.645   3.615  15.195 -0.2862  1.0778  0.8045
13065TIP3   OH260685   0.266   2.953  14.908  0.4801 -0.1677  0.0813
13065TIP3    H160686   0.218   2.871  14.896  1.3321 -0.4945 -1.5505
13065TIP3    H260687   0.342   2.928  14.961  1.0351 -0.6155 -0.8712
13066TIP3   OH260688   2.422   3.023  11.683  0.6296 -0.2045  0.1391
13066TIP3    H160689   2.331   3.049  11.699 -0.0048 -2.0740 -0.1632
13066TIP3    H260690   2.441   3.057  11.595 -0.0385 -0.4609 -0.1145
13067TIP3   OH260691   3.399   2.573   4.942 -0.0288  0.5971  0.5097
13067TIP3    H160692   3.447   2.535   4.868 -0.2126  0.0053  0.6954
13067TIP3    H260693   3.351   2.500   4.980  0.0243  0.9101  1.1876
13068TIP3   OH260694   2.309   3.657   5.315  0.1749 -0.1731 -0.2020
13068TIP3    H160695   2.348   3.662   5.227 -0.5756 -0.2165 -0.5493
13068TIP3    H260696   2.383   3.660   5.375  0.7389 -0.6799 -0.8556
13069TIP3   OH260697   0.689   4.975   5.907 -0.1419 -0.2177 -0.0852
13069TIP3    H160698   0.701   4.920   5.984 -1.6024  0.1092  0.4211
13069TIP3    H260699   0.700   4.915   5.833  1.2469 -0.5384  0.3563
13070TIP3   OH260700   0.161   2.908   4.647  0.3879  0.1757  0.0697
13070TIP3    H160701   0.230   2.860   4.601  1.2454  1.1427  0.3100
13070TIP3    H260702   0.081   2.890   4.596  0.6998 -1.3649  0.0794
13071TIP3   OH260703   0.222   4.602  14.997 -0.1534 -0.2070 -0.4212
13071TIP3    H160704   0.241   4.684  15.042 -0.8971  0.3591 -1.1254
13071TIP3    H260705   0.303   4.581  14.950 -0.1118  0.3714 -0.6182
13072TIP3   OH260706   5.670   5.744   4.593  0.6854  0.2849 -0.5022
13072TIP3    H160707   5.734   5.765   4.661  0.7374  0.7602 -0.6947
13072TIP3    H260708   5.676   5.649   4.584  1.0788  0.2802 -0.2360
13073TIP3   OH260709   1.230   3.908  16.394 -0.0990  0.2202 -0.2066
13073TIP3    H160710   1.202   3.842  16.458  2.9152 -0.5847  0.4445
13073TIP3    H260711   1.293   3.962  16.442 -0.0881  1.5487 -1.6659
13074TIP3   OH260712   1.202   0.925   4.856 -0.0080 -0.2911  0.0248
13074TIP3    H160713   1.183   1.002   4.802 -0.8802 -0.0770  0.6153
13074TIP3    H260714   1.211   0.853   4.793 -0.9501 -0.0370 -0.4322
13075TIP3   OH260715   2.015   6.433   0.209  0.0409  0.3066 -0.5646
13075TIP3    H160716   1.976   6.455   0.124 -0.9963 -0.0825 -0.1894
13075TIP3    H260717   1.954   6.467   0.274  0.2038 -0.5074  0.0300
13076TIP3   OH260718   3.991   6.188   3.447  0.3774 -0.5125  0.1644
13076TIP3    H160719   3.999   6.190   3.542 -0.8108  1.2322  0.2774
13076TIP3    H260720   4.071   6.145   3.417  0.7912 -1.0634  1.9327
13077TIP3   OH260721   1.279   5.686  11.575 -0.0763  0.0471 -0.1997
13077TIP3    H160722   1.371   5.664  11.563  0.1182  0.3556  0.6378
13077TIP3    H260723   1.280   5.765  11.629 -0.7773  1.3484 -1.9738
13078TIP3   OH260724   6.640   4.806  15.023 -0.4779  0.4914  0.1674
13078TIP3    H160725   6.706   4.864  14.987 -0.6475  0.0051 -0.9794
13078TIP3    H260726   6.642   4.729  14.966  0.4058 -1.0801  2.1834
13079TIP3   OH260727   6.259   6.294   0.261 -0.0261  0.1717 -0.2842
13079TIP3    H160728   6.303   6.209   0.256 -0.7616 -0.1979 -0.6897
13079TIP3    H260729   6.328   6.358   0.246  0.3581 -0.4067 -1.0718
13080TIP3   OH260730   3.023   0.588   6.488  0.5963  0.6346  0.0203
13080TIP3    H160731   2.953   0.643   6.524  2.4546  0.9301  3.6314
13080TIP3    H260732   3.022   0.510   6.542  2.2222  0.0645 -0.7053
13081TIP3   OH260733   4.172   3.125   2.262 -0.7915 -0.0248 -0.3760
13081TIP3    H160734   4.196   3.156   2.350  0.6354  1.8119 -1.3328
13081TIP3    H260735   4.081   3.098   2.271 -0.7466  0.2903  1.6320
13082TIP3   OH260736   4.945   6.212   4.549 -0.6085 -0.5800  0.8342
13082TIP3    H160737   4.914   6.122   4.544  2.6511 -1.7506 -2.1071
13082TIP3    H260738   4.887   6.260   4.490 -0.9094 -1.2421  0.5804
13083TIP3   OH260739   5.882   6.441   4.195 -0.1341  0.0461 -0.1404
13083TIP3    H160740   5.955   6.437   4.133  0.8654  0.2876  0.9928
13083TIP3    H260741   5.880   6.354   4.236 -1.1155 -0.2846 -0.8428
13084TIP3   OH260742   5.536   0.176   3.809 -0.1782  0.7501 -0.3201
13084TIP3    H160743   5.551   0.177   3.903 -1.0631  2.1620 -0.1673
13084TIP3    H260744   5.450   0.216   3.797 -1.3131 -1.8163 -1.5746
13085TIP3   OH260745   5.315   5.021  15.876 -0.2624  0.0392  0.2370
13085TIP3    H160746   5.395   4.975  15.900 -0.7739 -1.2906 -0.4879
13085TIP3    H260747   5.276   5.048  15.959 -0.5808 -1.9912  0.7833
13086TIP3   OH260748   1.502   4.985   4.704 -0.2697 -0.1730 -0.5729
13086TIP3    H160749   1.509   4.912   4.765  0.8129 -0.6512 -1.2293
13086TIP3    H260750   1.495   4.943   4.618 -0.0208  0.4949 -0.9242
13087TIP3   OH260751   1.872   3.073  13.496  0.2783  0.0291  0.4486
13087TIP3    H160752   1.850   3.035  13.411  0.0993  2.5794 -0.7566
13087TIP3    H260753   1.825   3.020  13.560 -2.1321 -0.1292 -1.3172
13088TIP3   OH260754   0.277   1.427   3.845 -0.4358 -0.1740 -0.0876
13088TIP3    H160755   0.209   1.410   3.911  1.2123 -2.6238  1.1292
13088TIP3    H260756   0.250   1.375   3.770 -1.1175  0.7966 -0.5383
13089TIP3   OH260757   0.393   2.487  14.433  0.0090  0.0214  0.6714
13089TIP3    H160758   0.343   2.526  14.360 -1.3354 -0.6100  1.2189
13089TIP3    H260759   0.473   2.538  14.437 -0.2530  0.5979 -0.7355
13090TIP3   OH260760   5.201   2.446   1.547 -0.0809 -0.4518  0.0419
13090TIP3    H160761   5.238   2.364   1.515  1.1018 -0.0532  0.3571
13090TIP3    H260762   5.257   2.471   1.620  1.3920  2.1576 -1.8313
13091TIP3   OH260763   1.880   0.450  14.282 -0.2417  0.0828  0.0371
13091TIP3    H160764   1.913   0.391  14.350 -0.7959  0.4250  0.6086
13091TIP3    H260765   1.897   0.404  14.200  0.2450 -0.4254  0.4169
13092TIP3   OH260766   2.890   0.066  13.877  0.2798 -0.4181  0.1380
13092TIP3    H160767   2.926   0.134  13.821  0.4409  1.9811  2.9057
13092TIP3    H260768   2.838   0.114  13.942 -1.3574 -3.1478  0.9975
13093TIP3   OH260769   1.901   0.750  11.854 -0.5059 -0.2255  0.4496
13093TIP3    H160770   1.912   0.662  11.891 -1.4040 -0.3044  0.5406
13093TIP3    H260771   1.861   0.735  11.769 -3.4382  0.2122  1.6604
13094TIP3   OH260772   4.476   6.289  12.200 -0.2049 -0.6207  0.8762
13094TIP3    H160773   4.534   6.365  12.206  1.8977 -2.1273  0.5003
13094TIP3    H260774   4.457   6.265  12.291 -1.5816  0.7823  1.0126
13095TIP3   OH260775   2.170   1.900  16.097  0.1536  0.4395 -0.0537
13095TIP3    H160776   2.128   1.912  16.182 -1.0719  0.7296 -0.6794
13095TIP3    H260777   2.100   1.874  16.038  0.7439  1.3968 -1.2394
13096TIP3   OH260778   5.603   1.326  12.271 -0.4754  0.3458  0.2685
13096TIP3    H160779   5.648   1.410  12.275 -0.8881  0.5259  1.7576
13096TIP3    H260780   5.510   1.348  12.281 -0.5530 -0.3144  1.0572
13097TIP3   OH260781   4.343   6.251   1.520  0.1203 -0.4535 -0.6395
13097TIP3    H160782   4.410   6.308   1.558  0.5836 -1.2733 -0.2036
13097TIP3    H260783   4.392   6.191   1.464 -0.1188 -1.7044  0.4545
13098TIP3   OH260784   0.044   1.184   0.442  0.2583 -0.0858 -0.6014
13098TIP3    H160785   0.139   1.201   0.442  0.6881 -2.1354  0.7586
13098TIP3    H260786   0.027   1.145   0.528 -1.4478 -1.5999 -1.5652
13099TIP3   OH260787   5.550   1.881  16.345 -0.2973  0.1938 -0.1009
13099TIP3    H160788   5.643   1.896  16.361 -0.3577  0.2388  0.2124
13099TIP3    H260789   5.516   1.967  16.319  0.3838 -0.3923 -3.4990
13100TIP3   OH260790   0.665   6.217  15.324  0.7845 -0.4930 -0.3434
13100TIP3    H160791   0.579   6.194  15.361  0.4573 -1.1082 -1.4478
13100TIP3    H260792   0.671   6.312  15.334 -0.2283 -0.3838 -0.6827
13101TIP3   OH260793   1.936   6.492  15.628  0.1668  0.1430 -0.2383
13101TIP3    H160794   1.912   6.578  15.595  0.1710  1.1790  2.2563
13101TIP3    H260795   1.958   6.441  15.550 -2.1632  1.6214 -1.9669
13102TIP3   OH260796   3.455   4.483   0.726 -0.0626 -0.3711  0.5763
13102TIP3    H160797   3.465   4.420   0.655  0.0664 -1.3855  1.4507
13102TIP3    H260798   3.362   4.504   0.728  0.0087  0.0375 -0.1872
13103TIP3   OH260799   0.485   1.376   4.480 -0.3420 -0.5007 -0.0003
13103TIP3    H160800   0.441   1.446   4.432  2.2377  0.2633 -1.4017
13103TIP3    H260801   0.549   1.341   4.419  0.0205 -2.5520  1.4622
13104TIP3   OH260802   0.368   1.092  16.260  0.2018  0.6611  1.0258
13104TIP3    H160803   0.399   1.154  16.326 -0.1721  0.0415  1.7979
13104TIP3    H260804   0.447   1.048  16.229  0.4135  1.1657  0.8273
13105TIP3   OH260805   2.584   5.547   6.051  0.3717 -0.2395  0.1732
13105TIP3    H160806   2.527   5.476   6.080  0.5372 -1.2095 -1.6919
13105TIP3    H260807   2.673   5.515   6.066  0.4963 -1.2623 -2.2703
13106TIP3   OH260808   1.148   1.191  14.269 -0.0151  0.4770  0.3710
13106TIP3    H160809   1.166   1.098  14.280 -0.4707  0.2971 -0.3137
13106TIP3    H260810   1.216   1.235  14.320  0.6615 -0.2207  0.0969
13107TIP3   OH260811   3.499   2.078   5.773  0.3818 -0.1555 -0.2325
13107TIP3    H160812   3.562   2.082   5.845  0.6623 -1.4855 -0.3838
13107TIP3    H260813   3.426   2.133   5.802  0.3706 -0.8722  1.1907
13108TIP3   OH260814   6.164   3.821   1.631  0.7425 -0.1853 -0.8557
13108TIP3    H160815   6.076   3.839   1.600  1.0444  0.4358 -1.3652
13108TIP3    H260816   6.151   3.763   1.707 -0.0525 -0.7904 -1.4367
13109TIP3   OH260817   0.728   4.400  17.153  0.5313  0.2914 -0.8775
13109TIP3    H160818   0.771   4.472  17.200 -1.7483  1.3777 -0.3269
13109TIP3    H260819   0.712   4.334  17.220 -0.1806  0.6370 -0.6943
13110TIP3   OH260820   0.325   2.421  17.100 -0.3594 -0.5938  0.3496
13110TIP3    H160821   0.249   2.407  17.044 -0.6639  0.2153  0.5462
13110TIP3    H260822   0.311   2.508  17.139  1.0144 -0.1054 -0.1669
13111TIP3   OH260823   5.542   6.476   3.297 -0.1625  0.0550  0.9314
13111TIP3    H160824   5.493   6.517   3.368  2.2427  6.3138 -0.3735
13111TIP3    H260825   5.625   6.451   3.338 -0.8535 -1.9119  1.2713
13112TIP3   OH260826   5.077   1.150  14.738  0.4768  0.1743  0.7337
13112TIP3    H160827   5.171   1.147  14.753  0.5908 -0.1641 -0.0166
13112TIP3    H260828   5.039   1.131  14.824  1.1050 -0.9640  0.7806
13113TIP3   OH260829   5.456   2.738   0.159 -0.0221  0.5961  0.5775
13113TIP3    H160830   5.383   2.713   0.217 -2.3100  1.0104 -1.9361
13113TIP3    H260831   5.484   2.823   0.192 -1.3236  0.8658  1.0703
13114TIP3   OH260832   4.263   6.559  12.112 -0.2126 -0.3052 -0.3186
13114TIP3    H160833   4.276   6.466  12.131  0.7994 -0.0967  0.0781
13114TIP3    H260834   4.188   6.561  12.053  0.6887 -1.4982 -1.5664
13115TIP3   OH260835   6.032   4.447   4.802 -0.3253  0.1184 -0.3721
13115TIP3    H160836   5.953   4.395   4.784  0.2736 -0.2506 -2.1150
13115TIP3    H260837   6.015   4.531   4.759  0.9694 -0.6329 -2.4942
13116TIP3   OH260838   4.910   1.898   3.043  0.1582 -0.1274 -0.1372
13116TIP3    H160839   4.966   1.944   3.105 -1.0572 -0.4643  1.2460
13116TIP3    H260840   4.821   1.918   3.071 -0.4575  0.1490 -2.1033
13117TIP3   OH260841   1.406   2.056  11.677  0.5022  0.1953  0.1852
13117TIP3    H160842   1.478   2.081  11.735  0.9389 -0.4503 -0.0641
13117TIP3    H260843   1.440   2.070  11.589 -0.3815  1.7724  0.0656
13118TIP3   OH260844   5.946   3.006  13.477 -0.7740  0.1342 -0.1492
13118TIP3    H160845   5.948   2.918  13.514 -1.4331 -0.5376 -1.6029
13118TIP3    H260846   5.934   3.064  13.552 -0.1559 -0.9916  0.8595
13119TIP3   OH260847   4.635   0.587  10.432  0.0509  0.1580  0.3405
13119TIP3    H160848   4.581   0.522  10.477 -0.0602 -0.1632 -0.2407
13119TIP3    H260849   4.697   0.617  10.498 -0.5251  0.1745  0.8814
13120TIP3   OH260850   6.755   5.215  17.222  0.8293 -0.4433  0.2501
13120TIP3    H160851   6.810   5.139  17.242  0.3278 -0.8517  0.0906
13120TIP3    H260852   6.753   5.266  17.303  0.1947 -1.2102  0.7319
13121TIP3   OH260853   1.587   1.601  13.786 -0.3151  0.0992  0.8024
13121TIP3    H160854   1.601   1.685  13.743  1.6714 -0.1333  0.8623
13121TIP3    H260855   1.578   1.539  13.713 -1.8231  0.3365  0.7578
13122TIP3   OH260856   4.179   2.401  16.350  0.3765 -0.5917  0.1632
13122TIP3    H160857   4.125   2.373  16.276  0.9138  0.0308 -0.4719
13122TIP3    H260858   4.176   2.326  16.410  0.8996 -1.5968 -1.0111
13123TIP3   OH260859   0.999   5.744   6.224  0.7394 -0.4155 -0.1394
13123TIP3    H160860   1.026   5.686   6.296  2.0920  1.7468  1.2077
13123TIP3    H260861   0.912   5.775   6.250  0.7398 -0.5152 -0.0176
13124TIP3   OH260862   5.760   2.987  12.855  0.8499 -0.3608  0.3492
13124TIP3    H160863   5.754   3.066  12.909 -0.3879  0.8672 -1.4543
13124TIP3    H260864   5.838   3.002  12.801  0.9014 -0.6132  0.3533
13125TIP3   OH260865   5.562   6.607   3.026  0.1656  0.3150 -0.1083
13125TIP3    H160866   5.500   6.678   3.010 -1.1872 -0.8325 -0.0981
13125TIP3    H260867   5.563   6.597   3.121  0.7219  0.6233 -0.0773
13126TIP3   OH260868   5.038   2.483  11.521  0.1328  0.1136  0.6950
13126TIP3    H160869   5.049   2.558  11.462 -0.6880 -0.3012  0.0046
13126TIP3    H260870   5.029   2.408  11.463  0.9190 -0.5340  1.3807
13127TIP3   OH260871   3.037   1.030  15.723  0.4689 -0.1033 -0.0612
13127TIP3    H160872   3.079   0.990  15.647  0.9926  2.7765 -1.4129
13127TIP3    H260873   2.984   0.959  15.761  2.1304 -2.3101 -1.5978
13128TIP3   OH260874   6.759   3.424  15.814  0.3780  0.4195  0.8319
13128TIP3    H160875   6.849   3.400  15.833  0.1544 -0.6395  0.6132
13128TIP3    H260876   6.722   3.451  15.898  0.9278  0.9927  0.8958
13129TIP3   OH260877   0.005   1.177  14.249 -0.1435 -0.2442 -0.2779
13129TIP3    H160878   0.076   1.202  14.190  0.5905  1.3563  1.2060
13129TIP3    H260879  -0.066   1.148  14.190  0.6235  1.0484 -1.9267
13130TIP3   OH260880   2.562   4.672   0.268  0.1113 -0.3003  0.5702
13130TIP3    H160881   2.648   4.705   0.241 -0.0477 -0.1333  0.2646
13130TIP3    H260882   2.570   4.658   0.362  0.0952  0.9133  0.7714
13131TIP3   OH260883   0.995   4.962   1.872 -0.0976 -0.3765  0.0085
13131TIP3    H160884   1.021   4.917   1.952  1.4442  0.9466  0.2854
13131TIP3    H260885   0.916   5.010   1.897 -0.2025 -0.7607  0.4434
13132TIP3   OH260886   1.615   3.918   4.809  0.1244 -0.4212  0.2331
13132TIP3    H160887   1.625   3.927   4.714  0.7195  0.9562  0.4056
13132TIP3    H260888   1.534   3.966   4.829  0.3594 -0.1392  0.5054
13133TIP3   OH260889   5.695   6.132   0.364  0.4642 -0.3086  0.7711
13133TIP3    H160890   5.768   6.135   0.427  0.2321 -0.5111  1.0523
13133TIP3    H260891   5.681   6.223   0.339 -0.4275 -0.0319  2.1623
13134TIP3   OH260892   2.849   5.148  13.860 -0.1014 -0.0754 -0.7451
13134TIP3    H160893   2.929   5.183  13.821  0.1648  0.6994  0.4143
13134TIP3    H260894   2.862   5.053  13.861  1.5293  0.0921  0.8163
13135TIP3   OH260895   3.172   2.153  12.922  0.4422 -0.3268  0.4624
13135TIP3    H160896   3.156   2.238  12.964  4.0030  1.0038 -0.5793
13135TIP3    H260897   3.117   2.154  12.844 -1.2001  0.0188  1.5734
13136TIP3   OH260898   0.182   4.592   0.056 -0.1373 -0.5254 -0.3600
13136TIP3    H160899   0.220   4.574  -0.030  0.1464  1.1159 -0.6036
13136TIP3    H260900   0.250   4.566   0.118  0.6939  0.6550 -0.7387
13137TIP3   OH260901   1.550   5.304   1.144  0.1868  0.2536  0.6297
13137TIP3    H160902   1.603   5.225   1.135 -0.3114 -0.0723  0.4943
13137TIP3    H260903   1.513   5.317   1.057  1.4129  1.4759  0.2520
13138TIP3   OH260904   4.454   4.352  16.008 -0.1798 -0.7512  0.0956
13138TIP3    H160905   4.417   4.278  16.057  1.6800 -2.3618 -0.8075
13138TIP3    H260906   4.406   4.352  15.925 -1.0536 -0.1185  0.5920
13139TIP3   OH260907   0.475   1.729   0.240  0.4479 -0.5892  0.1075
13139TIP3    H160908   0.416   1.662   0.273  1.0363 -0.6848  1.0257
13139TIP3    H260909   0.460   1.804   0.298  0.5266 -0.2823 -0.2678
13140TIP3   OH260910   1.488   3.561  13.079 -0.3922 -0.2015 -0.4571
13140TIP3    H160911   1.451   3.543  13.166  0.3861 -1.2262 -0.3153
13140TIP3    H260912   1.449   3.644  13.053 -1.7197 -0.5579  0.2760
13141TIP3   OH260913   4.156   1.198  12.202  0.3382 -0.1260 -0.2206
13141TIP3    H160914   4.202   1.217  12.284  1.2037  0.2278 -0.7799
13141TIP3    H260915   4.223   1.205  12.134  0.0539 -2.2150 -0.7953
13142TIP3   OH260916   5.918   5.760  11.241  0.3093 -0.3406  0.4145
13142TIP3    H160917   5.868   5.812  11.303 -2.4513 -2.7160  0.4079
13142TIP3    H260918   5.895   5.797  11.155 -1.2288 -1.1526  0.4415
13143TIP3   OH260919   2.566   3.466   1.703 -0.2379  0.1887  0.1236
13143TIP3    H160920   2.575   3.382   1.746  0.6100 -0.4585 -1.2337
13143TIP3    H260921   2.612   3.528   1.760 -0.6444 -0.3029  0.9998
13144TIP3   OH260922   0.606   2.122   2.120  0.0795 -0.3380 -0.3055
13144TIP3    H160923   0.623   2.099   2.029  1.6739  1.9361 -0.6681
13144TIP3    H260924   0.551   2.200   2.116 -0.1951 -0.4566  0.7025
13145TIP3   OH260925   4.272   5.108   3.079 -0.1906 -0.2633 -0.0678
13145TIP3    H160926   4.303   5.137   2.993  2.2835  0.7987  1.0950
13145TIP3    H260927   4.335   5.041   3.105 -1.1814 -0.8960  0.7457
13146TIP3   OH260928   4.349   1.410  13.344 -0.3179  0.0589 -0.6171
13146TIP3    H160929   4.270   1.456  13.371 -0.5838  0.1633 -1.5314
13146TIP3    H260930   4.413   1.480  13.328 -0.1733  0.0005 -0.3002
13147TIP3   OH260931   2.350   6.315  11.730  0.3444  0.1994  0.2998
13147TIP3    H160932   2.296   6.360  11.795 -0.4406 -1.2478  0.6902
13147TIP3    H260933   2.295   6.243  11.699  1.9006 -1.1067  0.4280
13148TIP3   OH260934   2.935   0.029  16.884 -0.0708 -0.1970 -0.6527
13148TIP3    H160935   2.929   0.088  16.959  1.4909 -0.2999 -0.4185
13148TIP3    H260936   2.982  -0.048  16.918 -0.2296 -0.6724 -1.4860
13149TIP3   OH260937   2.948   5.479   5.815 -0.4130 -0.1289  0.0500
13149TIP3    H160938   2.913   5.509   5.899  3.6975  1.2196  1.5091
13149TIP3    H260939   2.935   5.553   5.756  1.0863  0.9147  0.9670
13150TIP3   OH260940   2.114   2.447   1.929  0.2161  1.0573  0.5170
13150TIP3    H160941   2.136   2.355   1.943  0.1732  0.7693 -1.1456
13150TIP3    H260942   2.027   2.445   1.888  0.0889  1.8623  0.7268
13151TIP3   OH260943   3.852   3.849   5.171  0.1611  0.0106  0.1718
13151TIP3    H160944   3.925   3.902   5.203  0.8640 -0.0949 -1.1529
13151TIP3    H260945   3.774   3.902   5.186  0.5192  0.1751  1.5056
13152TIP3   OH260946   4.593   5.011  15.688  0.5657 -0.3031  0.2236
13152TIP3    H160947   4.687   5.018  15.669  0.9149 -1.7598  1.2156
13152TIP3    H260948   4.563   4.942  15.629  0.0785  0.2339 -0.1653
13153TIP3   OH260949   1.111   2.860   4.903  0.1934  0.0034 -0.0099
13153TIP3    H160950   1.196   2.819   4.887 -0.9197 -2.7877  0.6126
13153TIP3    H260951   1.066   2.800   4.963 -2.1801  1.4167 -0.2266
13154TIP3   OH260952   0.595   0.859  16.585 -0.2293  0.1471  0.1404
13154TIP3    H160953   0.618   0.938  16.535  0.1380  0.2498  0.4731
13154TIP3    H260954   0.533   0.813  16.528 -2.1009  1.7045  0.8287
13155TIP3   OH260955   4.535   6.228   3.329  0.1981  0.3319 -0.6396
13155TIP3    H160956   4.455   6.197   3.285  0.3114 -1.7002  0.4740
13155TIP3    H260957   4.594   6.153   3.326  0.8589  0.7321  1.3921
13156TIP3   OH260958   4.294   4.113  13.216  0.1140 -0.3585 -0.1194
13156TIP3    H160959   4.338   4.061  13.148 -0.8543 -2.4859  0.7929
13156TIP3    H260960   4.361   4.127  13.283  0.9386  1.3444 -1.2297
13157TIP3   OH260961   3.271   0.522  14.985  0.1996 -0.1384  0.8275
13157TIP3    H160962   3.263   0.553  15.076  0.9570  3.2381 -0.1111
13157TIP3    H260963   3.346   0.571  14.950 -2.3202  1.6051 -2.6691
13158TIP3   OH260964   0.089   1.041   1.349 -0.0535  0.6055 -0.2554
13158TIP3    H160965   0.178   1.047   1.383 -0.7997  0.7515  1.8296
13158TIP3    H260966   0.034   1.074   1.419 -2.0247 -2.4181 -0.1636
13159TIP3   OH260967   0.681   6.564  15.771 -0.7608  0.0277 -0.0402
13159TIP3    H160968   0.759   6.508  15.770  0.4847  1.6742 -1.6235
13159TIP3    H260969   0.701   6.632  15.835 -1.2959 -0.0388  0.2035
13160TIP3   OH260970   1.639   0.476   2.715  0.8513  0.1527  0.2446
13160TIP3    H160971   1.560   0.449   2.669  0.1414  0.0818  1.4976
13160TIP3    H260972   1.666   0.557   2.670 -1.0787  1.3263  1.0596
13161TIP3   OH260973   3.476   6.291  11.554 -0.0750 -0.6048 -0.3333
13161TIP3    H160974   3.571   6.293  11.541 -0.1499  0.5924 -0.8566
13161TIP3    H260975   3.451   6.201  11.537  0.9102 -0.8322 -0.6522
13162TIP3   OH260976   3.478   1.126  13.615 -0.2661  0.2260  0.4063
13162TIP3    H160977   3.424   1.073  13.674 -1.1369 -0.7397 -1.1921
13162TIP3    H260978   3.493   1.070  13.539 -1.5476  2.3544 -1.5512
13163TIP3   OH260979   0.657   3.828  11.143  0.0676 -0.0201  0.1577
13163TIP3    H160980   0.657   3.868  11.230  0.5133 -1.5078  0.8739
13163TIP3    H260981   0.582   3.769  11.144 -0.3908  0.5306 -0.7623
13164TIP3   OH260982   3.200   5.100   0.984  0.0113  0.6551  0.5255
13164TIP3    H160983   3.250   5.174   1.016  0.7754  0.4970 -0.2674
13164TIP3    H260984   3.257   5.057   0.920 -1.0007  0.2799 -0.1606
13165TIP3   OH260985   3.597   4.288  15.257 -0.3446 -0.7199 -0.0608
13165TIP3    H160986   3.633   4.233  15.188  1.7410 -0.0813  0.4509
13165TIP3    H260987   3.538   4.348  15.211  1.8153  0.4120 -1.5586
13166TIP3   OH260988   3.929   4.223  10.979 -0.7480  0.1418 -0.8090
13166TIP3    H160989   3.913   4.131  11.001 -0.4114  0.6732  2.0619
13166TIP3    H260990   4.010   4.245  11.026 -1.3379  2.1458 -0.6507
13167TIP3   OH260991   6.351   4.064  12.809 -0.7229 -0.9233  0.8615
13167TIP3    H160992   6.425   4.070  12.749 -0.4466  1.2680  1.3566
13167TIP3    H260993   6.276   4.048  12.752 -0.8698  3.5185 -0.5489
13168TIP3   OH260994   6.138   0.899   4.884  0.2014  0.2323  0.0041
13168TIP3    H160995   6.083   0.822   4.867  1.2520 -0.5029 -0.1856
13168TIP3    H260996   6.199   0.900   4.811 -0.9801  2.3899 -1.0604
13169TIP3   OH260997   4.506   2.296  11.307 -0.3028 -0.3689  0.1759
13169TIP3    H160998   4.540   2.373  11.354 -0.1846 -1.5389  2.1302
13169TIP3    H260999   4.563   2.288  11.231  0.6280  0.6312  0.7343
13170TIP3   OH261000   4.536   5.183  10.760 -0.2427 -0.0290  0.1472
13170TIP3    H161001   4.513   5.275  10.777 -1.2767 -0.0846 -0.8115
13170TIP3    H261002   4.527   5.140  10.844 -2.0269  0.3141  0.1753
13171TIP3   OH261003   1.139   1.814  14.453 -0.2177  0.3006  0.1228
13171TIP3    H161004   1.111   1.844  14.367 -1.2694 -0.8693  0.0333
13171TIP3    H261005   1.222   1.768  14.436 -2.4375 -3.6926 -1.0601
13172TIP3   OH261006   2.525   5.552  13.034  0.0212 -0.3350 -0.0005
13172TIP3    H161007   2.599   5.555  12.973 -1.1676  1.2258 -1.4627
13172TIP3    H261008   2.565   5.563  13.120  1.3986  2.9550 -0.9153
13173TIP3   OH261009   2.862   5.233   4.051 -0.0234 -0.0706 -0.2762
13173TIP3    H161010   2.805   5.309   4.037 -1.2138 -0.7615  0.5405
13173TIP3    H261011   2.862   5.220   4.146 -0.3640 -1.4327 -0.4263
13174TIP3   OH261012   2.523   0.161  12.619  0.1759  0.2599  0.5208
13174TIP3    H161013   2.482   0.179  12.535 -0.3956 -0.2458  0.6843
13174TIP3    H261014   2.494   0.232  12.676 -0.9526 -0.3782  0.7860
13175TIP3   OH261015   3.393   3.891  13.016 -0.0096 -0.1016 -0.2968
13175TIP3    H161016   3.440   3.912  12.935 -1.8997  0.3246 -1.3560
13175TIP3    H261017   3.308   3.858  12.986 -0.1624 -1.5208  1.5116
13176TIP3   OH261018   3.226   0.531  12.579 -0.0173  0.4645 -0.3082
13176TIP3    H161019   3.312   0.499  12.551 -0.6577 -0.5997 -1.1195
13176TIP3    H261020   3.189   0.571  12.501 -0.6333  0.0998 -0.2035
13177TIP3   OH261021   6.209   0.537   1.418 -0.1903 -0.1818 -0.4755
13177TIP3    H161022   6.192   0.443   1.413  0.1647 -0.3179  0.6898
13177TIP3    H261023   6.178   0.563   1.504  0.6387  0.5745 -0.3891
13178TIP3   OH261024   3.799   5.988   2.840  0.0534 -0.1941 -0.0724
13178TIP3    H161025   3.805   5.892   2.844 -0.3844 -0.2485  4.0830
13178TIP3    H261026   3.883   6.015   2.803  0.9706 -2.1859  0.3831
13179TIP3   OH261027   2.710   5.104  13.575  0.2124 -0.2469 -0.1715
13179TIP3    H161028   2.706   5.117  13.670  1.2905 -0.3802 -0.1015
13179TIP3    H261029   2.750   5.185  13.542  1.0616 -0.7368 -0.3708
13180TIP3   OH261030   3.925   3.949   0.396 -0.2868  0.2082 -0.2044
13180TIP3    H161031   3.937   4.031   0.445  0.5296  1.0091 -1.6624
13180TIP3    H261032   3.912   3.883   0.463  0.2886  1.3366  1.0802
13181TIP3   OH261033   5.069   2.726  13.952  0.2028 -0.3820  0.2978
13181TIP3    H161034   5.158   2.748  13.925  0.1166 -0.0638  0.2675
13181TIP3    H261035   5.044   2.796  14.012 -0.5717  0.3622 -0.8409
13182TIP3   OH261036   0.013   2.758   2.905 -0.6169 -0.2997  0.1351
13182TIP3    H161037  -0.025   2.675   2.933 -0.3766 -0.8428 -1.0925
13182TIP3    H261038   0.050   2.740   2.818  0.6845  0.7121  0.4329
13183TIP3   OH261039   4.830   4.709   2.844  0.3724  0.0051 -0.3109
13183TIP3    H161040   4.903   4.769   2.858  0.3095 -0.3144  1.6293
13183TIP3    H261041   4.825   4.658   2.924 -0.9577 -1.1105 -1.0605
13184TIP3   OH261042   2.945   2.386   0.675 -0.1792 -0.3397  0.4167
13184TIP3    H161043   2.964   2.450   0.743 -0.3337 -0.2334  0.3581
13184TIP3    H261044   2.853   2.364   0.687 -0.7157  1.0094 -0.8795
13185TIP3   OH261045   1.449   1.633  13.113  0.2649  0.6202  0.9330
13185TIP3    H161046   1.499   1.559  13.079 -1.3188 -0.2764  0.4916
13185TIP3    H261047   1.505   1.709  13.095  1.1758 -0.2645 -0.1516
13186TIP3   OH261048   6.162   0.509  12.694 -0.2981  0.2919  0.4966
13186TIP3    H161049   6.236   0.454  12.672 -0.5989  0.2395 -0.3976
13186TIP3    H261050   6.124   0.535  12.610 -0.4895  1.4130  0.9083
13187TIP3   OH261051   3.171   0.097  15.964  0.2106 -0.2838 -0.0263
13187TIP3    H161052   3.160   0.070  16.055  0.4617 -1.4580 -0.3275
13187TIP3    H261053   3.263   0.125  15.959 -0.0874  0.8021  0.3200
13188TIP3   OH261054   1.893   2.061   2.370 -0.3584  0.2436 -0.4065
13188TIP3    H161055   1.831   2.083   2.439 -0.6524 -1.7888  0.0545
13188TIP3    H261056   1.867   2.116   2.296 -1.5762  0.7313  0.3561
13189TIP3   OH261057   4.286   6.105  13.172 -0.2793 -0.3365  0.1735
13189TIP3    H161058   4.326   6.026  13.135  1.2696  0.3878  0.1995
13189TIP3    H261059   4.347   6.176  13.149  0.0811  0.3658  2.8803
13190TIP3   OH261060   1.869   1.856  16.790 -0.2659 -0.2094  0.3919
13190TIP3    H161061   1.908   1.780  16.834  0.2690 -0.0061  0.2782
13190TIP3    H261062   1.775   1.843  16.798 -0.1969  0.0874  2.0683
13191TIP3   OH261063   0.714   4.751  15.824 -0.0451  0.1265 -0.2395
13191TIP3    H161064   0.750   4.817  15.883 -1.0234 -0.6012  1.2346
13191TIP3    H261065   0.771   4.675  15.833 -0.9615 -0.4545  0.8372
13192TIP3   OH261066   5.690   2.232  12.302 -0.5276  0.0487 -0.4330
13192TIP3    H161067   5.726   2.163  12.358 -1.9529 -1.3480 -1.1764
13192TIP3    H261068   5.766   2.279  12.269  0.5361 -1.7312 -0.6060
13193TIP3   OH261069   4.708   0.484  14.039  0.5863 -0.4887 -0.0427
13193TIP3    H161070   4.793   0.445  14.060 -0.0589 -1.2954  1.1448
13193TIP3    H261071   4.706   0.565  14.089  0.3813 -0.8076  0.4693
13194TIP3   OH261072   0.641   6.060  13.126  0.6687  0.0983  0.4529
13194TIP3    H161073   0.721   6.010  13.108  0.2468 -0.3168 -0.3361
13194TIP3    H261074   0.653   6.141  13.076  0.9362  0.3756  0.9642
13195TIP3   OH261075   0.005   6.040   2.044  0.7263  0.2285 -0.3713
13195TIP3    H161076  -0.034   5.952   2.048  2.4207 -0.6175 -1.5643
13195TIP3    H261077  -0.051   6.088   1.983  0.8959 -0.6462 -1.2396
13196TIP3   OH261078   5.805   0.534   1.703 -0.3664  0.0594  0.1446
13196TIP3    H161079   5.806   0.466   1.770  1.5218 -0.6592 -0.5613
13196TIP3    H261080   5.761   0.608   1.745 -1.6952 -1.2671  1.2228
13197TIP3   OH261081   0.725   2.124  14.580  0.0099 -0.2616  0.4835
13197TIP3    H161082   0.750   2.036  14.609  0.1780 -0.6629 -0.8142
13197TIP3    H261083   0.631   2.118  14.562  0.7449 -1.6409 -4.2158
13198TIP3   OH261084   2.173   1.114  17.117 -0.0737 -0.1725  0.0162
13198TIP3    H161085   2.256   1.105  17.165  0.1452 -1.3923 -0.5585
13198TIP3    H261086   2.107   1.082  17.179 -0.3909  2.3478  1.1115
13199TIP3   OH261087   4.323   0.983  13.754 -0.1617  0.6750  0.0212
13199TIP3    H161088   4.290   1.063  13.793  0.5279  1.2963 -0.6277
13199TIP3    H261089   4.301   0.991  13.661  0.2881  0.3077 -0.1210
13200TIP3   OH261090   3.887   3.382  10.174 -0.5696 -0.7267  0.5338
13200TIP3    H161091   3.912   3.431  10.251 -3.2274  1.0443  0.4011
13200TIP3    H261092   3.858   3.448  10.111 -0.6909 -2.2547 -1.1086
13201TIP3   OH261093   5.935   0.023  16.859 -0.2048 -0.2135  0.2762
13201TIP3    H161094   6.003  -0.023  16.909  0.6183  0.7207  0.0471
13201TIP3    H261095   5.940  -0.014  16.771  0.5420  0.3869  0.0595
13202TIP3   OH261096   0.943   6.405  12.095  0.0186 -0.1112  0.6524
13202TIP3    H161097   0.964   6.497  12.111  0.7925 -0.4822  1.8605
13202TIP3    H261098   0.989   6.384  12.013 -1.3912  0.9538 -0.4671
13203TIP3   OH261099   5.370   5.084   1.100 -0.3844 -0.1446 -0.0949
13203TIP3    H161100   5.286   5.078   1.054  0.3598  1.9895 -1.8698
13203TIP3    H261101   5.362   5.163   1.154  1.3560  1.7618 -2.4116
13204TIP3   OH261102   4.758   5.012   3.020  0.4345  0.2418  0.5710
13204TIP3    H161103   4.663   5.023   3.024  0.6739  3.5567  0.0484
13204TIP3    H261104   4.791   5.098   2.995  3.4516 -1.4477 -2.0079
13205TIP3   OH261105   5.358   4.411  12.711  0.2657 -0.1079  0.1840
13205TIP3    H161106   5.340   4.426  12.804 -0.7943  0.2494 -0.0568
13205TIP3    H261107   5.282   4.362  12.680  0.6464 -0.2853 -0.4763
13206TIP3   OH261108   4.673   3.667   1.288 -0.2666  0.6946 -0.4367
13206TIP3    H161109   4.683   3.733   1.219 -0.0114  0.3380 -0.7455
13206TIP3    H261110   4.739   3.601   1.268 -2.1905 -1.0066 -1.7100
13207TIP3   OH261111   5.110   3.287   5.123  0.1922 -0.4913 -0.4248
13207TIP3    H161112   5.141   3.205   5.085 -2.0649 -0.3808 -2.7434
13207TIP3    H261113   5.096   3.345   5.048 -0.9628  1.0437  0.8978
13208TIP3   OH261114   5.010   6.227  13.160  0.4091 -0.3257  0.6555
13208TIP3    H161115   5.006   6.152  13.220 -0.9389  0.0872  1.1124
13208TIP3    H261116   5.047   6.190  13.079 -0.2725 -1.5018  0.8536
13209TIP3   OH261117   0.526   6.259  11.557  0.3166 -0.5669  0.2157
13209TIP3    H161118   0.442   6.302  11.543  0.1310 -1.0867 -0.2832
13209TIP3    H261119   0.541   6.265  11.651  0.0438  0.1160  0.2194
13210TIP3   OH261120   4.419   6.688   6.205 -0.4905  0.1233 -0.6357
13210TIP3    H161121   4.491   6.624   6.209 -0.5496 -0.1373 -2.6891
13210TIP3    H261122   4.367   6.670   6.283  1.0881 -0.3839  0.3452
13211TIP3   OH261123   3.780   4.054   3.489 -0.2514  0.4158  0.3761
13211TIP3    H161124   3.867   4.025   3.515 -0.0477  0.2612 -0.4429
13211TIP3    H261125   3.766   4.135   3.538  1.5765  2.0639 -1.5948
13212TIP3   OH261126   4.666   4.628  14.547  0.0565  0.5640  0.1719
13212TIP3    H161127   4.761   4.619  14.548  0.0702  0.4088  2.5634
13212TIP3    H261128   4.650   4.712  14.592 -0.9814 -0.9416  2.8253
13213TIP3   OH261129   4.060   5.000   5.770  0.3727 -0.4939 -0.0990
13213TIP3    H161130   4.030   5.001   5.861  0.4052 -0.9335 -0.0808
13213TIP3    H261131   4.090   4.910   5.756  0.2648 -0.4557 -0.5771
13214TIP3   OH261132   5.971   2.819   5.436  0.5825 -0.2456 -0.4468
13214TIP3    H161133   5.984   2.842   5.344  1.1015 -0.6096 -0.4702
13214TIP3    H261134   5.933   2.897   5.475  1.6064  0.3878 -0.6800
13215TIP3   OH261135   5.795   5.141  10.557  0.3403  0.0415 -0.5273
13215TIP3    H161136   5.794   5.236  10.565 -0.3716  0.1187 -1.4083
13215TIP3    H261137   5.731   5.110  10.621 -0.2132  0.2263 -0.9865
13216TIP3   OH261138   4.859   0.065  14.050  0.4043  0.2937  0.0147
13216TIP3    H161139   4.787   0.123  14.022  1.0974  1.2181  0.0849
13216TIP3    H261140   4.935   0.123  14.057  1.2555 -0.7302 -0.4133
13217TIP3   OH261141   2.380   4.644  11.566  0.4315  0.1663 -0.5976
13217TIP3    H161142   2.448   4.609  11.507  1.0469 -1.4632  0.9687
13217TIP3    H261143   2.303   4.591  11.547 -1.0279  2.9598 -3.4137
13218TIP3   OH261144   3.078   3.302  13.353 -0.4387  0.0762 -0.5401
13218TIP3    H161145   3.128   3.376  13.387 -0.8674 -0.5790  1.7154
13218TIP3    H261146   2.990   3.337  13.338 -0.7004  0.0313  0.7322
13219TIP3   OH261147   5.595   4.863   1.650 -0.5691 -0.1038 -0.5066
13219TIP3    H161148   5.650   4.884   1.726 -0.7907 -1.9979  0.2450
13219TIP3    H261149   5.544   4.943   1.635  1.3067  1.2162 -0.3357
13220TIP3   OH261150   1.049   1.472  17.236  0.0530 -0.3730  0.0309
13220TIP3    H161151   1.047   1.473  17.332  2.4295  3.8632  0.2841
13220TIP3    H261152   0.991   1.544  17.211  2.0432  0.7945 -1.4577
13221TIP3   OH261153   6.417   2.125   6.077  0.7504  0.5456  0.4635
13221TIP3    H161154   6.434   2.046   6.128  1.7448  2.0221  2.5354
13221TIP3    H261155   6.326   2.148   6.098  0.3847 -0.1163 -0.3152
13222TIP3   OH261156   0.472   5.367  14.602 -0.4608  0.2566  0.0238
13222TIP3    H161157   0.435   5.303  14.542 -0.7109 -0.6223  1.0985
13222TIP3    H261158   0.566   5.367  14.581 -0.8301  1.8902 -2.1264
13223TIP3   OH261159   1.111   1.657   2.119  0.2034 -0.1842  0.2213
13223TIP3    H161160   1.129   1.587   2.182  0.2990 -0.2211  0.1533
13223TIP3    H261161   1.023   1.687   2.142  0.4378  0.1452  0.6883
13224TIP3   OH261162   5.137   4.790  14.682 -0.1133  0.7744 -0.0389
13224TIP3    H161163   5.224   4.781  14.722  0.9668 -1.1283 -2.5312
13224TIP3    H261164   5.150   4.850  14.609 -0.9093  0.5576 -0.3728
13225TIP3   OH261165   2.092   5.759  14.802  0.6275 -0.9655  0.3763
13225TIP3    H161166   2.171   5.772  14.750 -0.9055  0.0262 -1.8488
13225TIP3    H261167   2.047   5.843  14.799 -1.3221 -1.9622  0.1389
13226TIP3   OH261168   3.208   4.634  14.583  0.1321 -0.4190 -0.2648
13226TIP3    H161169   3.126   4.684  14.579 -0.2131 -0.9852 -0.3586
13226TIP3    H261170   3.213   4.590  14.498 -0.2567 -1.6183  0.3206
13227TIP3   OH261171   6.534   1.154  12.182 -0.2616  0.3114  0.4576
13227TIP3    H161172   6.537   1.184  12.273  0.5835 -0.0175  0.5551
13227TIP3    H261173   6.563   1.229  12.130 -1.1503  0.6318  0.4182
13228TIP3   OH261174   2.187   5.373   2.710  0.4191 -0.5964 -0.1888
13228TIP3    H161175   2.140   5.319   2.647  1.4720  1.0161 -2.4748
13228TIP3    H261176   2.257   5.316   2.742 -1.7387 -2.3522  1.7667
13229TIP3   OH261177   5.583   3.378   2.038  0.1716  0.1062 -0.0389
13229TIP3    H161178   5.525   3.326   2.093 -0.4564  0.3772 -0.4437
13229TIP3    H261179   5.670   3.368   2.078  0.4353 -2.7203 -1.1192
13230TIP3   OH261180   0.568   6.466   2.368  0.3562  0.4676 -0.1157
13230TIP3    H161181   0.504   6.452   2.437  0.0036  0.4254 -0.4466
13230TIP3    H261182   0.526   6.529   2.309  1.5323  2.2626  0.8680
13231TIP3   OH261183   2.257   2.741   4.242  0.4644 -0.1100  0.0222
13231TIP3    H161184   2.312   2.702   4.174  1.6082  0.6276  0.5030
13231TIP3    H261185   2.317   2.762   4.313 -0.6629 -0.5632  1.1490
13232TIP3   OH261186   2.063   4.061   0.752  0.6176 -0.0844  0.1859
13232TIP3    H161187   2.081   4.151   0.778  3.4083 -0.5899  0.2908
13232TIP3    H261188   2.075   4.060   0.657 -0.9555 -0.0559 -0.0343
13233TIP3   OH261189   0.087   3.378  16.385 -0.4839 -0.0340  0.0253
13233TIP3    H161190   0.173   3.352  16.418 -0.5712  0.0923  0.3554
13233TIP3    H261191   0.097   3.378  16.290 -0.0974  0.0511  0.0639
13234TIP3   OH261192   5.207   4.954   2.626  0.0277  0.0714  0.2034
13234TIP3    H161193   5.208   4.859   2.640 -0.6902  0.2997  2.1838
13234TIP3    H261194   5.298   4.981   2.631  0.1212 -0.3667  1.0355
13235TIP3   OH261195   2.745   4.607   4.307  1.0028 -0.2346  0.8063
13235TIP3    H161196   2.717   4.698   4.311  0.8728 -0.1847 -0.7113
13235TIP3    H261197   2.664   4.557   4.293  1.2412 -0.4314  0.0819
13236TIP3   OH261198   5.686   1.656  16.544 -0.2596  0.0856  0.0139
13236TIP3    H161199   5.717   1.714  16.474  0.1583  0.9400  0.8955
13236TIP3    H261200   5.732   1.574  16.529  2.1117  1.1484  0.9727
13237TIP3   OH261201   1.904   2.390   6.437 -0.2586 -0.0561 -0.1125
13237TIP3    H161202   1.828   2.443   6.459 -0.6238  0.9523 -3.3055
13237TIP3    H261203   1.977   2.431   6.483 -1.2433  0.5051  0.9607
13238TIP3   OH261204   2.894   1.963   3.999  0.0502 -0.0446 -0.0817
13238TIP3    H161205   2.926   1.948   3.910 -1.1788 -0.8308 -0.4236
13238TIP3    H261206   2.839   2.040   3.993  1.6549  1.1956  0.4681
13239TIP3   OH261207   2.242   4.946  14.001  0.4325  0.4442  0.4124
13239TIP3    H161208   2.189   4.925  14.078 -0.2046 -0.1128 -0.1656
13239TIP3    H261209   2.222   5.038  13.983 -1.3349 -0.0721 -0.5284
13240TIP3   OH261210   5.600   6.288  17.234  0.5132 -0.5159 -0.0550
13240TIP3    H161211   5.533   6.259  17.172  0.3464 -0.5483  0.1367
13240TIP3    H261212   5.666   6.333  17.180  0.0432  0.0448 -0.1741
13241TIP3   OH261213   2.831   2.887  16.701 -0.1581  0.2330 -0.4133
13241TIP3    H161214   2.879   2.924  16.626  0.4320  2.1506  0.8317
13241TIP3    H261215   2.874   2.925  16.778 -2.3167  0.3166  0.8222
13242TIP3   OH261216   2.747   1.457  10.941  0.2523 -0.3841 -0.1932
13242TIP3    H161217   2.703   1.542  10.935  3.5373  1.3931 -2.1715
13242TIP3    H261218   2.730   1.415  10.857  0.6489 -0.5425 -0.1985
13243TIP3   OH261219   0.787   4.030   1.120  0.2300  0.4015 -0.7177
13243TIP3    H161220   0.779   3.997   1.031 -0.7018  0.2410 -0.5831
13243TIP3    H261221   0.857   3.977   1.159 -0.2343 -0.4198 -0.9627
13244TIP3   OH261222   1.340   2.663  10.761 -0.1665  0.5433  0.0614
13244TIP3    H161223   1.249   2.653  10.790 -0.8766  0.8083 -1.9238
13244TIP3    H261224   1.349   2.757  10.744  0.0959  0.3502 -0.9004
13245TIP3   OH261225   0.145   5.853  16.950  0.5228  0.8695  0.3203
13245TIP3    H161226   0.128   5.873  17.042 -0.6190  1.9287 -0.1035
13245TIP3    H261227   0.086   5.909  16.901  1.3648  0.5856 -1.0921
13246TIP3   OH261228   4.576   0.169  14.886 -0.0233  0.1493 -0.2711
13246TIP3    H161229   4.610   0.082  14.866  2.2350  0.9694 -0.3226
13246TIP3    H261230   4.654   0.223  14.895 -1.3406  1.9785  0.7196
13247TIP3   OH261231   0.956   0.795  13.768  0.5930  0.0761  0.0307
13247TIP3    H161232   0.876   0.838  13.798  1.6605  1.7247  0.6580
13247TIP3    H261233   0.996   0.856  13.707  2.0234 -0.1211  0.7224
13248TIP3   OH261234   3.417   1.439  16.122  0.1521  0.4746 -0.3156
13248TIP3    H161235   3.442   1.505  16.056 -1.5210  0.3633 -1.1100
13248TIP3    H261236   3.449   1.356  16.087 -0.4167  0.4668 -0.8326
13249TIP3   OH261237   0.193   0.477   6.660  0.2818  0.4957 -0.2154
13249TIP3    H161238   0.167   0.442   6.575  0.0114  0.0511  0.0427
13249TIP3    H261239   0.199   0.400   6.716 -0.4647  0.8768  0.4047
13250TIP3   OH261240   2.612   4.653  13.067  0.3054  0.3263  0.3318
13250TIP3    H161241   2.677   4.585  13.046  0.5431  0.7332 -0.2812
13250TIP3    H261242   2.597   4.698  12.984  0.5786  1.3882  0.8378
13251TIP3   OH261243   4.466   6.344  11.577 -0.4269  0.2155 -0.4810
13251TIP3    H161244   4.407   6.283  11.532  0.7263 -0.7785 -0.6916
13251TIP3    H261245   4.420   6.366  11.658 -1.4278  0.0808 -0.9910
13252TIP3   OH261246   5.768   4.613   3.636 -0.1749 -0.1433  0.0276
13252TIP3    H161247   5.761   4.569   3.721 -1.5145  0.0022  0.0180
13252TIP3    H261248   5.693   4.581   3.587 -0.4686  1.1961 -0.4301
13253TIP3   OH261249   0.659   0.509  12.347 -0.1556 -0.3925  0.2999
13253TIP3    H161250   0.659   0.413  12.348  0.6920 -0.4039  1.5525
13253TIP3    H261251   0.569   0.533  12.324 -0.4064 -1.4785  0.0918
13254TIP3   OH261252   3.946   2.309  12.452  0.2024 -0.7526  0.5820
13254TIP3    H161253   3.854   2.283  12.442  0.1199 -0.6740  1.1251
13254TIP3    H261254   3.957   2.381  12.390 -0.4510  0.0772  1.3961
13255TIP3   OH261255   0.850   4.447  14.694 -0.2846  0.3668  0.3860
13255TIP3    H161256   0.893   4.416  14.773 -0.8081  0.2566  0.6309
13255TIP3    H261257   0.922   4.478  14.638  0.0862  0.4238  0.8898
13256TIP3   OH261258   5.605   6.790  14.471  0.0244  0.4755 -0.3378
13256TIP3    H161259   5.671   6.720  14.469 -0.0379  0.4271 -1.4060
13256TIP3    H261260   5.600   6.820  14.380 -0.6469  1.2180 -0.0609
13257TIP3   OH261261   1.276   3.395  11.310  0.4490 -0.4891  0.5494
13257TIP3    H161262   1.252   3.430  11.224  0.8687 -0.7986  0.3070
13257TIP3    H261263   1.330   3.463  11.350  0.9109 -0.6828  0.2501
13258TIP3   OH261264   0.132   0.321   0.371  0.1323 -0.1344 -0.2514
13258TIP3    H161265   0.113   0.304   0.464  0.8383 -0.1054 -0.1002
13258TIP3    H261266   0.072   0.392   0.348  0.2969  0.1994  0.3235
13259TIP3   OH261267   4.426   0.993  15.247 -0.3145 -0.0354  0.1271
13259TIP3    H161268   4.511   1.011  15.206 -0.2548  0.6339  0.5351
13259TIP3    H261269   4.362   1.009  15.177 -0.0672 -1.3644 -0.4296
13260TIP3   OH261270   1.871   3.469   3.783  0.0431 -0.1709 -0.1879
13260TIP3    H161271   1.801   3.428   3.835 -0.1672 -1.1412 -1.1918
13260TIP3    H261272   1.825   3.525   3.720  0.1352 -0.9808 -0.9957
13261TIP3   OH261273   1.079   4.632  17.144  0.0375 -0.3719 -0.0745
13261TIP3    H161274   1.071   4.685  17.065  1.4855 -0.2108 -0.1499
13261TIP3    H261275   1.152   4.672  17.192 -0.7701 -0.5159  1.3063
13262TIP3   OH261276   6.585   1.801   5.389 -0.1908  0.4335 -0.3570
13262TIP3    H161277   6.539   1.885   5.390  0.1697  0.6267 -0.1900
13262TIP3    H261278   6.673   1.821   5.420  0.3219  0.2354 -1.6627
13263TIP3   OH261279   3.407   4.947   1.193  0.1042 -1.0765  0.1751
13263TIP3    H161280   3.430   4.859   1.222  2.9364 -0.7270 -0.6504
13263TIP3    H261281   3.446   4.954   1.106 -2.9348 -0.0723 -1.2281
13264TIP3   OH261282   0.937   2.150  15.011  0.0219  0.7192  0.1395
13264TIP3    H161283   0.937   2.097  15.091 -0.2559 -1.0205 -0.9656
13264TIP3    H261284   1.027   2.181  15.003 -0.0103  1.1515  1.2560
13265TIP3   OH261285   1.596   1.222  15.812  0.1205  0.4446  0.3377
13265TIP3    H161286   1.502   1.229  15.792  0.1535  1.2194  0.4087
13265TIP3    H261287   1.629   1.156  15.751 -0.0678  1.7029 -1.1848
13266TIP3   OH261288   4.052   6.296   1.753  0.1027 -0.3745 -0.2109
13266TIP3    H161289   4.037   6.270   1.662 -2.1121  0.6780 -0.2165
13266TIP3    H261290   4.125   6.242   1.782 -0.1326 -1.8302 -2.1489
13267TIP3   OH261291   3.638   1.267   2.325  0.0374 -0.2013 -0.6968
13267TIP3    H161292   3.676   1.354   2.337 -0.6131 -0.1228  1.0823
13267TIP3    H261293   3.690   1.228   2.255  1.0364  1.2229 -0.7914
13268TIP3   OH261294   3.212   3.358   2.759  0.1430 -0.0241 -1.0728
13268TIP3    H161295   3.229   3.451   2.747 -1.1096  0.4734  0.6263
13268TIP3    H261296   3.289   3.315   2.724  0.1708  1.5664 -3.1381
13269TIP3   OH261297   1.560   1.503   1.575 -0.4155  0.0123 -0.4726
13269TIP3    H161298   1.646   1.513   1.616 -0.4370  0.6887 -0.5856
13269TIP3    H261299   1.545   1.409   1.575  1.0785 -0.2732 -1.9774
13270TIP3   OH261300   6.552   3.151  13.111  0.1945 -0.6916 -0.1377
13270TIP3    H161301   6.569   3.196  13.194  1.0762  0.1422 -0.7456
13270TIP3    H261302   6.458   3.161  13.097  0.0684 -0.6830  0.6602
13271TIP3   OH261303   1.306   1.957   0.697 -0.5373 -0.0268  0.1757
13271TIP3    H161304   1.332   1.888   0.758 -1.2231  1.9004  2.8085
13271TIP3    H261305   1.366   2.029   0.714  1.1214 -0.2850 -3.5425
13272TIP3   OH261306   1.982   4.449   2.548 -0.3028 -0.0159 -0.2173
13272TIP3    H161307   1.982   4.387   2.475  0.6705  0.3699 -0.5664
13272TIP3    H261308   2.029   4.405   2.618  0.4595  0.3381 -0.4925
13273TIP3   OH261309   3.300   2.899  11.251 -0.0804  0.3307  0.1641
13273TIP3    H161310   3.276   2.973  11.307  2.3104  1.0584  0.3123
13273TIP3    H261311   3.297   2.823  11.310  0.3076  0.7637  0.7601
13274TIP3   OH261312   0.072   0.978  12.529 -0.3973 -0.4399  0.0662
13274TIP3    H161313   0.016   1.034  12.474 -0.4752 -0.8606 -0.2843
13274TIP3    H261314   0.061   0.890  12.494  3.0491 -0.1431 -2.2093
13275TIP3   OH261315   0.207   6.236   1.294 -0.2651  0.3003 -0.1516
13275TIP3    H161316   0.142   6.256   1.361  2.0489  0.1625  2.2869
13275TIP3    H261317   0.240   6.321   1.266 -1.2282  0.3581 -1.2001
13276TIP3   OH261318   0.306   3.482  14.652  0.3887 -0.2634 -0.6413
13276TIP3    H161319   0.275   3.523  14.733 -2.7731 -0.9986 -1.3236
13276TIP3    H261320   0.289   3.389  14.664  2.9047 -0.8370 -0.9846
13277TIP3   OH261321   4.481   2.810   4.134  0.2702  0.5092  0.3788
13277TIP3    H161322   4.511   2.900   4.142  0.5638  0.5277 -0.7429
13277TIP3    H261323   4.407   2.804   4.194 -0.1303  1.6665  0.0228
13278TIP3   OH261324   3.634   5.573  13.262  0.0911  0.0646 -0.3132
13278TIP3    H161325   3.705   5.560  13.325 -0.0133 -0.0680 -0.2218
13278TIP3    H261326   3.590   5.652  13.291 -0.2966 -0.3023  0.1035
13279TIP3   OH261327   5.022   4.348   0.690  0.7287 -0.0184 -0.8090
13279TIP3    H161328   5.009   4.258   0.658 -0.3531 -0.2597  0.2461
13279TIP3    H261329   4.950   4.398   0.652  1.2307  0.3881 -1.2529
13280TIP3   OH261330   6.766   3.009  12.089 -0.0294 -0.0773 -0.0603
13280TIP3    H161331   6.674   3.030  12.077 -0.4353 -1.9651 -0.6901
13280TIP3    H261332   6.813   3.072  12.035 -1.1144 -0.5609 -1.6513
13281TIP3   OH261333   4.604   4.789   4.557  0.0915 -0.3266  0.2992
13281TIP3    H161334   4.567   4.798   4.645  0.4813  3.1263  0.2588
13281TIP3    H261335   4.699   4.790   4.571  0.2223  2.4668 -0.1416
13282TIP3   OH261336   5.859   1.987   4.908 -0.5446  0.9846 -0.1311
13282TIP3    H161337   5.949   1.970   4.880  0.0315  1.3934  1.3539
13282TIP3    H261338   5.808   1.985   4.827  0.5896 -0.4969 -0.8723
13283TIP3   OH261339   2.885   5.433  13.722 -0.6603  0.4401 -0.0340
13283TIP3    H161340   2.859   5.421  13.631 -0.6313 -1.3087  0.1498
13283TIP3    H261341   2.967   5.384  13.729 -0.8915  0.1964  1.0425
13284TIP3   OH261342   4.244   2.852   3.503 -0.0893  0.3916 -0.4909
13284TIP3    H161343   4.208   2.842   3.591 -0.1711  0.0856 -0.5577
13284TIP3    H261344   4.182   2.807   3.446  0.6258 -0.5573 -0.5542
13285TIP3   OH261345   5.889   4.541   1.984  0.7140  0.0238 -0.1518
13285TIP3    H161346   5.803   4.531   1.942  1.0350  2.0801 -1.3982
13285TIP3    H261347   5.880   4.493   2.067 -2.1712  1.4916  0.5148
13286TIP3   OH261348   1.315   4.907  11.346  0.6251  0.2560 -0.5745
13286TIP3    H161349   1.338   4.960  11.269 -2.8388  0.3632 -1.7167
13286TIP3    H261350   1.255   4.840  11.312  0.4125 -0.8556  1.7755
13287TIP3   OH261351   0.844   5.335  13.817  0.3952 -0.2907 -0.6263
13287TIP3    H161352   0.822   5.419  13.857 -0.4021 -1.1325  0.8321
13287TIP3    H261353   0.759   5.296  13.795  0.7213 -0.9439 -0.7519
13288TIP3   OH261354   2.073   5.141  12.234  0.2265  0.0852 -0.5192
13288TIP3    H161355   2.030   5.056  12.242  0.5151 -0.1308 -1.1463
13288TIP3    H261356   2.164   5.124  12.261 -0.5457  1.0666  3.2747
13289TIP3   OH261357   1.471   0.825   1.827 -0.3709  0.5172  0.1920
13289TIP3    H161358   1.482   0.761   1.757  0.3929  0.7534  0.0910
13289TIP3    H261359   1.426   0.899   1.785  1.2265  1.2024 -0.3956
13290TIP3   OH261360   4.198   5.397  11.212  0.7374 -0.2557  0.1126
13290TIP3    H161361   4.292   5.394  11.192  0.4393  0.3264 -1.5514
13290TIP3    H261362   4.162   5.317  11.173 -0.0673  1.5370 -3.2122
13291TIP3   OH261363   2.262   1.253   5.986 -0.2323 -0.3895  0.0217
13291TIP3    H161364   2.309   1.325   6.029 -0.1876 -0.2295 -0.2927
13291TIP3    H261365   2.203   1.220   6.053  0.3373 -0.6015  0.4318
13292TIP3   OH261366   3.384   4.902  16.912 -0.0705  0.3694 -0.2963
13292TIP3    H161367   3.376   4.813  16.948 -0.4308  0.2058 -0.7626
13292TIP3    H261368   3.478   4.918  16.910 -0.0501  0.6102  1.2356
13293TIP3   OH261369   6.321   3.426  14.900 -0.2679  0.4053  0.0731
13293TIP3    H161370   6.248   3.445  14.840 -0.3077 -0.1803 -0.0749
13293TIP3    H261371   6.283   3.435  14.987 -0.2650  1.0548  0.0119
13294TIP3   OH261372   3.967   0.455   2.998  0.4202  0.4444  0.6000
13294TIP3    H161373   3.927   0.427   2.916  0.6190  2.4529 -0.2400
13294TIP3    H261374   4.020   0.380   3.026  0.3918 -0.2597 -1.1452
13295TIP3   OH261375   5.853   1.492  13.852  0.0123 -0.0527 -0.7234
13295TIP3    H161376   5.813   1.554  13.914 -0.2638  1.0330 -1.9598
13295TIP3    H261377   5.787   1.424  13.841 -1.2328  1.3026 -2.1059
13296TIP3   OH261378   1.300   5.944   5.991  0.1951  0.0275 -0.9062
13296TIP3    H161379   1.336   5.951   5.902 -0.2618 -1.5246 -1.2356
13296TIP3    H261380   1.376   5.930   6.047  0.2800 -1.7233 -1.4129
13297TIP3   OH261381   3.496   3.201   3.370  0.6299  0.1947  0.1796
13297TIP3    H161382   3.456   3.253   3.301  0.6759  0.4658  0.3581
13297TIP3    H261383   3.422   3.171   3.423  0.4231 -1.3621 -0.8956
13298TIP3   OH261384   2.537   2.302  12.734 -0.4399 -0.7030 -0.6724
13298TIP3    H161385   2.618   2.265  12.700  1.6016  2.0243  0.8523
13298TIP3    H261386   2.486   2.325  12.656  0.3052 -2.2579 -1.6608
13299TIP3   OH261387   2.673   1.562  16.382 -0.0253 -0.0647  0.0994
13299TIP3    H161388   2.736   1.530  16.446 -0.8304 -0.4577  0.7152
13299TIP3    H261389   2.625   1.483  16.354 -0.1436  0.2029 -0.4732
13300TIP3   OH261390   1.797   3.182   0.909  0.0990 -0.6892  0.0530
13300TIP3    H161391   1.826   3.175   0.818  0.1948 -1.0747  0.1103
13300TIP3    H261392   1.864   3.234   0.953 -1.5248  2.3821 -0.7881
13301TIP3   OH261393   1.284   4.016  10.634 -0.6753 -0.4054  0.9371
13301TIP3    H161394   1.320   3.927  10.627 -0.2358 -0.1168 -1.1697
13301TIP3    H261395   1.201   4.011  10.588 -0.1956  0.4897 -0.0474
13302TIP3   OH261396   3.485   6.614   1.448 -0.3273 -0.1399 -0.4057
13302TIP3    H161397   3.563   6.561   1.459  0.6645  1.3747  0.1224
13302TIP3    H261398   3.510   6.701   1.478 -1.9657  0.5910 -1.0190
13303TIP3   OH261399   5.225   1.641   4.610  0.0791  0.0419 -0.5607
13303TIP3    H161400   5.247   1.657   4.702 -1.8507  0.6900 -0.1727
13303TIP3    H261401   5.256   1.719   4.564  0.4207  0.0333 -0.3470
13304TIP3   OH261402   0.632   5.464  16.997 -0.2832  0.2501 -0.2989
13304TIP3    H161403   0.547   5.470  17.041  0.4566  1.6247  1.0417
13304TIP3    H261404   0.688   5.418  17.060 -0.1609 -1.2836 -1.4588
13305TIP3   OH261405   3.361   1.985  13.364 -0.3558  0.1496 -0.0743
13305TIP3    H161406   3.303   1.916  13.332 -0.6558  1.2146 -1.9995
13305TIP3    H261407   3.335   2.063  13.315  0.7613  1.3672  1.1700
13306TIP3   OH261408   3.865   4.453  14.804 -0.2568 -0.0775  0.7316
13306TIP3    H161409   3.880   4.463  14.710 -2.5996  0.7756  0.3905
13306TIP3    H261410   3.871   4.359  14.820  2.3263 -0.0944  0.2118
13307TIP3   OH261411   6.003   5.591   0.986 -0.2063  0.2191  0.2626
13307TIP3    H161412   5.970   5.526   0.924  1.3500 -0.1448 -0.2450
13307TIP3    H261413   6.061   5.647   0.933 -0.0532  0.8502  1.0800
13308TIP3   OH261414   6.434   2.838  16.926 -0.4267  0.0986 -0.1499
13308TIP3    H161415   6.522   2.843  16.888 -0.8558 -0.7736 -1.3577
13308TIP3    H261416   6.375   2.847  16.850 -1.3906  1.2411  0.7099
13309TIP3   OH261417   1.278   4.436   0.512  0.2559 -0.5425 -0.1944
13309TIP3    H161418   1.304   4.415   0.423 -1.1350 -1.1264 -0.4974
13309TIP3    H261419   1.204   4.378   0.529 -1.2361  1.4069  0.3632
13310TIP3   OH261420   2.204   4.570  14.500  0.3830  0.0981 -0.0801
13310TIP3    H161421   2.210   4.665  14.511  0.8175  0.3978 -2.3061
13310TIP3    H261422   2.282   4.547  14.449 -0.8504 -1.0571 -1.5584
13311TIP3   OH261423   2.303   4.869   0.824 -0.0707  0.0321 -0.2574
13311TIP3    H161424   2.347   4.921   0.757 -0.5532 -1.2102 -1.6085
13311TIP3    H261425   2.211   4.870   0.798 -0.3012 -0.2960  0.5221
13312TIP3   OH261426   6.068   5.936   3.302 -0.3634 -0.6062  0.5113
13312TIP3    H161427   6.063   5.848   3.341 -0.9986 -0.0866  1.6855
13312TIP3    H261428   6.157   5.942   3.268  0.2501 -1.1031  1.9442
13313TIP3   OH261429   2.258   6.032   0.982 -0.1190 -0.6558 -0.3514
13313TIP3    H161430   2.203   5.968   1.028 -0.8870  0.2111 -0.0271
13313TIP3    H261431   2.196   6.090   0.939  0.5855 -0.9169 -1.7686
13314TIP3   OH261432   6.509   0.074  15.130  0.1547  0.0688 -0.1795
13314TIP3    H161433   6.525   0.083  15.224 -0.6196  1.8165 -0.1763
13314TIP3    H261434   6.514  -0.020  15.113 -0.0386 -0.2971  1.6666
13315TIP3   OH261435   1.824   5.132  15.441 -0.6560 -0.0280  0.6429
13315TIP3    H161436   1.815   5.102  15.351 -0.8927 -1.0795  0.9998
13315TIP3    H261437   1.841   5.052  15.491  2.4933  0.8365  1.1596
13316TIP3   OH261438   5.345   1.454  14.329 -0.4024 -0.1156  0.4438
13316TIP3    H161439   5.290   1.502  14.267  1.4670 -0.8167 -1.8812
13316TIP3    H261440   5.383   1.522  14.385 -1.1515  0.6658  0.0282
13317TIP3   OH261441   2.462   0.852  11.778 -0.1092  0.3269 -0.0598
13317TIP3    H161442   2.405   0.921  11.813  0.2226  0.8652 -0.5720
13317TIP3    H261443   2.475   0.792  11.852  0.5711  1.4295  0.7474
13318TIP3   OH261444   0.206   0.180   1.843  0.3168  0.3946 -0.0745
13318TIP3    H161445   0.188   0.118   1.914  0.3233 -0.8383 -1.1140
13318TIP3    H261446   0.170   0.138   1.765 -0.3102  2.0322 -0.7178
13319TIP3   OH261447   0.606   0.013  16.725 -0.0820 -0.0533  0.4883
13319TIP3    H161448   0.511   0.017  16.710  0.2155  0.1058 -1.6838
13319TIP3    H261449   0.633   0.105  16.726  0.0956 -0.1082  0.7901
13320TIP3   OH261450   5.290   6.585   1.331 -0.0159 -0.1793 -0.4417
13320TIP3    H161451   5.317   6.557   1.243  0.7576  1.0288 -0.6127
13320TIP3    H261452   5.222   6.651   1.316 -1.3588 -1.4257 -0.0599
13321TIP3   OH261453   3.367   5.427   2.334  0.1980 -0.5650 -0.2489
13321TIP3    H161454   3.297   5.369   2.365  0.8165 -1.5050 -0.5716
13321TIP3    H261455   3.430   5.428   2.406 -0.0936  0.1996  0.0009
13322TIP3   OH261456   5.435   3.755  11.978 -0.0115 -0.6377  0.6852
13322TIP3    H161457   5.520   3.798  11.979 -0.5158  0.6493 -2.3122
13322TIP3    H261458   5.373   3.823  12.005 -0.2563 -1.3208  1.9720
13323TIP3   OH261459   6.293   0.759  14.554 -0.4733 -0.2959  0.2843
13323TIP3    H161460   6.303   0.667  14.527  0.7430 -0.3843  0.9819
13323TIP3    H261461   6.337   0.764  14.639  1.9277  1.5437 -0.9420
13324TIP3   OH261462   5.753   2.882   3.897 -0.1992  0.0737  0.0394
13324TIP3    H161463   5.683   2.913   3.839 -0.0004 -0.7057 -0.6318
13324TIP3    H261464   5.709   2.827   3.961 -0.1582 -0.8490 -0.6986
13325TIP3   OH261465   3.228   1.519  14.107  0.1139  0.3697  0.2725
13325TIP3    H161466   3.161   1.451  14.109 -1.6161  1.9880  0.3975
13325TIP3    H261467   3.311   1.473  14.123 -0.5981 -2.0797 -2.2814
13326TIP3   OH261468   3.081   3.955  14.938 -0.3954 -0.3751  0.4112
13326TIP3    H161469   3.104   4.035  14.986 -0.6437  0.0106 -0.0918
13326TIP3    H261470   3.151   3.946  14.873 -0.6895 -0.2218  0.0703
13327TIP3   OH261471   0.487   1.965   6.734 -0.1066 -0.0931 -0.3234
13327TIP3    H161472   0.456   2.019   6.807  0.4729  0.3579 -0.4021
13327TIP3    H261473   0.407   1.928   6.696 -0.7137  2.1265 -1.3731
13328TIP3   OH261474   4.845   5.777   1.027  0.4244  0.1449 -0.4960
13328TIP3    H161475   4.790   5.717   0.976 -0.5287  1.2509 -0.8019
13328TIP3    H261476   4.892   5.829   0.962 -0.9620  1.7146 -0.3056
13329TIP3   OH261477   2.208   5.085   1.719 -0.6142 -0.3651 -0.2905
13329TIP3    H161478   2.248   5.055   1.800  0.4789  0.4604 -0.4995
13329TIP3    H261479   2.246   5.172   1.703 -0.7579 -0.5294 -1.7082
13330TIP3   OH261480   2.399   0.241   5.882  0.4861 -0.2741  0.1695
13330TIP3    H161481   2.433   0.312   5.937  0.9131  0.2010 -0.6883
13330TIP3    H261482   2.352   0.184   5.943 -0.4945  1.1303  0.7563
13331TIP3   OH261483   5.996   4.124   0.212  0.0385  0.2505 -0.5132
13331TIP3    H161484   6.053   4.156   0.282 -0.4441 -2.1797  1.1445
13331TIP3    H261485   6.049   4.058   0.167 -0.4123  0.2158 -1.0057
13332TIP3   OH261486   1.450   4.721   5.176  0.4424 -0.4516 -0.0421
13332TIP3    H161487   1.433   4.756   5.088 -0.0982  0.6114  0.4628
13332TIP3    H261488   1.364   4.718   5.217  0.8125  0.1036  0.8140
13333TIP3   OH261489   5.133   1.537  11.060  0.0218  0.2140  0.0934
13333TIP3    H161490   5.116   1.544  11.154  1.7541  1.8797  0.3281
13333TIP3    H261491   5.222   1.502  11.055 -0.8000 -1.8927 -1.0025
13334TIP3   OH261492   6.140   4.810   5.397  0.3096 -0.3207  0.1473
13334TIP3    H161493   6.176   4.754   5.466 -2.2408 -1.6848  0.5232
13334TIP3    H261494   6.155   4.761   5.317 -1.6933 -1.5638  0.4494
13335TIP3   OH261495   5.313   5.722  11.073  0.4579 -0.0715 -0.0937
13335TIP3    H161496   5.351   5.634  11.071 -1.0355 -0.7644  0.5295
13335TIP3    H261497   5.276   5.733  10.985 -0.8463 -0.7983  0.3255
13336TIP3   OH261498   0.234   6.295  15.770  0.3976 -0.2342 -0.2375
13336TIP3    H161499   0.191   6.209  15.766  0.5011 -0.5276  2.8684
13336TIP3    H261500   0.326   6.276  15.752  0.2495 -0.5760 -0.6691
13337TIP3   OH261501   3.446   2.071   4.515 -0.3087  0.2214 -0.2929
13337TIP3    H161502   3.521   2.097   4.462  1.9603 -1.4235  1.8795
13337TIP3    H261503   3.445   2.134   4.587 -1.5584  0.6916 -0.6828
13338TIP3   OH261504   1.602   3.238   1.321 -0.5495  0.0781 -0.1672
13338TIP3    H161505   1.682   3.243   1.268 -1.0188 -0.8205 -1.0039
13338TIP3    H261506   1.537   3.287   1.270 -0.3205  1.6238  0.9711
13339TIP3   OH261507   4.446   2.591  11.666 -0.1365  0.0738 -0.1913
13339TIP3    H161508   4.430   2.559  11.755  0.1325 -0.3237 -0.2813
13339TIP3    H261509   4.434   2.686  11.672 -3.4634 -0.1995 -0.4377
13340TIP3   OH261510   3.783   4.996   0.053  0.3722 -0.3022  0.1852
13340TIP3    H161511   3.760   4.906   0.030  0.7630 -0.2573 -0.4099
13340TIP3    H261512   3.764   5.003   0.147 -0.0173 -0.8898  0.1514
13341TIP3   OH261513   4.011   0.952   4.194  0.1293 -0.3800  0.1683
13341TIP3    H161514   4.016   0.883   4.128  0.3899  0.0217 -0.2398
13341TIP3    H261515   3.918   0.972   4.201  0.0397 -0.8917  0.4088
13342TIP3   OH261516   5.556   3.823   0.246  0.2283 -0.0502  0.3558
13342TIP3    H161517   5.650   3.838   0.241  0.4115 -1.1600 -0.0174
13342TIP3    H261518   5.540   3.795   0.336 -0.0704  1.9337  0.9699
13343TIP3   OH261519   0.966   2.833   2.326  0.3615  0.1464 -0.3594
13343TIP3    H161520   1.010   2.789   2.399  0.8361  1.9012  0.4731
13343TIP3    H261521   0.987   2.926   2.338 -1.8004  0.8147 -1.1732
13344TIP3   OH261522   6.071   4.714   2.298 -0.1257 -0.0400  0.0445
13344TIP3    H161523   6.107   4.731   2.385 -0.5571 -1.2880  0.4881
13344TIP3    H261524   6.016   4.636   2.310 -0.3409 -0.1096 -1.3054
13345TIP3   OH261525   3.132   1.938   2.742  0.5059 -0.4224  0.0292
13345TIP3    H161526   3.194   1.997   2.700 -1.9708  1.9974 -0.5699
13345TIP3    H261527   3.132   1.965   2.834 -1.1517  1.1798 -0.3735
13346TIP3   OH261528   0.165   3.184   4.807 -0.6802  0.7705 -0.2087
13346TIP3    H161529   0.154   3.221   4.895 -0.1709  1.1139 -0.2826
13346TIP3    H261530   0.154   3.090   4.819 -0.0116  0.7509  0.3304
13347TIP3   OH261531   5.191   5.208  13.668 -0.1465  0.5153 -0.3838
13347TIP3    H161532   5.151   5.163  13.743  0.0288  0.6012 -0.2395
13347TIP3    H261533   5.119   5.218  13.605  0.0416 -0.8805 -0.8557
13348TIP3   OH261534   3.582   6.392  15.443 -0.0059 -0.1825  0.0756
13348TIP3    H161535   3.553   6.325  15.381 -2.0692 -0.3952  1.1880
13348TIP3    H261536   3.643   6.347  15.501 -2.0681 -1.4351  1.3814
13349TIP3   OH261537   4.307   0.186  16.388  0.0220  0.4086  0.2373
13349TIP3    H161538   4.298   0.187  16.293  0.4451  3.1804  0.1541
13349TIP3    H261539   4.217   0.190  16.421 -0.0972  0.3108 -0.0748
13350TIP3   OH261540   0.938   4.189  17.231  0.2916  0.9099 -0.0710
13350TIP3    H161541   0.902   4.169  17.145 -0.6081  1.0620  0.2522
13350TIP3    H261542   0.861   4.201  17.287  0.7501  4.0937  0.0414
13351TIP3   OH261543   0.192   1.348  16.769 -0.0424  0.1385 -0.1734
13351TIP3    H161544   0.229   1.321  16.685 -1.6830  1.0577 -1.2512
13351TIP3    H261545   0.122   1.284  16.787  0.9160 -0.6295  1.0224
13352TIP3   OH261546   6.019   1.186   4.641  0.4391  0.0876 -0.0816
13352TIP3    H161547   5.960   1.141   4.701  1.3156  0.1510  0.8616
13352TIP3    H261548   6.098   1.132   4.639  0.9299  0.7922 -0.1208
13353TIP3   OH261549   3.133   3.096   1.951 -0.0823  0.5091 -0.0508
13353TIP3    H161550   3.084   3.017   1.929 -2.9300  2.0452  0.3820
13353TIP3    H261551   3.153   3.086   2.044  0.6037 -0.1741 -0.2561
13354TIP3   OH261552   1.105   2.980   1.765 -0.3978 -0.1177 -0.2541
13354TIP3    H161553   1.024   2.972   1.714 -1.3316 -2.3098  1.4094
13354TIP3    H261554   1.081   3.036   1.839  0.8403  2.7063 -1.8434
13355TIP3   OH261555   1.989   2.048   0.330  0.4299 -0.6940  0.0014
13355TIP3    H161556   1.970   2.113   0.262  1.6592  0.7925  1.0091
13355TIP3    H261557   1.930   1.976   0.311 -0.7378  0.5585 -1.3869
13356TIP3   OH261558   6.275   1.826   1.606 -0.0457  0.0043  0.0551
13356TIP3    H161559   6.297   1.874   1.526  0.0013 -0.0332  0.0452
13356TIP3    H261560   6.322   1.743   1.597 -1.1900 -0.5861 -0.5525
13357TIP3   OH261561   0.864   0.738  13.208  0.9132 -0.3706  0.0776
13357TIP3    H161562   0.785   0.757  13.157  1.3418 -1.4401 -1.0410
13357TIP3    H261563   0.833   0.685  13.282  0.5517 -0.6639 -0.2776
13358TIP3   OH261564   1.268   6.158  11.731  0.0605  0.2493  0.5947
13358TIP3    H161565   1.346   6.154  11.785 -0.1445  2.0354  1.0784
13358TIP3    H261566   1.296   6.127  11.645  1.8433  2.7384  0.1909
13359TIP3   OH261567   2.042   4.250   4.924  0.4612  0.7866 -0.4560
13359TIP3    H161568   2.078   4.171   4.966  1.9157  1.3743 -0.5379
13359TIP3    H261569   1.995   4.295   4.994 -0.6901 -0.2941 -0.4854
13360TIP3   OH261570   4.898   2.665   4.770 -0.0217  0.2344  0.3450
13360TIP3    H161571   4.854   2.584   4.795 -1.0472  0.6257 -0.1539
13360TIP3    H261572   4.897   2.664   4.674  2.3043 -0.4072  0.2595
13361TIP3   OH261573   0.809   0.484  12.083 -0.4370  0.3033 -0.2859
13361TIP3    H161574   0.875   0.461  12.149 -0.8631 -0.5817 -0.1575
13361TIP3    H261575   0.753   0.547  12.126  1.2061  2.2907 -0.8949
13362TIP3   OH261576   0.959   3.733  13.811 -0.4616 -0.1106  0.6064
13362TIP3    H161577   0.960   3.759  13.719 -0.8529  0.0290  0.6374
13362TIP3    H261578   0.902   3.797  13.853  0.7242  0.5876  1.1862
13363TIP3   OH261579   0.838   0.331   2.789 -0.6291 -0.0199  0.2051
13363TIP3    H161580   0.854   0.266   2.720  0.7670 -0.0144  0.4930
13363TIP3    H261581   0.873   0.291   2.868 -0.8619  0.5910  0.6187
13364TIP3   OH261582   6.269   4.036   4.252  0.1524  0.5770  0.0398
13364TIP3    H161583   6.294   3.979   4.325 -0.8005  0.3802  0.2306
13364TIP3    H261584   6.232   4.113   4.294 -0.7615  0.2962 -0.2258
13365TIP3   OH261585   5.951   4.417   3.364 -0.1506  0.4609  0.1247
13365TIP3    H161586   5.987   4.404   3.452  0.7712  1.0980 -0.1375
13365TIP3    H261587   5.859   4.390   3.371 -0.5959  2.1887  1.7474
13366TIP3   OH261588   3.547   1.335   0.804  0.2937 -0.2505 -0.0045
13366TIP3    H161589   3.463   1.382   0.800  0.0762 -0.6837 -0.6996
13366TIP3    H261590   3.585   1.362   0.888 -0.2411  0.4522  0.0252
13367TIP3   OH261591   3.754   3.417  14.123 -0.1076 -0.0822  0.0624
13367TIP3    H161592   3.723   3.396  14.034 -2.5691  3.0986 -0.0072
13367TIP3    H261593   3.806   3.496  14.112  0.1975 -0.0823  1.3994
13368TIP3   OH261594   4.269   6.586   6.422 -0.7810 -0.1588 -0.0948
13368TIP3    H161595   4.183   6.598   6.462 -0.2899 -0.2176  1.0052
13368TIP3    H261596   4.274   6.492   6.404 -0.7297 -0.2379  0.3363
13369TIP3   OH261597   6.268   4.461  15.118  0.4122  0.7513 -0.3295
13369TIP3    H161598   6.201   4.416  15.067  1.0144 -0.0834 -0.3948
13369TIP3    H261599   6.324   4.392  15.151  0.4102  1.3292  0.9530
13370TIP3   OH261600   4.442   3.200   5.704 -0.6305 -0.1479 -0.1782
13370TIP3    H161601   4.538   3.205   5.702 -0.6414 -0.2310 -1.5434
13370TIP3    H261602   4.414   3.251   5.629 -1.6203 -1.0051 -0.4124
13371TIP3   OH261603   3.548   4.528   3.695 -0.2239  0.6138 -0.3750
13371TIP3    H161604   3.498   4.571   3.626  0.4729  0.6396 -0.8808
13371TIP3    H261605   3.548   4.591   3.767 -2.6929 -0.2368  0.4749
13372TIP3   OH261606   6.708   5.968  15.944 -0.4475  0.0358  0.0801
13372TIP3    H161607   6.632   5.981  15.887  0.1012 -0.8022 -0.8718
13372TIP3    H261608   6.783   5.970  15.885  0.1956 -0.1495  0.8711
13373TIP3   OH261609   3.159   0.535  10.545 -0.5817 -0.5782  0.0975
13373TIP3    H161610   3.169   0.585  10.464  0.2894  0.1725  0.6455
13373TIP3    H261611   3.249   0.522  10.576 -0.9203 -0.5740  1.1037
13374TIP3   OH261612   0.995   1.574   4.730 -0.2159 -0.3021  0.1039
13374TIP3    H161613   1.028   1.527   4.653 -1.6694  0.6255 -1.1533
13374TIP3    H261614   1.048   1.542   4.802  1.9428 -0.4282 -1.4467
13375TIP3   OH261615   0.696   4.519   4.698  0.1725  0.1996  0.1224
13375TIP3    H161616   0.728   4.609   4.689 -2.3444  1.2101  0.3520
13375TIP3    H261617   0.726   4.491   4.785  1.6179  0.5219 -0.2603
13376TIP3   OH261618   1.843   3.196  12.647 -0.2475 -0.0388  0.1786
13376TIP3    H161619   1.937   3.206  12.658 -0.4755  0.4487  2.1604
13376TIP3    H261620   1.813   3.284  12.622  0.0596 -0.7610 -3.1269
13377TIP3   OH261621   4.080   2.499  12.625 -0.1481  0.5130 -0.1196
13377TIP3    H161622   4.028   2.455  12.557  0.9877 -0.8708 -0.1373
13377TIP3    H261623   4.144   2.434  12.652 -0.2473  1.2200  1.9496
13378TIP3   OH261624   6.610   1.978   3.576  0.1533 -0.1904  0.0637
13378TIP3    H161625   6.628   2.058   3.528 -1.1811  0.3917  0.4961
13378TIP3    H261626   6.604   1.910   3.509  0.0614  0.2965 -0.4189
13379TIP3   OH261627   5.571   4.182   2.535  0.1371  0.5413 -0.1354
13379TIP3    H161628   5.499   4.132   2.496 -0.5996  0.0516  1.6934
13379TIP3    H261629   5.644   4.121   2.537  0.2789  0.6806 -1.0284
13380TIP3   OH261630   2.924   5.257  12.794  0.8258 -0.3075  0.5243
13380TIP3    H161631   2.867   5.182  12.814 -0.0602  0.4368  0.8916
13380TIP3    H261632   3.000   5.219  12.751  0.4149 -1.4245  0.7499
13381TIP3   OH261633   6.000   0.010  12.711 -0.5697  0.8379  0.4694
13381TIP3    H161634   6.011   0.006  12.616 -0.6383 -3.0840  0.4578
13381TIP3    H261635   5.921   0.061  12.724 -0.6378  1.3407 -1.5718
13382TIP3   OH261636   5.948   4.615   5.490 -0.0367 -0.4488  0.0005
13382TIP3    H161637   6.044   4.613   5.481 -0.0728 -1.6284 -0.3376
13382TIP3    H261638   5.932   4.678   5.560  1.0221 -0.6813  0.4805
13383TIP3   OH261639   6.649   5.599  13.444 -0.3480 -0.2252  0.2036
13383TIP3    H161640   6.572   5.622  13.496 -1.7668 -0.3462 -1.7529
13383TIP3    H261641   6.702   5.679  13.443 -0.2962 -0.2082  1.7392
13384TIP3   OH261642   4.522   4.713  12.720 -0.0201  0.5154 -0.0827
13384TIP3    H161643   4.536   4.697  12.627  0.4766  0.9151 -0.0807
13384TIP3    H261644   4.576   4.789  12.740 -0.3912  0.6415  0.4591
13385TIP3   OH261645   6.683   2.367   3.752  0.4881 -0.6751  0.5227
13385TIP3    H161646   6.686   2.295   3.688 -0.4270 -1.5763  1.4508
13385TIP3    H261647   6.629   2.434   3.710 -0.8100 -1.5994  0.6554
13386TIP3   OH261648   4.528   4.567  10.493 -0.4918 -0.2455 -0.1465
13386TIP3    H161649   4.583   4.490  10.506 -0.2488 -0.1325 -0.5002
13386TIP3    H261650   4.438   4.534  10.499 -0.3866 -0.5367 -0.1881
13387TIP3   OH261651   2.583   5.154   3.912  0.8370 -0.0341  0.6286
13387TIP3    H161652   2.641   5.100   3.858  2.3198  1.0064  1.1108
13387TIP3    H261653   2.641   5.199   3.972 -0.6827 -0.3957  2.4602
13388TIP3   OH261654   3.215   4.880   3.842 -0.0572  0.1187  0.5120
13388TIP3    H161655   3.149   4.843   3.901 -1.3785  0.5640 -0.6434
13388TIP3    H261656   3.294   4.886   3.896 -1.1192  0.2009  2.1423
13389TIP3   OH261657   0.674   0.136   0.011 -0.3055 -0.3094  0.4381
13389TIP3    H161658   0.706   0.133  -0.079 -2.7236  2.1919 -0.6626
13389TIP3    H261659   0.617   0.059   0.019  0.4547 -0.9203  0.1183
13390TIP3   OH261660   3.172   2.349  14.770  0.1043 -0.0561  0.2016
13390TIP3    H161661   3.088   2.325  14.729 -0.8428  1.9989  0.8329
13390TIP3    H261662   3.163   2.318  14.861 -0.1279  0.4779  0.3638
13391TIP3   OH261663   6.202   4.190  13.845 -0.2931 -0.6748 -0.2971
13391TIP3    H161664   6.207   4.117  13.784 -1.5538 -1.9288  1.0137
13391TIP3    H261665   6.122   4.236  13.821 -0.9942 -1.3891  0.5804
13392TIP3   OH261666   1.431   1.068  14.876  0.8151  0.5576 -0.6513
13392TIP3    H161667   1.443   1.031  14.789  0.1162  0.0890 -0.5567
13392TIP3    H261668   1.482   1.012  14.934 -0.5655 -0.5353 -0.4520
13393TIP3   OH261669   2.577   6.673  16.597 -0.2393 -0.2137  0.6158
13393TIP3    H161670   2.549   6.737  16.532  1.5851  0.4331  0.4084
13393TIP3    H261671   2.496   6.645  16.640 -1.2562  0.8741 -0.5232
13394TIP3   OH261672   0.366   2.845  14.651 -0.4381  0.3624  0.0455
13394TIP3    H161673   0.452   2.876  14.680  0.2149 -0.5240 -0.8639
13394TIP3    H261674   0.306   2.916  14.674  0.3919  0.6556  1.4359
13395TIP3   OH261675   2.391   5.108  13.508  0.0008  0.0239  0.1058
13395TIP3    H161676   2.449   5.077  13.439 -1.3125  0.5817 -1.3323
13395TIP3    H261677   2.442   5.174  13.555  0.6696  0.2222 -0.8647
13396TIP3   OH261678   6.803   4.234   0.127 -0.1466  0.1383 -0.3592
13396TIP3    H161679   6.822   4.259   0.217 -1.8979  1.4284 -0.2988
13396TIP3    H261680   6.799   4.317   0.079 -1.5313 -0.3363 -1.1311
13397TIP3   OH261681   4.116   6.263   5.681 -0.1729  0.3659  0.2214
13397TIP3    H161682   4.170   6.262   5.601 -0.1678  1.2747  0.2099
13397TIP3    H261683   4.026   6.273   5.650 -0.1663  0.7744  0.3288
13398TIP3   OH261684   3.914   0.920   3.110 -0.6425 -0.1801 -0.7763
13398TIP3    H161685   3.870   0.987   3.058  2.1292  0.4909 -2.4934
13398TIP3    H261686   3.892   0.838   3.066 -2.9720 -0.3513  0.5478
13399TIP3   OH261687   2.543   1.432   3.530 -0.0197 -0.4759  0.0775
13399TIP3    H161688   2.558   1.422   3.623  0.6533 -0.6229 -0.0451
13399TIP3    H261689   2.511   1.522   3.520  0.4327 -0.2768  0.3842
13400TIP3   OH261690   2.898   5.618   0.129 -0.4884  0.3147  0.1546
13400TIP3    H161691   2.962   5.604   0.199 -1.2464  0.1354  0.8269
13400TIP3    H261692   2.902   5.712   0.112  0.8854  0.1243 -0.7380
13401TIP3   OH261693   6.401   5.693  13.566 -0.8450 -0.0636  0.8265
13401TIP3    H161694   6.312   5.692  13.531 -1.0236  1.3380  1.1897
13401TIP3    H261695   6.396   5.750  13.643  0.0804 -1.0594  1.6652
13402TIP3   OH261696   2.183   3.782  12.964 -0.3802  0.0549 -0.7038
13402TIP3    H161697   2.163   3.835  12.887 -0.6561  1.0551  0.0307
13402TIP3    H261698   2.268   3.813  12.993 -0.9180  0.7334  0.2232
13403TIP3   OH261699   4.568   1.183  12.492 -0.4266  0.0760 -0.4513
13403TIP3    H161700   4.553   1.098  12.451 -1.0173  1.3468 -3.1301
13403TIP3    H261701   4.662   1.185  12.509 -0.5220 -1.3787  0.3616
13404TIP3   OH261702   4.678   6.350  15.653 -0.4456  0.4209  0.3294
13404TIP3    H161703   4.705   6.412  15.585 -0.7193 -1.8363 -2.0070
13404TIP3    H261704   4.646   6.405  15.724  0.3564  2.9561 -1.1387
13405TIP3   OH261705   2.290   1.466  13.996  0.4309 -0.2338  0.3642
13405TIP3    H161706   2.309   1.505  13.911  1.6667 -0.8808  0.3287
13405TIP3    H261707   2.326   1.378  13.991 -0.2313 -0.5707  1.2708
13406TIP3   OH261708   0.415   1.206   4.243 -0.4861  0.3912 -0.7219
13406TIP3    H161709   0.344   1.237   4.187 -1.0960 -1.7697 -1.2597
13406TIP3    H261710   0.376   1.203   4.330 -1.2929 -1.2307 -1.0848
13407TIP3   OH261711   0.797   2.439   3.139 -0.5279 -0.7008  0.1752
13407TIP3    H161712   0.876   2.492   3.145 -1.2327  0.4317 -0.1439
13407TIP3    H261713   0.792   2.413   3.047  0.0521 -1.7113  0.4223
13408TIP3   OH261714   6.587   4.752  12.890  0.0686  0.4012  0.7518
13408TIP3    H161715   6.653   4.691  12.856 -1.0975  0.0741 -1.0721
13408TIP3    H261716   6.638   4.819  12.936  1.7309  0.3132 -0.8323
13409TIP3   OH261717   1.908   1.258   4.210 -0.0837  0.1644  0.2307
13409TIP3    H161718   1.854   1.305   4.274 -2.1230 -0.4612 -0.9221
13409TIP3    H261719   1.914   1.318   4.135 -2.0898 -1.0006 -0.9594
13410TIP3   OH261720   1.481   5.796   5.161 -0.4471  0.4902 -0.1296
13410TIP3    H161721   1.531   5.877   5.167 -1.7097  1.1734  1.7724
13410TIP3    H261722   1.430   5.805   5.080  0.3773  0.9888 -0.6096
13411TIP3   OH261723   0.020   3.725  12.922 -0.0692 -0.4244 -0.4704
13411TIP3    H161724   0.111   3.722  12.892  0.5575 -0.6494  1.3603
13411TIP3    H261725  -0.010   3.635  12.915  0.7476 -0.8928  1.4425
13412TIP3   OH261726   6.433   1.737   0.697  0.5860  0.6282  0.1473
13412TIP3    H161727   6.459   1.752   0.788 -0.6051 -1.4625  0.8920
13412TIP3    H261728   6.364   1.802   0.681  0.6465  0.8604  0.7947
13413TIP3   OH261729   0.427   3.596  16.460 -0.8403 -0.0200  0.1903
13413TIP3    H161730   0.358   3.633  16.405 -0.2897 -0.0516 -0.5501
13413TIP3    H261731   0.500   3.657  16.451 -0.1413 -0.9277 -0.5313
13414TIP3   OH261732   3.670   0.495  12.301  0.3204 -0.1384  0.0468
13414TIP3    H161733   3.721   0.544  12.366 -1.0195  1.4593 -0.0288
13414TIP3    H261734   3.693   0.536  12.218  0.1878 -0.5505 -0.1934
13415TIP3   OH261735   1.730   5.418   1.334 -0.4339  0.3185  0.2803
13415TIP3    H161736   1.664   5.397   1.400  0.9886 -2.2809  1.0335
13415TIP3    H261737   1.690   5.392   1.251 -1.0418  0.5530  0.4952
13416TIP3   OH261738   3.864   1.329   2.918 -0.6499  0.7018  0.6017
13416TIP3    H161739   3.848   1.415   2.956  1.0287  0.8028  1.1822
13416TIP3    H261740   3.868   1.344   2.824  1.4408  1.6412  0.7856
13417TIP3   OH261741   2.319   0.429   5.376  0.0908 -0.4219  0.7701
13417TIP3    H161742   2.368   0.375   5.438  0.4142  0.1091  0.9854
13417TIP3    H261743   2.299   0.509   5.425  0.4093  0.0354  0.1675
13418TIP3   OH261744   0.392   0.466   5.406  0.8344 -0.3099 -0.1864
13418TIP3    H161745   0.367   0.392   5.351  0.9499 -1.0648  0.7457
13418TIP3    H261746   0.482   0.448   5.431  1.1206  0.5426 -0.5642
13419TIP3   OH261747   0.588   0.994   2.715 -0.2447 -0.1932 -0.9454
13419TIP3    H161748   0.680   0.980   2.690 -0.8100 -1.5728 -2.4544
13419TIP3    H261749   0.566   1.081   2.682  1.4161  1.7230  2.4642
13420TIP3   OH261750   0.578   5.918   3.264  0.5514 -0.5360  0.7322
13420TIP3    H161751   0.621   5.882   3.186  0.2197 -0.6103  0.5800
13420TIP3    H261752   0.498   5.866   3.273  1.1113 -1.2355  1.7557
13421TIP3   OH261753   2.354   5.173   2.799  0.4456 -0.6613 -0.3737
13421TIP3    H161754   2.424   5.132   2.748  0.8311 -2.1280  1.2134
13421TIP3    H261755   2.396   5.195   2.883 -0.8143 -0.9273  0.3533
13422TIP3   OH261756   1.098   1.230   5.855  0.4957 -0.5061 -0.0102
13422TIP3    H161757   1.055   1.146   5.837  1.7007 -1.0348 -0.5228
13422TIP3    H261758   1.146   1.250   5.775 -0.4245  1.1096 -0.2009
13423TIP3   OH261759   3.040   4.456   1.279 -0.0123  1.0055 -0.8411
13423TIP3    H161760   3.062   4.423   1.366  0.0334  0.0249 -1.2166
13423TIP3    H261761   3.035   4.551   1.290  0.8161  0.9580  0.0455
13424TIP3   OH261762   1.535   4.938   1.614  0.1115  0.8573  0.2094
13424TIP3    H161763   1.450   4.961   1.651 -0.9068 -1.0449 -0.7885
13424TIP3    H261764   1.567   4.867   1.669  1.1217  1.5949  0.6085
13425TIP3   OH261765   3.491   1.523   1.771 -0.1254  0.0386  0.0925
13425TIP3    H161766   3.461   1.436   1.798 -0.4049 -0.3136 -1.2489
13425TIP3    H261767   3.585   1.510   1.752  0.0122  0.2225  0.6358
13426TIP3   OH261768   0.579   5.222  12.393 -0.0707 -0.4144 -0.1283
13426TIP3    H161769   0.612   5.254  12.477  2.5671 -1.1212 -0.7969
13426TIP3    H261770   0.562   5.301  12.342 -0.3159  0.0050  0.5885
13427TIP3   OH261771   5.073   6.267   2.485 -0.1072  0.1912  0.2511
13427TIP3    H161772   5.065   6.192   2.543 -1.2014 -0.1569 -0.3264
13427TIP3    H261773   4.984   6.284   2.455  0.4539  0.1665 -1.5640
13428TIP3   OH261774   2.313   3.636  16.389  0.0091 -0.4454 -0.2835
13428TIP3    H161775   2.358   3.695  16.329  1.8971 -2.2644 -0.7595
13428TIP3    H261776   2.225   3.627  16.352  0.1888  0.7911 -1.0628
13429TIP3   OH261777   1.467   2.145  14.113 -0.2759  0.1754 -0.2578
13429TIP3    H161778   1.378   2.163  14.143 -0.0226 -0.6221  1.0518
13429TIP3    H261779   1.472   2.186  14.027 -1.6109  1.0218  0.0416
13430TIP3   OH261780   1.880   6.281   2.150 -0.7060 -0.2925  0.1358
13430TIP3    H161781   1.889   6.343   2.222  1.3675 -0.7458  0.3346
13430TIP3    H261782   1.920   6.325   2.075  1.4015 -1.5367  0.4351
13431TIP3   OH261783   0.932   2.182   3.996 -0.3139 -0.9107 -0.2783
13431TIP3    H161784   0.993   2.253   4.019 -1.5269  0.6026 -1.4620
13431TIP3    H261785   0.983   2.102   4.004  1.4249  0.1904  0.1068
13432TIP3   OH261786   1.518   5.547  11.430 -0.2361  1.0437 -0.5110
13432TIP3    H161787   1.583   5.529  11.498 -0.3584  0.0799 -0.6363
13432TIP3    H261788   1.564   5.603  11.367  0.5916  0.1270 -0.7613
13433TIP3   OH261789   0.283   3.313  13.834 -0.1330 -0.4174  0.7182
13433TIP3    H161790   0.251   3.323  13.924 -2.0615 -0.1179  0.0399
13433TIP3    H261791   0.262   3.223  13.810  1.0087 -0.7198  0.7604
13434TIP3   OH261792   4.132   2.772  11.577 -0.8180  0.4435  0.4345
13434TIP3    H161793   4.208   2.748  11.524 -0.7260  0.2990  0.6310
13434TIP3    H261794   4.088   2.840  11.526  0.1958  1.5133  0.9483
13435TIP3   OH261795   1.740   2.754   0.560 -0.4537 -0.1124  1.1864
13435TIP3    H161796   1.828   2.719   0.543 -0.3063  1.3358 -1.4400
13435TIP3    H261797   1.681   2.690   0.520 -0.4818  0.0261  1.0086
13436TIP3   OH261798   4.438   1.246  16.829  0.2047 -0.2865 -0.3511
13436TIP3    H161799   4.483   1.230  16.746  1.5061 -1.4328  0.5318
13436TIP3    H261800   4.367   1.182  16.830  1.6499 -1.9825  0.4256
13437TIP3   OH261801   0.472   4.224  14.390 -0.2969 -0.1994 -0.0530
13437TIP3    H161802   0.473   4.318  14.408  0.2059 -0.0509 -0.7855
13437TIP3    H261803   0.552   4.191  14.430 -1.3844 -0.6689  1.8473
13438TIP3   OH261804   0.896   5.031   1.208  0.4614  0.3527  0.5535
13438TIP3    H161805   0.817   4.985   1.236 -0.0738  1.2886  0.6167
13438TIP3    H261806   0.902   5.106   1.266  2.3265 -0.5650  1.6496
13439TIP3   OH261807   6.059   6.119  13.776  0.1263 -0.4913 -0.2543
13439TIP3    H161808   6.011   6.084  13.700  1.7531  0.7351 -1.9492
13439TIP3    H261809   6.018   6.204  13.793  0.6784 -0.1221 -0.7231
13440TIP3   OH261810   4.431   1.607  11.691 -0.1079  0.3307  0.1600
13440TIP3    H161811   4.383   1.672  11.742  1.2529  0.5506  1.2135
13440TIP3    H261812   4.487   1.657  11.633 -1.7072  0.0824 -1.7277
13441TIP3   OH261813   4.372   5.919  14.496  0.2944  0.4729  0.1283
13441TIP3    H161814   4.303   5.920  14.430  0.4241  1.5075 -0.0021
13441TIP3    H261815   4.409   5.830  14.491 -1.6938 -0.4662  0.9141
13442TIP3   OH261816   2.692   4.180   0.327  0.6061 -0.0554 -0.3003
13442TIP3    H161817   2.649   4.127   0.261 -0.4537  1.4100 -0.8327
13442TIP3    H261818   2.630   4.184   0.400 -0.4003  2.2737 -1.1727
13443TIP3   OH261819   2.009   3.179   2.951  0.4344 -0.1535 -0.7819
13443TIP3    H161820   2.077   3.244   2.968  0.6616 -0.4210 -0.6694
13443TIP3    H261821   1.928   3.222   2.980  0.8792 -0.8470  1.7553
13444TIP3   OH261822   4.468   0.860  11.585 -0.6139  0.7913 -0.3456
13444TIP3    H161823   4.437   0.894  11.501  0.0413  1.0942 -0.4660
13444TIP3    H261824   4.392   0.814  11.621 -0.7876  0.3417 -1.2658
13445TIP3   OH261825   4.859   2.868   5.543 -0.2452 -0.4903 -0.2937
13445TIP3    H161826   4.807   2.928   5.489 -2.1888 -1.7942  0.0364
13445TIP3    H261827   4.864   2.788   5.491  1.3003 -0.4848 -0.2125
13446TIP3   OH261828   4.837   1.998   5.194 -0.1157  0.4742 -0.4164
13446TIP3    H161829   4.864   2.074   5.246 -0.2703 -0.3928  0.9799
13446TIP3    H261830   4.918   1.967   5.153  0.5603 -0.4133  1.4720
13447TIP3   OH261831   2.356   2.341  12.966 -0.3672 -0.0754 -0.4696
13447TIP3    H161832   2.275   2.385  12.941  0.2734  1.5644  0.1759
13447TIP3    H261833   2.400   2.321  12.883 -0.4648  0.9376 -0.7699
13448TIP3   OH261834   1.313   0.476   0.966 -0.5416 -0.0353  0.4921
13448TIP3    H161835   1.350   0.393   0.998  2.7615  0.8975 -0.4923
13448TIP3    H261836   1.315   0.467   0.871 -1.4018  0.7091  0.3989
13449TIP3   OH261837   1.242   1.375  13.490  0.4883  0.0453 -0.0924
13449TIP3    H161838   1.254   1.321  13.412  0.8937 -1.4868  0.9801
13449TIP3    H261839   1.163   1.341  13.531  2.7166 -2.4416  2.5943
13450TIP3   OH261840   5.159   1.204  12.637 -0.2070 -0.1046  0.3392
13450TIP3    H161841   5.180   1.219  12.545  1.3027  0.1457  0.7011
13450TIP3    H261842   5.149   1.109  12.645  3.5550 -0.6207  0.6121
13451TIP3   OH261843   6.298   5.631   4.072  0.0083 -0.4318  0.2987
13451TIP3    H161844   6.352   5.631   3.993  1.0722  0.9853  0.9836
13451TIP3    H261845   6.219   5.680   4.046  0.0845 -0.4867 -0.0497
13452TIP3   OH261846   6.619   4.687  11.158  0.3778  0.7149 -0.0064
13452TIP3    H161847   6.629   4.773  11.198 -2.3649  1.8612 -1.5196
13452TIP3    H261848   6.628   4.703  11.064  0.7814 -0.8515 -0.2686
13453TIP3   OH261849   3.673   6.758  16.445 -0.3958 -0.1537 -0.0215
13453TIP3    H161850   3.636   6.817  16.380  1.7382 -0.5369 -1.6685
13453TIP3    H261851   3.653   6.670  16.413 -1.5548 -0.3826  1.2251
13454TIP3   OH261852   0.779   3.624  11.736 -0.2371  0.0286 -0.1674
13454TIP3    H161853   0.837   3.566  11.688 -0.2908 -0.6940  0.6201
13454TIP3    H261854   0.692   3.608  11.699 -0.1465  0.1211 -0.4224
13455TIP3   OH261855   0.084   1.384  12.219  0.1128  0.6299 -0.5198
13455TIP3    H161856   0.023   1.443  12.263 -0.0667  0.6713 -0.8251
13455TIP3    H261857   0.032   1.306  12.198  0.8304 -0.6020  1.8217
13456TIP3   OH261858   4.277   0.090  16.704  0.0356  0.0327 -0.2835
13456TIP3    H161859   4.366   0.112  16.678  0.6376 -0.9150  0.8678
13456TIP3    H261860   4.258   0.008  16.660  0.5296 -0.8350  1.0455
13457TIP3   OH261861   4.758   6.365   2.992  0.1778  0.1778  0.0838
13457TIP3    H161862   4.782   6.292   2.934  1.1940  0.4190  0.1818
13457TIP3    H261863   4.690   6.412   2.944  0.9148  0.3018 -0.8842
13458TIP3   OH261864   1.597   2.224   5.836  0.2212 -0.2768  0.3353
13458TIP3    H161865   1.592   2.128   5.829 -0.3595 -0.1711 -1.0808
13458TIP3    H261866   1.652   2.250   5.762  1.0821  0.4453  1.2006
13459TIP3   OH261867   4.025   4.078  11.895 -0.0244 -0.5233 -0.6215
13459TIP3    H161868   4.038   4.156  11.840  0.6701  1.9112  2.6753
13459TIP3    H261869   4.108   4.031  11.888  0.5449  0.4485 -0.6774
13460TIP3   OH261870   1.052   3.331   2.203  0.5326 -0.2895 -0.5109
13460TIP3    H161871   1.018   3.344   2.115  0.1206  0.3496 -0.2611
13460TIP3    H261872   1.147   3.327   2.191  0.4216 -1.2236 -1.1013
13461TIP3   OH261873   2.689   5.412  14.477  0.0869 -0.1045  0.2232
13461TIP3    H161874   2.667   5.328  14.519  1.1309 -0.1131  0.7935
13461TIP3    H261875   2.657   5.403  14.388 -1.3197 -0.4618  0.7372
13462TIP3   OH261876   1.865   1.604  12.364 -0.2704 -0.5290 -0.0940
13462TIP3    H161877   1.913   1.521  12.360  0.7393 -0.0368  1.1503
13462TIP3    H261878   1.868   1.637  12.274 -0.3261 -1.6302 -0.5223
13463TIP3   OH261879   1.449   1.972   2.232 -0.6403 -0.1949  0.3086
13463TIP3    H161880   1.436   1.878   2.237 -1.1885 -0.2921 -1.8148
13463TIP3    H261881   1.380   2.002   2.173  1.3450  1.0673 -1.5341
13464TIP3   OH261882   3.426   3.559   5.429 -0.2356 -0.3374  0.1419
13464TIP3    H161883   3.455   3.497   5.495 -0.3426  0.6118  1.1220
13464TIP3    H261884   3.453   3.521   5.345  0.9029 -1.0281  0.8047
13465TIP3   OH261885   5.290   4.320   4.788  0.4067  0.5296 -0.0934
13465TIP3    H161886   5.374   4.278   4.772 -0.0030  0.1461 -1.3933
13465TIP3    H261887   5.227   4.266   4.740 -0.5959  0.7719  0.9066
13466TIP3   OH261888   3.827   0.663   0.116  0.4909  0.3233 -0.1873
13466TIP3    H161889   3.774   0.738   0.142  0.1717  0.0216  0.0455
13466TIP3    H261890   3.790   0.589   0.165  0.5557 -0.0590 -0.7037
13467TIP3   OH261891   3.887   2.619  13.429 -0.0994  0.0072 -0.2984
13467TIP3    H161892   3.877   2.637  13.522  0.4339  0.9847 -0.4143
13467TIP3    H261893   3.929   2.534  13.426 -1.3573 -0.6611  0.3155
13468TIP3   OH261894   6.647   1.326   5.263  0.1517 -0.4964  0.0820
13468TIP3    H161895   6.694   1.406   5.238  0.1742 -0.1955  1.0263
13468TIP3    H261896   6.645   1.273   5.184  0.2129  0.4069 -0.5383
13469TIP3   OH261897   4.185   5.907   3.522  0.3574 -0.2013 -0.1269
13469TIP3    H161898   4.229   5.965   3.583 -0.0149  0.6517 -0.6465
13469TIP3    H261899   4.092   5.916   3.542  0.2586 -0.1903 -0.5716
13470TIP3   OH261900   5.655   0.509   4.115 -0.1563 -0.0295 -0.2133
13470TIP3    H161901   5.686   0.587   4.070  0.5888  0.2590  0.7717
13470TIP3    H261902   5.733   0.455   4.126 -0.4087 -0.2845  0.3444
13471TIP3   OH261903   5.517   0.865   4.184  0.2742 -0.4761 -0.5592
13471TIP3    H161904   5.473   0.950   4.187 -2.1198 -1.5982 -1.2159
13471TIP3    H261905   5.569   0.862   4.264 -0.3571  1.2112 -0.0460
13472TIP3   OH261906   0.808   5.623   6.017  0.1214  0.0200  0.4413
13472TIP3    H161907   0.872   5.619   6.088  0.7378 -0.2208 -0.1203
13472TIP3    H261908   0.732   5.667   6.056  0.0735 -0.9677  1.5415
13473TIP3   OH261909   3.942   5.412   4.511 -0.5240 -0.6358 -0.2684
13473TIP3    H161910   3.898   5.497   4.511  1.4342  0.5113 -2.7438
13473TIP3    H261911   4.031   5.431   4.542 -0.2734 -1.9264 -0.1478
13474TIP3   OH261912   6.215   0.389   2.238 -0.1119  0.1982  0.2057
13474TIP3    H161913   6.182   0.468   2.280 -1.0269 -0.9128  1.6691
13474TIP3    H261914   6.290   0.362   2.291  0.8452  0.6188 -0.8901
13475TIP3   OH261915   2.137   6.582  11.335  0.6570  0.5003  0.2037
13475TIP3    H161916   2.136   6.497  11.378  0.4419  1.3732  2.0049
13475TIP3    H261917   2.135   6.561  11.242  1.7847 -1.4802  0.5604
13476TIP3   OH261918   5.648   1.905   0.243  0.1065  0.3644  0.4360
13476TIP3    H161919   5.593   1.973   0.204  2.2295  2.1795  0.4245
13476TIP3    H261920   5.711   1.953   0.297  0.7563 -1.7235  1.6538
13477TIP3   OH261921   4.296   4.255   1.504  0.1187  0.2079 -0.1941
13477TIP3    H161922   4.238   4.309   1.450 -1.7478  0.1000  1.5861
13477TIP3    H261923   4.305   4.305   1.585  0.1147 -1.1683  0.6731
13478TIP3   OH261924   0.429   1.968   0.364 -0.4430  0.0917 -0.0798
13478TIP3    H161925   0.397   2.048   0.405  1.6346  0.6997  0.5065
13478TIP3    H261926   0.448   1.993   0.273  1.1096  0.5773  0.3493
13479TIP3   OH261927   2.590   5.328  12.634  0.3861  0.0417 -0.9596
13479TIP3    H161928   2.552   5.316  12.546  0.3123  1.1153 -1.0809
13479TIP3    H261929   2.666   5.383  12.620  0.9458 -0.5919 -0.4622
13480TIP3   OH261930   6.598   4.341  13.161  0.0597  0.0868  0.1713
13480TIP3    H161931   6.652   4.279  13.112  0.6260  0.6494  0.0794
13480TIP3    H261932   6.543   4.382  13.095 -0.4734 -0.4675  0.2617
13481TIP3   OH261933   0.006   1.151   0.729  0.4307 -0.4303  0.5264
13481TIP3    H161934  -0.022   1.228   0.777  0.7317 -0.3610  0.5924
13481TIP3    H261935   0.096   1.135   0.758 -0.1726 -1.7887  1.7654
13482TIP3   OH261936   1.763   5.204  10.906 -0.4477 -0.0887 -0.6321
13482TIP3    H161937   1.744   5.275  10.845  0.7745  0.1873 -0.7178
13482TIP3    H261938   1.678   5.178  10.940 -1.0868  0.2246 -1.9312
13483TIP3   OH261939   3.754   3.658   0.114  0.2738  0.0194 -0.6354
13483TIP3    H161940   3.830   3.712   0.093  1.7642 -2.3763 -1.8765
13483TIP3    H261941   3.689   3.680   0.048  1.1084 -0.1403 -1.5291
13484TIP3   OH261942   6.333   1.119  11.401  0.0305  0.0211  0.7001
13484TIP3    H161943   6.358   1.100  11.311  0.9478  0.7927  0.7716
13484TIP3    H261944   6.258   1.177  11.394  0.3853  0.4470  0.4238
13485TIP3   OH261945   4.606   1.316   3.053 -0.1853  0.2461  0.1262
13485TIP3    H161946   4.533   1.288   2.998 -0.7473 -0.8273  1.3483
13485TIP3    H261947   4.607   1.253   3.125  2.3559 -0.1668 -0.1578
13486TIP3   OH261948   0.217   1.573  16.018  0.1145  0.4089 -0.4719
13486TIP3    H161949   0.309   1.581  15.993  0.0612  0.2060 -0.7358
13486TIP3    H261950   0.175   1.534  15.942  0.2259 -1.7228  0.4850
13487TIP3   OH261951   4.020   5.641   5.836 -0.2656 -0.1027 -0.5131
13487TIP3    H161952   4.108   5.606   5.851 -0.8105 -1.2652  0.1573
13487TIP3    H261953   4.025   5.682   5.749  0.7620 -0.7533 -0.7801
13488TIP3   OH261954   0.840   4.560   3.810 -0.0081  0.8110 -0.1071
13488TIP3    H161955   0.887   4.515   3.880  0.3572  2.1457  0.5505
13488TIP3    H261956   0.869   4.516   3.730 -1.1781 -1.3752  0.5953
13489TIP3   OH261957   6.791   2.823  16.621  0.3173  0.0301 -0.0306
13489TIP3    H161958   6.771   2.821  16.715  0.9288  0.6060  0.1192
13489TIP3    H261959   6.885   2.841  16.616  0.4197 -0.6395 -0.7526
13490TIP3   OH261960   6.033   2.300  13.410 -0.0244 -0.5633 -0.3934
13490TIP3    H161961   6.052   2.391  13.388 -1.1746 -0.2896 -0.3204
13490TIP3    H261962   5.978   2.268  13.338 -2.4684 -0.1503  1.1678
13491TIP3   OH261963   6.503   6.354  11.888 -0.2421  0.3835 -0.3246
13491TIP3    H161964   6.533   6.426  11.944  1.2572 -1.3247  1.2127
13491TIP3    H261965   6.584   6.316  11.853 -0.7906 -1.9015  0.7030
13492TIP3   OH261966   2.023   1.152   1.372 -0.3712 -0.0303  0.2264
13492TIP3    H161967   2.059   1.070   1.406  1.3492  0.8009  0.4877
13492TIP3    H261968   2.030   1.214   1.445 -0.4014  0.7055 -0.3815
13493TIP3   OH261969   5.791   1.030  12.812  0.1126 -0.4623 -0.4221
13493TIP3    H161970   5.709   1.051  12.768 -0.1616  1.7396  0.9716
13493TIP3    H261971   5.848   0.998  12.742 -0.6599  1.7785 -2.2051
13494TIP3   OH261972   2.964   0.410   1.186 -0.3739 -0.2949 -0.2908
13494TIP3    H161973   2.904   0.413   1.111 -0.9460 -0.3845  0.1617
13494TIP3    H261974   2.958   0.320   1.217 -0.2385 -0.2207 -0.0517
13495TIP3   OH261975   1.293   6.631   2.052 -0.2366  0.2014  0.0237
13495TIP3    H161976   1.220   6.688   2.028  0.8087  1.3123 -0.6423
13495TIP3    H261977   1.331   6.603   1.969  0.7674  0.5557  0.3451
13496TIP3   OH261978   4.486   2.700  10.648 -0.0720  0.2481  0.1560
13496TIP3    H161979   4.540   2.732  10.576  0.2396  1.7246  0.9829
13496TIP3    H261980   4.396   2.708  10.617  0.1083 -2.7673 -1.4471
13497TIP3   OH261981   5.352   6.321   5.973  0.1312  0.2699  0.4155
13497TIP3    H161982   5.333   6.395   6.030  1.8915  0.2928  0.9974
13497TIP3    H261983   5.378   6.251   6.032 -1.2759 -0.7790 -0.1497
13498TIP3   OH261984   5.840   1.357  14.950 -0.2812 -0.3670 -0.0042
13498TIP3    H161985   5.884   1.386  14.870 -0.8125  0.3160 -0.0639
13498TIP3    H261986   5.750   1.340  14.922 -0.6084  0.4048  0.5555
13499TIP3   OH261987   6.776   5.149   2.977 -1.0208  0.1828 -0.0782
13499TIP3    H161988   6.763   5.209   2.904  0.6588 -0.8213 -1.2685
13499TIP3    H261989   6.725   5.071   2.953 -3.9103  1.3034  1.8598
13500TIP3   OH261990   1.777   0.600  10.804 -0.4152 -0.4872  0.0178
13500TIP3    H161991   1.791   0.604  10.709 -2.2640 -0.5447 -0.2929
13500TIP3    H261992   1.775   0.691  10.832 -0.7825 -0.4447 -0.1485
13501TIP3   OH261993   0.827   2.378   2.879  0.1553  0.1938 -0.1109
13501TIP3    H161994   0.919   2.405   2.883  0.0621  0.4287  0.6998
13501TIP3    H261995   0.823   2.316   2.806  1.0223 -0.0835  0.0657
13502TIP3   OH261996   6.614   6.814   2.270 -0.0582  0.1731  0.6399
13502TIP3    H161997   6.657   6.729   2.280 -0.7937 -0.6183 -1.9208
13502TIP3    H261998   6.652   6.850   2.189 -0.9024  1.5649  0.8340
13503TIP3   OH261999   6.310   5.965   6.127 -0.2758  0.3816 -0.6898
13503TIP3    H162000   6.261   5.969   6.209 -1.3556 -0.2901 -1.2763
13503TIP3    H262001   6.289   6.047   6.082  0.7503  0.9995 -0.0797
13504TIP3   OH262002   5.192   1.641  11.937 -0.2247  0.3733  0.2053
13504TIP3    H162003   5.256   1.583  11.978  0.4129 -0.0739 -1.3491
13504TIP3    H262004   5.186   1.716  11.997  1.1386  0.0492  0.7953
13505TIP3   OH262005   2.627   1.007  15.517 -0.1361  0.3426 -0.4487
13505TIP3    H162006   2.636   1.076  15.583 -1.3351  1.6027 -1.5190
13505TIP3    H262007   2.596   1.054  15.439 -1.2590 -1.4524 -1.1276
13506TIP3   OH262008   2.071   0.363   2.402  0.2142 -0.4407  0.6145
13506TIP3    H162009   2.003   0.383   2.467  0.2489  1.6610  0.0726
13506TIP3    H262010   2.130   0.439   2.405  0.4144 -0.4604 -1.6295
13507TIP3   OH262011   0.743   4.886  13.099  0.0353 -0.1268 -0.2395
13507TIP3    H162012   0.666   4.934  13.067  0.3588  0.3441 -0.3154
13507TIP3    H262013   0.795   4.951  13.145  0.8501 -0.2391 -0.9856
13508TIP3   OH262014   0.241   3.785  14.430 -0.2538 -0.0615 -0.0004
13508TIP3    H162015   0.237   3.833  14.513 -0.2517 -1.5633  0.8989
13508TIP3    H262016   0.151   3.758  14.414 -0.1774 -0.1662 -0.2535
13509TIP3   OH262017   1.916   5.538   0.687 -0.2456 -0.2311 -0.2835
13509TIP3    H162018   1.865   5.501   0.614  2.6865 -1.5948 -1.8220
13509TIP3    H262019   1.970   5.605   0.646  0.9267 -0.4981  0.7915
13510TIP3   OH262020   4.569   1.324   6.306 -0.0727  0.1642  0.5797
13510TIP3    H162021   4.490   1.360   6.265  0.0017 -1.1527 -0.8278
13510TIP3    H262022   4.640   1.349   6.246  0.3256 -0.1344  0.9250
13511TIP3   OH262023   3.675   2.820   5.415  0.2546 -0.1002  0.0205
13511TIP3    H162024   3.715   2.839   5.330 -1.4758 -0.5646 -0.9425
13511TIP3    H262025   3.667   2.725   5.417 -0.3855 -0.0418  0.3817
13512TIP3   OH262026   2.000   4.307   6.149  0.8056 -0.0872 -0.5217
13512TIP3    H162027   1.953   4.286   6.230  1.2716 -0.0073 -0.2298
13512TIP3    H262028   1.932   4.340   6.090  0.9331  3.4090  1.0551
13513TIP3   OH262029   2.757   6.307  11.181  0.0210  0.9950 -0.0072
13513TIP3    H162030   2.764   6.254  11.102  0.1796 -1.7519  1.7380
13513TIP3    H262031   2.838   6.358  11.183 -0.5872  2.2195 -2.2423
13514TIP3   OH262032   3.544   5.793  16.490 -0.2504  0.0920 -0.0975
13514TIP3    H162033   3.466   5.849  16.484 -0.2338  0.1001 -0.2488
13514TIP3    H262034   3.552   5.755  16.402  0.1520  0.4071 -0.1974
13515TIP3   OH262035   3.248   1.401   2.336  0.0192  0.4357  0.3803
13515TIP3    H162036   3.186   1.340   2.377  1.7197 -1.3791  0.4072
13515TIP3    H262037   3.325   1.399   2.393  1.2288  0.3381 -1.1862
13516TIP3   OH262038   5.428   3.085   4.001  0.3008 -0.4923 -0.5180
13516TIP3    H162039   5.403   3.039   3.921 -3.8706  0.3334  0.0777
13516TIP3    H262040   5.386   3.170   3.994 -1.7932 -0.9911  3.1760
13517TIP3   OH262041   0.050   0.723  17.041  0.0679  0.2710  0.0048
13517TIP3    H162042   0.096   0.744  17.122  1.3468 -0.7615 -0.4059
13517TIP3    H262043  -0.037   0.761  17.051 -0.6817 -1.8542  2.9141
13518TIP3   OH262044   2.281   0.631   5.561  0.3603  0.2345 -0.4367
13518TIP3    H162045   2.345   0.645   5.631  2.2596 -0.8763 -1.8696
13518TIP3    H262046   2.229   0.712   5.560  1.9255  1.3230  0.5870
13519TIP3   OH262047   4.563   5.398  16.174 -0.2333 -0.3000 -0.7156
13519TIP3    H162048   4.639   5.420  16.228 -1.1290  0.0348  0.4492
13519TIP3    H262049   4.600   5.380  16.087  1.2547 -0.9057  0.0024
13520TIP3   OH262050   2.752   2.810   4.256 -0.1470 -0.0459 -0.1231
13520TIP3    H162051   2.739   2.716   4.265 -0.7799  0.1135  0.7855
13520TIP3    H262052   2.846   2.823   4.270 -0.0501 -0.5442 -0.2890
13521TIP3   OH262053   4.240   4.634  12.788  0.2854 -0.6762  0.3811
13521TIP3    H162054   4.316   4.679  12.751  0.5096  0.1771  1.7916
13521TIP3    H262055   4.231   4.670  12.876 -1.1971 -1.4448  0.5888
13522TIP3   OH262056   4.067   5.370   1.666  0.1343  0.4145  0.4528
13522TIP3    H162057   4.028   5.293   1.624  1.5796  1.3809 -3.0404
13522TIP3    H262058   3.999   5.437   1.660  0.1011  0.3622  0.1944
13523TIP3   OH262059   0.845   0.917   4.714  0.2903 -0.3694 -0.0282
13523TIP3    H162060   0.751   0.924   4.695  0.2858 -0.4515 -0.0369
13523TIP3    H262061   0.882   0.877   4.635  0.6257  1.3971 -0.8127
13524TIP3   OH262062   0.352   5.996  13.268 -0.1163  0.0394  0.2578
13524TIP3    H162063   0.433   5.996  13.319  0.3646  0.0779 -0.5028
13524TIP3    H262064   0.301   5.923  13.304  0.2667 -0.0096  0.7090
13525TIP3   OH262065   5.947   3.750  14.886  0.2007 -0.3974 -0.0388
13525TIP3    H162066   5.973   3.686  14.820  0.5856  0.3056 -0.5708
13525TIP3    H262067   5.857   3.773  14.863  0.2383 -0.3655 -0.1560
13526TIP3   OH262068   1.143   4.713  13.062 -0.0126 -0.4871 -0.2024
13526TIP3    H162069   1.062   4.684  13.020 -0.4270 -1.8010  1.3701
13526TIP3    H262070   1.197   4.748  12.991 -2.0844  0.7761 -1.2466
13527TIP3   OH262071   0.406   2.633   3.413 -0.0180  0.2253 -0.3949
13527TIP3    H162072   0.457   2.566   3.367  0.1157  0.7730 -1.0464
13527TIP3    H262073   0.466   2.667   3.479  0.4269  0.7653 -1.0653
13528TIP3   OH262074   2.401   0.340  12.836  0.2651 -0.4700 -0.2699
13528TIP3    H162075   2.367   0.429  12.832  1.7173  0.1151 -0.1420
13528TIP3    H262076   2.333   0.290  12.883 -0.0165  0.8242  0.7461
13529TIP3   OH262077   3.268   5.949   3.817 -0.4875 -0.4274  0.5063
13529TIP3    H162078   3.341   5.908   3.771 -1.0919 -1.9455  0.8645
13529TIP3    H262079   3.309   6.012   3.876  0.3389  1.1583 -1.6280
13530TIP3   OH262080   1.657   1.748  12.460  0.2967  0.4309 -0.5112
13530TIP3    H162081   1.695   1.830  12.492  1.3541  0.1468 -0.9985
13530TIP3    H262082   1.731   1.687  12.457 -0.5021 -0.5901 -0.0186
13531TIP3   OH262083   2.087   5.668   2.414  0.4422 -0.0979 -0.2235
13531TIP3    H162084   2.161   5.618   2.446 -0.6306 -0.8975  1.1131
13531TIP3    H262085   2.126   5.747   2.376  1.8613  1.5028  4.0046
13532TIP3   OH262086   4.052   1.555   5.983 -0.1666  0.3900  0.7446
13532TIP3    H162087   4.141   1.587   5.993 -0.4711  0.9914  1.5991
13532TIP3    H262088   4.055   1.465   6.012  0.2846  0.2123  0.1748
13533TIP3   OH262089   1.982   5.273   1.614  0.2409  0.6264 -0.0939
13533TIP3    H162090   1.894   5.238   1.620  0.7677 -0.7755 -0.2562
13533TIP3    H262091   2.039   5.198   1.632  1.3999  1.4955 -0.0419
13534TIP3   OH262092   1.797   0.474  15.602  0.1507 -0.2085 -0.0754
13534TIP3    H162093   1.805   0.394  15.655  1.5496  0.1712  0.3452
13534TIP3    H262094   1.810   0.444  15.512  0.4657 -0.4840  0.0598
13535TIP3   OH262095   6.253   3.981  13.654 -0.6188 -0.1629 -0.5564
13535TIP3    H162096   6.322   3.959  13.590 -0.9604 -1.5452 -0.4706
13535TIP3    H262097   6.177   4.003  13.600 -0.6435 -0.4444 -0.6389
13536TIP3   OH262098   4.577   5.688   4.248  0.1307 -0.3686 -0.6605
13536TIP3    H162099   4.540   5.657   4.331  1.6663 -0.7026 -0.0722
13536TIP3    H262100   4.594   5.608   4.198  0.6627 -0.2622 -0.6527
13537TIP3   OH262101   2.103   3.018   3.488 -0.6045 -0.5146 -0.2438
13537TIP3    H162102   2.053   3.077   3.545  0.0442 -1.4045  1.3007
13537TIP3    H262103   2.052   3.014   3.407 -0.8003  1.9534 -0.3171
13538TIP3   OH262104   6.584   3.984   1.040  0.3144  0.1373  0.1989
13538TIP3    H162105   6.509   3.943   1.085  0.5056 -1.6008 -0.9798
13538TIP3    H262106   6.562   3.981   0.947  2.1779 -1.1950 -0.2586
13539TIP3   OH262107   3.002   6.160  14.063  0.0658 -0.2570 -0.1041
13539TIP3    H162108   2.969   6.248  14.083  1.5847 -0.0146  1.6949
13539TIP3    H262109   2.926   6.103  14.072 -1.0007  0.8612 -1.5360
13540TIP3   OH262110   5.008   2.539   3.485  0.0793 -0.4626  0.6703
13540TIP3    H162111   5.033   2.524   3.394 -0.6337 -1.8693  0.6775
13540TIP3    H262112   5.033   2.459   3.530  0.7424  0.3504  1.7986
13541TIP3   OH262113   6.230   1.994  17.026  0.1809 -0.4075  0.0310
13541TIP3    H162114   6.273   2.015  17.109  0.8608  0.0728 -0.4299
13541TIP3    H262115   6.263   1.908  17.002  0.6179 -0.1959 -0.1387
13542TIP3   OH262116   5.805   5.223  12.636 -0.4941  0.0488  0.3101
13542TIP3    H162117   5.721   5.224  12.682 -0.3679  2.9279  0.6415
13542TIP3    H262118   5.871   5.224  12.705 -0.2395  0.6518  0.0653
13543TIP3   OH262119   2.521   1.175   3.395 -0.1548  0.3384 -0.1139
13543TIP3    H162120   2.535   1.155   3.303  1.0665  1.6524 -0.2418
13543TIP3    H262121   2.498   1.268   3.397 -1.3480  0.0473  0.8157
13544TIP3   OH262122   2.047   3.421  11.829 -0.2908  0.0060 -0.3550
13544TIP3    H162123   2.013   3.456  11.911 -0.5891  0.3478 -0.6259
13544TIP3    H262124   2.119   3.480  11.806  0.7881 -0.9449  0.4288
13545TIP3   OH262125   2.008   0.105   2.388  0.2621 -0.0622  0.9510
13545TIP3    H162126   2.088   0.055   2.405  0.9433  0.0222 -1.6245
13545TIP3    H262127   2.035   0.197   2.394  0.1012 -0.0253  1.1289
13546TIP3   OH262128   0.888   3.874  17.091  0.1447 -0.0934  0.8855
13546TIP3    H162129   0.980   3.846  17.100  0.6326 -0.2144 -2.9120
13546TIP3    H262130   0.891   3.943  17.026 -2.6232 -1.2873 -0.6474
13547TIP3   OH262131   0.732   0.909  13.609  0.2280  0.4998 -0.4161
13547TIP3    H162132   0.666   0.872  13.667  0.0415  0.4253 -0.6731
13547TIP3    H262133   0.703   0.998  13.592  1.5169  1.3550  1.5066
13548TIP3   OH262134   0.436   1.416   5.635  0.4468 -0.1393  0.4041
13548TIP3    H162135   0.489   1.392   5.559 -2.0290 -0.7659 -1.2428
13548TIP3    H262136   0.471   1.362   5.706  1.3933 -1.2599 -0.8437
13549TIP3   OH262137   6.040   3.317  13.902 -0.2457 -0.2589  0.0100
13549TIP3    H162138   6.110   3.334  13.839  0.9925 -2.1001  0.8008
13549TIP3    H262139   6.037   3.395  13.957  1.5876 -0.3550  0.2931
13550TIP3   OH262140   3.009   3.841  16.659  0.1290 -0.4118  0.3574
13550TIP3    H162141   2.930   3.895  16.671 -0.5472 -0.9108 -1.5275
13550TIP3    H262142   3.076   3.903  16.631 -0.1662 -0.2660 -0.0451
13551TIP3   OH262143   4.006   0.448  12.415  0.4368 -0.2832 -0.4186
13551TIP3    H162144   4.073   0.507  12.449 -1.7341  1.0322  1.8452
13551TIP3    H262145   3.973   0.400  12.491 -2.6831  0.7291 -0.9812
13552TIP3   OH262146   4.485   3.189   3.513  0.3286 -0.2658 -0.1296
13552TIP3    H162147   4.550   3.223   3.575 -1.0164 -0.2672  1.3351
13552TIP3    H262148   4.533   3.180   3.430  2.3450 -0.8350  1.0408
13553TIP3   OH262149   0.439   0.860   3.230 -0.0664 -0.1148 -0.2709
13553TIP3    H162150   0.364   0.826   3.182  0.5894 -1.5330 -0.3388
13553TIP3    H262151   0.494   0.783   3.247  1.1216  0.8083  0.2231
13554TIP3   OH262152   1.465   2.050   4.115  0.1574  0.2276 -0.0915
13554TIP3    H162153   1.554   2.016   4.103  0.0784 -0.0682  0.1539
13554TIP3    H262154   1.469   2.097   4.198  0.3867  1.2284 -0.6539
13555TIP3   OH262155   3.158   0.421   3.991  0.5988  0.4298 -0.0553
13555TIP3    H162156   3.176   0.453   3.903  0.0755  0.8734 -0.0073
13555TIP3    H262157   3.223   0.352   4.005 -0.1133 -0.5263 -1.2620
13556TIP3   OH262158   3.224   0.504   2.738 -0.1011 -0.2882  0.5373
13556TIP3    H162159   3.223   0.432   2.675 -1.6201  0.5789 -0.5013
13556TIP3    H262160   3.268   0.468   2.815  0.4649 -1.8578 -0.4724
13557TIP3   OH262161   3.600   4.057  11.877 -0.0884 -0.0682  0.7051
13557TIP3    H162162   3.538   4.064  11.804  1.4610  0.9978 -0.5940
13557TIP3    H262163   3.663   4.128  11.862  0.8691 -0.4717  2.5227
13558TIP3   OH262164   4.833   3.872   4.249 -0.4374 -0.4503  0.6683
13558TIP3    H162165   4.759   3.928   4.273  1.2959  0.9167  3.3992
13558TIP3    H262166   4.841   3.811   4.322  1.0779 -0.5852  0.4189
13559TIP3   OH262167   0.808   4.764   4.666  0.1228  0.6602  0.8384
13559TIP3    H162168   0.879   4.808   4.619  0.2176  2.2036  2.3367
13559TIP3    H262169   0.840   4.755   4.756 -0.7205 -0.6828  1.0366
13560TIP3   OH262170   4.566   4.958   5.947 -0.2375  0.0570 -0.2778
13560TIP3    H162171   4.621   4.959   6.025 -0.1126  3.7987 -0.2257
13560TIP3    H262172   4.503   4.888   5.963  1.8856 -1.6085  1.5214
13561TIP3   OH262173   6.582   2.765   3.271  0.2269  0.0643 -0.0532
13561TIP3    H162174   6.573   2.813   3.353 -0.9164  0.9701 -0.6938
13561TIP3    H262175   6.566   2.830   3.203 -0.9332 -1.1260 -0.9502
13562TIP3   OH262176   1.419   2.868   4.121 -0.1494 -0.2893  0.0022
13562TIP3    H162177   1.411   2.923   4.199 -1.4904  0.2801 -0.5023
13562TIP3    H262178   1.415   2.929   4.048  0.6456 -0.8581 -0.5262
13563TIP3   OH262179   0.909   3.785  11.006  0.5684 -0.1400 -0.8516
13563TIP3    H162180   0.958   3.740  11.075  1.4912 -0.0545 -1.4422
13563TIP3    H262181   0.823   3.801  11.045  0.5511 -1.4952 -0.2703
13564TIP3   OH262182   3.651   3.049  11.875  0.4026 -0.9503 -0.1983
13564TIP3    H162183   3.709   3.016  11.807  1.6420 -0.2173  0.4523
13564TIP3    H262184   3.597   2.974  11.901  1.1733 -1.6927 -0.7223
13565TIP3   OH262185   3.991   6.398   1.119 -0.2916  0.2353 -0.0704
13565TIP3    H162186   4.066   6.385   1.061  0.3474 -1.0367  0.9978
13565TIP3    H262187   3.987   6.492   1.134 -0.3784  0.5754 -2.0275
13566TIP3   OH262188   6.439   4.585  13.804  0.6381 -0.1755 -0.3718
13566TIP3    H162189   6.521   4.578  13.853  0.4079 -0.2853 -0.0003
13566TIP3    H262190   6.393   4.504  13.824  1.0970 -0.8298 -1.7905
13567TIP3   OH262191   2.205   1.978   2.678  0.5118 -0.1503  0.2789
13567TIP3    H162192   2.197   1.889   2.644  0.1756  0.2459 -0.7164
13567TIP3    H262193   2.269   2.020   2.620 -0.9276  0.8853 -0.6147
13568TIP3   OH262194   3.107   5.716   4.114  0.0332  0.1662 -0.0865
13568TIP3    H162195   3.184   5.715   4.056  1.5608 -0.2686  1.8331
13568TIP3    H262196   3.082   5.808   4.118 -0.1832  0.1916 -1.4984
13569TIP3   OH262197   0.644   0.537   5.570 -0.3172  0.2916 -0.1248
13569TIP3    H162198   0.729   0.582   5.566  0.3657 -1.0453 -1.8804
13569TIP3    H262199   0.663   0.457   5.619 -0.3771 -0.3521 -1.1392
13570TIP3   OH262200   2.324   6.779   1.800  0.2958 -0.6613 -0.2868
13570TIP3    H162201   2.341   6.685   1.790  1.2806 -0.8877  2.5724
13570TIP3    H262202   2.229   6.786   1.798  0.1134 -2.0335  1.2683
13571TIP3   OH262203   3.274   6.496  14.878 -0.1746 -0.2246  0.1336
13571TIP3    H162204   3.355   6.494  14.928 -0.0827 -0.5866 -0.0220
13571TIP3    H262205   3.207   6.465  14.938 -0.6661  2.3498  1.0430
13572TIP3   OH262206   1.293   5.884  13.777 -0.4735 -0.3516 -0.0158
13572TIP3    H162207   1.322   5.816  13.838  2.1428  0.6903  0.0296
13572TIP3    H262208   1.202   5.899  13.800 -0.5153 -2.3442  1.3733
13573TIP3   OH262209   2.735   1.236  15.258  0.2863  0.3919  0.1153
13573TIP3    H162210   2.789   1.221  15.335  1.6877  1.0548 -0.6929
13573TIP3    H262211   2.665   1.294  15.288  0.2610 -0.1298  1.0860
13574TIP3   OH262212   4.181   2.885  16.602  0.0000 -0.2532  0.2842
13574TIP3    H162213   4.129   2.892  16.522  0.1580  1.3970  0.2848
13574TIP3    H262214   4.134   2.822  16.656 -0.5485 -0.7826 -0.7800
13575TIP3   OH262215   1.858   5.163   5.887  0.4857 -0.2543  0.3625
13575TIP3    H162216   1.832   5.199   5.971  0.6515 -0.6516  0.5846
13575TIP3    H262217   1.817   5.076   5.884  1.9998 -1.0232  0.8544
13576TIP3   OH262218   2.848   4.324   1.130 -0.9054 -0.2936  0.0751
13576TIP3    H162219   2.804   4.386   1.072 -0.1703  0.7638  0.6064
13576TIP3    H262220   2.892   4.379   1.195 -2.0670 -1.4571  1.9200
13577TIP3   OH262221   4.524   4.146  10.588 -0.9498 -0.4791  0.1881
13577TIP3    H162222   4.431   4.164  10.604 -0.6135 -0.5414  2.6366
13577TIP3    H262223   4.550   4.090  10.662  1.1831  0.0978 -0.0722
13578TIP3   OH262224   0.074   6.258   2.291 -0.4418  0.0351 -0.1681
13578TIP3    H162225   0.156   6.307   2.300 -0.3206 -0.0372 -0.8654
13578TIP3    H262226   0.016   6.298   2.357  0.6203 -0.9407  1.4359
13579TIP3   OH262227   5.617   3.458   1.267 -0.0406 -0.4393 -0.0028
13579TIP3    H162228   5.617   3.362   1.260 -1.7098 -0.3846 -1.2681
13579TIP3    H262229   5.525   3.483   1.257 -0.0756  1.1577  3.1090
13580TIP3   OH262230   5.077   1.781  12.179 -0.0518  0.5361  0.3955
13580TIP3    H162231   5.049   1.785  12.271 -0.3039 -0.9475  0.4001
13580TIP3    H262232   5.172   1.797  12.183 -0.3074  2.1620  0.7198
13581TIP3   OH262233   3.077   5.790  11.260  0.9913  0.1410 -0.2143
13581TIP3    H162234   3.013   5.720  11.249 -0.5889  1.6296 -1.1243
13581TIP3    H262235   3.084   5.802  11.354  0.6540 -0.6684 -0.0775
13582TIP3   OH262236   4.124   4.566  11.156 -0.2267  0.5374  0.4525
13582TIP3    H162237   4.110   4.612  11.238 -0.8968  2.3868 -0.6356
13582TIP3    H262238   4.099   4.629  11.088  1.2278 -0.5664 -1.2118
13583TIP3   OH262239   3.907   0.908  14.666  0.8009 -0.1158 -0.3089
13583TIP3    H162240   3.901   0.875  14.756  0.1079 -1.5632 -0.8632
13583TIP3    H262241   3.818   0.903  14.633  1.4267 -1.9820 -1.8759
13584TIP3   OH262242   1.809   4.529  10.920 -0.6704  0.0044 -0.0002
13584TIP3    H162243   1.835   4.445  10.959  2.2443  0.5453 -0.4797
13584TIP3    H262244   1.738   4.507  10.860  0.2263 -2.2242 -0.3473
13585TIP3   OH262245   2.151   4.497  15.887  0.2505 -0.1438  0.0641
13585TIP3    H162246   2.154   4.511  15.981  0.0101 -0.2638  0.0925
13585TIP3    H262247   2.086   4.427  15.876  0.3339 -0.1825 -0.1829
13586TIP3   OH262248   2.020   2.732   0.109  0.7406  0.0646  0.1258
13586TIP3    H162249   1.970   2.652   0.120  1.6262 -0.5550 -0.2184
13586TIP3    H262250   2.060   2.748   0.194 -0.8004  1.1162  0.6930
13587TIP3   OH262251   5.731   3.560  13.357  0.0335  0.2564 -0.2225
13587TIP3    H162252   5.692   3.634  13.403  2.0338  1.3044 -0.1039
13587TIP3    H262253   5.661   3.528  13.300 -1.5798  0.7893  1.3663
13588TIP3   OH262254   0.273   0.132   0.527  0.1347  0.3544  0.6163
13588TIP3    H162255   0.199   0.136   0.587  0.0507 -0.7247  0.6109
13588TIP3    H262256   0.234   0.111   0.442  0.5163 -1.4175  0.8420
13589TIP3   OH262257   3.293   0.660   2.190 -0.4633  0.5446 -0.0817
13589TIP3    H162258   3.368   0.611   2.224 -1.2018  0.2402  1.1850
13589TIP3    H262259   3.261   0.608   2.117  0.7236  0.8381 -0.8417
13590TIP3   OH262260   2.340   4.912   1.102  0.0994  0.5298 -0.2637
13590TIP3    H162261   2.333   4.897   1.008 -1.4147  0.8791 -0.2397
13590TIP3    H262262   2.266   4.969   1.123  1.2525  1.6680  0.9081
13591TIP3   OH262263   2.848   0.541  11.311  0.1364 -0.9552 -0.0076
13591TIP3    H162264   2.814   0.461  11.350  1.5288 -1.7195 -0.2892
13591TIP3    H262265   2.899   0.511  11.235  1.3466  0.1222  0.3477
13592TIP3   OH262266   1.597   2.712   2.901 -0.2294  0.1477  0.2895
13592TIP3    H162267   1.615   2.632   2.852 -0.2605 -0.4856  1.2963
13592TIP3    H262268   1.676   2.728   2.952  0.7427  2.1040 -1.6495
13593TIP3   OH262269   3.854   6.293   5.558  0.1003 -0.2726 -0.3433
13593TIP3    H162270   3.845   6.323   5.467 -0.7897 -3.1021 -1.3165
13593TIP3    H262271   3.794   6.348   5.607 -0.3202  0.5262 -1.6885
13594TIP3   OH262272   6.813   3.614  16.575 -0.3661  0.1537 -0.5067
13594TIP3    H162273   6.890   3.575  16.534  0.8696 -0.7392  2.3534
13594TIP3    H262274   6.765   3.540  16.611 -0.6930  0.9166  0.6998
13595TIP3   OH262275   3.135   6.354  12.884 -0.4883 -0.2627  0.0460
13595TIP3    H162276   3.195   6.348  12.809 -0.2918 -0.4378  0.2175
13595TIP3    H262277   3.176   6.416  12.943 -0.2182 -0.7708  0.3979
13596TIP3   OH262278   1.382   4.984  15.333 -0.4068 -0.0393 -0.2039
13596TIP3    H162279   1.393   5.043  15.408  0.6009  0.2207 -0.5374
13596TIP3    H262280   1.452   5.010  15.272 -1.1531 -0.3003 -1.1984
13597TIP3   OH262281   6.270   4.774  11.471  0.5053 -0.2179  0.2622
13597TIP3    H162282   6.363   4.752  11.465  0.5605  0.3318 -1.9883
13597TIP3    H262283   6.269   4.864  11.502  0.6611 -0.5521  1.2621
13598TIP3   OH262284   2.368   1.595   1.919 -0.0947 -0.1001 -0.1705
13598TIP3    H162285   2.287   1.545   1.914 -1.4024  1.8436  0.2526
13598TIP3    H262286   2.389   1.617   1.828  0.0925 -0.7952 -0.2977
13599TIP3   OH262287   3.375   4.530   2.073 -0.2555 -0.4564  0.2164
13599TIP3    H162288   3.375   4.510   2.166  2.4379 -1.7658  0.0406
13599TIP3    H262289   3.315   4.466   2.035  0.1524 -1.2522  0.8713
13600TIP3   OH262290   4.086   6.240   2.966  0.4127 -0.3734  0.0165
13600TIP3    H162291   4.054   6.207   2.882  0.8457  1.4621 -0.9213
13600TIP3    H262292   4.008   6.276   3.009  0.3625 -0.3928 -0.0586
13601TIP3   OH262293   5.854   5.473  13.098 -0.2188 -0.3303 -0.4817
13601TIP3    H162294   5.935   5.439  13.060 -0.6595 -0.9612 -0.8733
13601TIP3    H262295   5.807   5.511  13.023  0.4720  1.6282  0.0023
13602TIP3   OH262296   6.200   4.279  12.942 -0.0986  0.2784  0.0401
13602TIP3    H162297   6.267   4.343  12.966  0.9473 -1.1246  1.0035
13602TIP3    H262298   6.247   4.211  12.894 -0.9859 -0.3267 -0.0008
13603TIP3   OH262299   5.035   6.476   0.119  0.5076 -0.3490  0.3060
13603TIP3    H162300   5.121   6.478   0.079  0.2391 -2.6273 -0.4999
13603TIP3    H262301   4.974   6.486   0.046  0.0656 -1.1905  0.5500
13604TIP3   OH262302   0.873   4.662  14.994  0.3028 -0.2302  0.3044
13604TIP3    H162303   0.898   4.587  15.047 -0.7994 -1.0645 -0.3179
13604TIP3    H262304   0.826   4.719  15.055  2.0920  0.5332  1.0518
13605TIP3   OH262305   4.118   1.483  14.220  0.3793  0.0820  0.5340
13605TIP3    H162306   4.038   1.444  14.185 -0.0951  1.6530 -0.2115
13605TIP3    H262307   4.181   1.410  14.223 -0.1804 -0.5570 -1.6885
13606TIP3   OH262308   5.418   3.656  10.576 -0.4325  0.5591 -0.4722
13606TIP3    H162309   5.455   3.569  10.559 -2.3564 -0.3294 -0.3708
13606TIP3    H262310   5.428   3.703  10.493 -1.5031 -0.6039 -1.3022
13607TIP3   OH262311   4.699   4.009  16.913 -0.3727 -0.2757  0.3076
13607TIP3    H162312   4.670   4.086  16.962 -2.0425 -0.7802  0.1806
13607TIP3    H262313   4.766   4.042  16.853 -0.7389  0.9876  0.5592
13608TIP3   OH262314   5.239   4.075  13.857 -0.6496  0.4042  0.4847
13608TIP3    H162315   5.314   4.066  13.799 -0.1150  0.8210  1.1026
13608TIP3    H262316   5.271   4.128  13.930 -0.7749 -1.5620  2.0663
13609TIP3   OH262317   1.544   0.376  11.696  0.1742  0.2344 -0.3755
13609TIP3    H162318   1.498   0.452  11.661  1.5366  0.7571 -1.0967
13609TIP3    H262319   1.527   0.306  11.632 -0.8567 -0.0088  0.1498
13610TIP3   OH262320   6.500   0.044   2.504  0.2221  0.1397 -0.3210
13610TIP3    H162321   6.535   0.021   2.418  2.3313 -0.0214  0.5212
13610TIP3    H262322   6.576   0.041   2.562 -1.5729 -3.1391  2.2434
13611TIP3   OH262323   0.514   3.957  13.892 -0.2809  0.4619  0.1492
13611TIP3    H162324   0.467   3.883  13.932  0.5144  0.6805  1.5197
13611TIP3    H262325   0.499   4.030  13.951  0.5134  0.9207 -0.2056
13612TIP3   OH262326   1.453   1.316   1.051  0.4865  0.0056  0.6736
13612TIP3    H162327   1.400   1.237   1.061 -0.8902  0.9400  0.8899
13612TIP3    H262328   1.445   1.339   0.958  1.0895 -0.2228  0.5553
13613TIP3   OH262329   6.718   1.779   2.497  0.3298  0.1599 -0.5921
13613TIP3    H162330   6.642   1.741   2.540 -0.6594  0.8499 -1.6886
13613TIP3    H262331   6.787   1.713   2.507  0.4837  0.7000  2.9075
13614TIP3   OH262332   5.304   0.330  13.982  0.0503 -0.0843  0.3192
13614TIP3    H162333   5.377   0.392  13.977 -0.5133  0.5001 -1.7537
13614TIP3    H262334   5.340   0.254  14.028  1.0185  1.3880  2.1351
13615TIP3   OH262335   3.607   0.636  11.628 -0.0667  0.2649  0.3663
13615TIP3    H162336   3.558   0.713  11.599 -1.7634 -1.2059 -0.9510
13615TIP3    H262337   3.540   0.569  11.641  1.4932 -1.5415 -0.4297
13616TIP3   OH262338   1.566   3.220  17.107  0.0971 -0.6015 -0.2358
13616TIP3    H162339   1.515   3.211  17.026 -0.2951 -0.6059  0.0067
13616TIP3    H262340   1.517   3.169  17.171  0.8159 -1.2416 -0.1769
13617TIP3   OH262341   5.102   5.937   2.652 -0.5311 -0.6398  0.1162
13617TIP3    H162342   5.039   5.976   2.713 -2.7395 -1.7182 -1.3173
13617TIP3    H262343   5.075   5.845   2.646  0.3732 -0.8328 -1.5715
13618TIP3   OH262344   4.448   6.093   2.268 -0.0543  0.5531  0.5089
13618TIP3    H162345   4.471   6.013   2.222  0.2130  0.7374  0.3151
13618TIP3    H262346   4.438   6.159   2.199 -0.6225  0.6066  0.6373
13619TIP3   OH262347   5.825   5.572  11.720  0.1745  0.6100  0.5247
13619TIP3    H162348   5.749   5.579  11.662 -1.1617  0.6315  2.2277
13619TIP3    H262349   5.900   5.587  11.662 -0.8714 -2.0745 -1.7949
13620TIP3   OH262350   3.555   3.418  16.634  0.1453 -0.1083  0.3350
13620TIP3    H162351   3.505   3.382  16.707 -0.2896 -0.6124 -0.2011
13620TIP3    H262352   3.581   3.505  16.664  0.2012 -0.4105  1.1903
13621TIP3   OH262353   1.366   5.400  10.763 -0.2527 -0.2405 -0.6414
13621TIP3    H162354   1.371   5.368  10.673 -3.7526 -2.0632 -0.3400
13621TIP3    H262355   1.273   5.410  10.780  0.3673  1.9992  2.1917
13622TIP3   OH262356   1.059   6.813   2.074 -0.3358  0.3210  0.3500
13622TIP3    H162357   1.107   6.896   2.073 -1.0507  0.7354 -0.2736
13622TIP3    H262358   0.971   6.835   2.043 -0.7081 -0.5670  0.7248
13623TIP3   OH262359   2.889   0.233   2.211 -0.0037  0.5767 -0.1722
13623TIP3    H162360   2.800   0.209   2.184  0.6162 -1.2978 -0.6396
13623TIP3    H262361   2.899   0.192   2.297  1.5256 -2.1133 -1.5386
13624TIP3   OH262362   3.351   3.652  11.880 -0.2712 -0.3174 -0.0554
13624TIP3    H162363   3.411   3.704  11.933 -1.2469  1.2462 -0.4153
13624TIP3    H262364   3.339   3.571  11.930 -0.3791  0.6875  1.6376
13625TIP3   OH262365   6.206   1.161  12.195 -0.0376 -0.0720 -0.1643
13625TIP3    H162366   6.228   1.073  12.224 -0.3679 -0.5953 -1.4473
13625TIP3    H262367   6.210   1.157  12.100 -0.5949  1.1624 -0.2643
13626TIP3   OH262368   0.218   6.300  11.611 -0.5670  0.0701  0.2791
13626TIP3    H162369   0.259   6.307  11.697 -0.0624  1.3200 -0.0432
13626TIP3    H262370   0.257   6.371  11.559  0.1450 -1.4755 -1.4106
13627TIP3   OH262371   5.805   1.650  16.860  0.2857  0.3789  0.0315
13627TIP3    H162372   5.795   1.676  16.951 -1.1374 -0.8652  0.2565
13627TIP3    H262373   5.876   1.585  16.861  0.3075  0.4069  0.2370
13628TIP3   OH262374   0.698   4.831   6.129 -0.1857 -0.2184  0.2225
13628TIP3    H162375   0.717   4.739   6.113 -0.2681 -0.2264  0.1734
13628TIP3    H262376   0.652   4.831   6.213 -0.0052 -0.2029  0.3215
13629TIP3   OH262377   5.473   4.174  13.176 -0.3898  0.3060  0.2485
13629TIP3    H162378   5.383   4.179  13.142  0.5722  2.7689 -2.3676
13629TIP3    H262379   5.526   4.152  13.099  1.4208  0.7042  1.3301
13630TIP3   OH262380   1.470   2.507  16.947  0.4286  0.5375 -0.2552
13630TIP3    H162381   1.536   2.477  16.884 -0.0807  0.2823 -0.6792
13630TIP3    H262382   1.430   2.583  16.904 -2.1170 -1.4519 -1.7603
13631TIP3   OH262383   5.021   4.088   0.604  0.0560 -0.3268  0.6520
13631TIP3    H162384   5.059   4.038   0.676  0.4549 -0.3201  0.4484
13631TIP3    H262385   5.078   4.070   0.529 -0.5964 -0.6575  0.2339
13632TIP3   OH262386   0.195   2.280   1.655  0.1410  0.0608  0.4358
13632TIP3    H162387   0.104   2.295   1.626  0.5636  0.0393 -0.9902
13632TIP3    H262388   0.223   2.203   1.606  0.6492 -0.5042  1.5713
13633TIP3   OH262389   0.341   3.582  16.899 -0.0159  0.6610 -0.1356
13633TIP3    H162390   0.375   3.501  16.938  0.5949  1.9148  2.1540
13633TIP3    H262391   0.254   3.559  16.868  0.3547 -1.0007 -0.0323
13634TIP3   OH262392   5.635   6.266   4.618  0.0742 -0.2822  0.1569
13634TIP3    H162393   5.557   6.284   4.566 -0.5760 -1.5624  0.6539
13634TIP3    H262394   5.627   6.322   4.695 -0.7119 -0.9160  0.5421
13635TIP3   OH262395   4.873   2.757  11.903  0.2932 -0.3626  0.3030
13635TIP3    H162396   4.960   2.734  11.935 -0.5402 -2.9865  0.9358
13635TIP3    H262397   4.842   2.679  11.858 -1.0532  1.1435 -1.5617
13636TIP3   OH262398   4.428   5.549  14.050  0.0396 -0.0444  0.0636
13636TIP3    H162399   4.398   5.631  14.011 -0.0773 -0.6395 -1.1356
13636TIP3    H262400   4.437   5.489  13.976  3.4285 -0.1749  0.4128
13637TIP3   OH262401   1.213   5.140   3.744 -0.5877 -0.4717  0.0991
13637TIP3    H162402   1.286   5.151   3.805 -1.0964 -1.6776  0.9467
13637TIP3    H262403   1.138   5.118   3.799 -1.0608 -1.6251 -0.9539
13638TIP3   OH262404   1.443   4.086   1.452  0.6362 -0.0610 -0.3511
13638TIP3    H162405   1.394   4.063   1.530  0.1417 -1.3551 -1.0124
13638TIP3    H262406   1.399   4.164   1.417  0.7901  0.4486  0.5729
13639TIP3   OH262407   1.189   5.155  15.131 -0.4897  0.1178  0.3779
13639TIP3    H162408   1.250   5.081  15.130  0.2842  0.7375 -0.1267
13639TIP3    H262409   1.103   5.116  15.120 -0.1743 -0.7750  0.9776
13640TIP3   OH262410   1.219   6.101  13.118  0.1937  0.3073  0.3452
13640TIP3    H162411   1.140   6.139  13.156 -1.4533 -0.8329 -1.7412
13640TIP3    H262412   1.237   6.155  13.041  0.8000 -0.1136  0.1817
13641TIP3   OH262413   5.499   2.033   4.199  0.4668 -0.3433 -0.0674
13641TIP3    H162414   5.570   2.097   4.192 -0.1734  0.2533 -1.3396
13641TIP3    H262415   5.540   1.949   4.179  1.3097 -0.3789  1.6068
13642TIP3   OH262416   3.963   1.543  16.281  0.1260 -0.3692 -0.2273
13642TIP3    H162417   3.907   1.619  16.298  1.6773  1.0838 -1.2840
13642TIP3    H262418   3.902   1.470  16.277 -1.3774  0.6748  1.4323
13643TIP3   OH262419   4.263   4.944  15.789 -0.7051 -0.0245  0.3695
13643TIP3    H162420   4.198   4.970  15.855 -2.1944 -0.9236 -0.6644
13643TIP3    H262421   4.230   4.860  15.757  1.1302 -0.6123 -0.0439
13644TIP3   OH262422   1.533   6.079  11.826  0.2776  0.0454 -0.0027
13644TIP3    H162423   1.495   5.992  11.832  1.7739 -0.5421  1.7127
13644TIP3    H262424   1.570   6.084  11.738 -0.3661 -0.7951 -0.3271
13645TIP3   OH262425   2.052   0.124  12.061 -0.5086 -0.4836 -0.2486
13645TIP3    H162426   2.069   0.210  12.099  1.5689 -0.5798 -0.8138
13645TIP3    H262427   2.055   0.139  11.966 -0.8594 -1.0586 -0.3528
13646TIP3   OH262428   3.109   2.795  15.198 -0.4282  0.3023 -0.6644
13646TIP3    H162429   3.188   2.782  15.145  0.9389 -0.9450  1.5081
13646TIP3    H262430   3.052   2.723  15.175  1.0767 -1.5317  0.9909
13647TIP3   OH262431   1.421   3.377   3.498  0.1678 -0.5119 -0.3468
13647TIP3    H162432   1.441   3.460   3.454 -1.4683 -0.4291 -0.9755
13647TIP3    H262433   1.468   3.382   3.582 -1.7024  2.0767  0.6730
13648TIP3   OH262434   6.393   0.189   0.855 -0.1992  0.4641 -0.2147
13648TIP3    H162435   6.448   0.111   0.848  0.7092  0.9689  1.0409
13648TIP3    H262436   6.325   0.176   0.788  0.1867 -1.1845 -0.3342
13649TIP3   OH262437   4.692   2.406  14.460  0.0956 -0.0721 -0.3727
13649TIP3    H162438   4.779   2.445  14.450  0.2221 -0.1910  0.2466
13649TIP3    H262439   4.668   2.379  14.371 -0.1838  1.7998 -0.9009
13650TIP3   OH262440   5.047   4.318   0.337 -0.6351  0.0984  0.3107
13650TIP3    H162441   5.133   4.314   0.295 -0.2960 -0.1763  1.0096
13650TIP3    H262442   5.030   4.228   0.367 -0.7484  0.3333  0.9815
13651TIP3   OH262443   5.421   3.954   3.559  0.1029 -0.4862  0.2737
13651TIP3    H162444   5.453   4.011   3.629  2.7443  0.1818 -1.3664
13651TIP3    H262445   5.367   4.012   3.504  1.2770  0.0040 -0.3840
13652TIP3   OH262446   2.362   2.415  14.347 -0.0212 -0.2480  0.0562
13652TIP3    H162447   2.447   2.457  14.359 -0.3388  0.5045 -0.2445
13652TIP3    H262448   2.311   2.478  14.296 -0.6126 -0.8810 -0.1587
13653TIP3   OH262449   3.845   3.258   0.239 -0.2329  0.6005 -0.7614
13653TIP3    H162450   3.874   3.349   0.247  0.0563  0.4516 -0.0115
13653TIP3    H262451   3.765   3.252   0.291  0.1256  0.2672 -0.2396
13654TIP3   OH262452   3.526   0.567  16.551 -0.0876  0.2771 -0.5991
13654TIP3    H162453   3.620   0.556  16.563 -0.1889 -0.9509 -0.7730
13654TIP3    H262454   3.516   0.590  16.459  0.2447  3.7033  0.1013
13655TIP3   OH262455   1.145   1.634  13.949  0.0800 -0.2881 -0.0195
13655TIP3    H162456   1.054   1.641  13.919  0.3836 -2.1187 -1.5738
13655TIP3    H262457   1.191   1.594  13.875  2.1279  0.3914  0.8221
13656TIP3   OH262458   3.424   3.069   4.673 -0.4072  0.3496 -0.9207
13656TIP3    H162459   3.500   3.113   4.710 -0.1117 -0.3701 -0.6494
13656TIP3    H262460   3.432   2.978   4.702 -1.4936  0.3091 -0.6869
13657TIP3   OH262461   2.864   2.394   2.409 -0.0808  0.3634 -0.0203
13657TIP3    H162462   2.915   2.444   2.472 -0.7250  1.7538 -0.5632
13657TIP3    H262463   2.878   2.438   2.325 -1.2458  0.1065 -0.3787
13658TIP3   OH262464   2.480   4.239   2.755 -0.1399  0.1826  0.5124
13658TIP3    H162465   2.524   4.288   2.825 -0.4219 -0.7919  1.3835
13658TIP3    H262466   2.447   4.160   2.797 -2.4452  0.7039 -0.1702
13659TIP3   OH262467   3.375   2.473   0.744 -0.4254 -0.0967 -0.0085
13659TIP3    H162468   3.355   2.545   0.683  2.8028  0.7746 -0.2229
13659TIP3    H262469   3.355   2.394   0.694 -0.8926  0.6347 -1.0252
13660TIP3   OH262470   1.363   5.576   5.288 -0.7526  0.5578  0.1557
13660TIP3    H162471   1.406   5.617   5.214 -2.7754  1.7396 -0.4382
13660TIP3    H262472   1.404   5.489   5.295 -0.2674  0.5597 -2.0937
13661TIP3   OH262473   5.955   3.630  16.840 -0.6247 -0.5966 -0.4001
13661TIP3    H162474   5.934   3.711  16.795  0.0322  0.6090  1.3541
13661TIP3    H262475   5.870   3.589  16.856 -1.0186  0.0809 -0.7214
13662TIP3   OH262476   6.275   5.151  16.434  1.1913 -0.0287 -0.1681
13662TIP3    H162477   6.334   5.181  16.365  0.7048 -0.6680 -0.8804
13662TIP3    H262478   6.333   5.118  16.502  1.6752 -0.1323 -0.6209
13663TIP3   OH262479   6.225   6.247   6.350 -0.0442 -0.6436 -0.1045
13663TIP3    H162480   6.299   6.306   6.333 -0.3536 -0.8230 -2.3316
13663TIP3    H262481   6.186   6.281   6.430  1.0953  0.8358 -0.1159
13664TIP3   OH262482   0.110   2.400   0.503 -0.4927 -0.0303  0.7282
13664TIP3    H162483   0.178   2.467   0.497  0.5177 -1.1420 -1.4833
13664TIP3    H262484   0.039   2.442   0.552  0.1353  2.6057 -0.4369
13665TIP3   OH262485   1.209   4.028   4.760  0.2416 -0.2907  0.6138
13665TIP3    H162486   1.288   4.075   4.787 -0.8279  1.7820  0.3439
13665TIP3    H262487   1.138   4.091   4.772 -0.9386 -0.9146 -2.2502
13666TIP3   OH262488   2.736   5.866   0.250  0.1821 -0.3934  0.4867
13666TIP3    H162489   2.766   5.898   0.335 -2.2009  2.2970  0.4356
13666TIP3    H262490   2.698   5.780   0.270  0.5613 -0.2597  1.9286
13667TIP3   OH262491   2.052   1.309  11.603  0.2774 -0.0968 -0.2221
13667TIP3    H162492   2.096   1.227  11.585 -1.4649 -0.8627 -1.2209
13667TIP3    H262493   1.992   1.289  11.675 -1.6141 -0.2951 -1.7795
13668TIP3   OH262494   2.696   1.117   6.508 -0.6045  0.1778  0.3225
13668TIP3    H162495   2.664   1.082   6.425 -1.9925  1.0885  0.4270
13668TIP3    H262496   2.616   1.146   6.554  0.1574 -0.0544  1.8505
13669TIP3   OH262497   5.788   0.290  15.798 -0.1178 -0.1408  0.0624
13669TIP3    H162498   5.798   0.200  15.828 -0.5440  0.4631  2.1886
13669TIP3    H262499   5.862   0.336  15.838  0.4349  0.3816 -1.4813
13670TIP3   OH262500   1.428   4.407   5.575 -0.3096 -0.2995 -0.3307
13670TIP3    H162501   1.461   4.495   5.555 -0.7944  0.0694  0.4586
13670TIP3    H262502   1.371   4.386   5.501 -0.6635  0.3026 -0.2372
13671TIP3   OH262503   5.729   2.550  16.200  0.3947  0.1016  0.0824
13671TIP3    H162504   5.768   2.614  16.260 -0.7765  1.4738 -0.5690
13671TIP3    H262505   5.780   2.560  16.119  0.9836 -0.6748  0.3374
13672TIP3   OH262506   2.371   1.469   1.480  0.4503 -0.1074 -0.3748
13672TIP3    H162507   2.377   1.410   1.405  1.7801  0.4424 -0.7310
13672TIP3    H262508   2.288   1.446   1.523  0.0205 -0.9038 -1.5986
13673TIP3   OH262509   5.314   2.679   5.153  0.3330 -0.2202  0.1573
13673TIP3    H162510   5.254   2.752   5.166 -1.2467 -1.6578  1.4653
13673TIP3    H262511   5.261   2.613   5.107  1.4850 -0.8437 -0.3081
13674TIP3   OH262512   3.147   0.353   0.224  0.1958 -0.0127 -0.0837
13674TIP3    H162513   3.169   0.418   0.291  2.1542 -1.4668  0.7745
13674TIP3    H262514   3.051   0.356   0.219  0.0882  1.1896  1.7138
13675TIP3   OH262515   2.649   3.064   4.243 -0.2216  0.0178  0.2909
13675TIP3    H162516   2.662   2.969   4.252  3.4766  0.5018  2.0879
13675TIP3    H262517   2.713   3.090   4.177 -1.0429  1.3110 -0.0130
13676TIP3   OH262518   5.012   3.419  11.208 -0.1642 -0.8109 -0.2145
13676TIP3    H162519   5.059   3.345  11.247  2.7059  0.5743 -0.7950
13676TIP3    H262520   5.011   3.485  11.278 -0.2805 -0.4277 -0.5779
13677TIP3   OH262521   5.197   3.483  10.545  0.0125  0.0332  0.2805
13677TIP3    H162522   5.124   3.540  10.522  0.2880 -0.1319 -1.1350
13677TIP3    H262523   5.274   3.539  10.541  0.0466  0.0495  1.0724
13678TIP3   OH262524   3.542   3.868  10.571  0.0688  0.0538  0.0421
13678TIP3    H162525   3.464   3.882  10.624  0.2321 -1.8071  0.8714
13678TIP3    H262526   3.541   3.938  10.506 -0.9419  1.5167  1.5811
13679TIP3   OH262527   5.054   5.906  13.823  0.1937  0.3714  0.3781
13679TIP3    H162528   5.070   5.863  13.739  2.7358  2.0589 -0.1105
13679TIP3    H262529   5.046   5.999  13.801 -0.4806  0.6995  1.8835
13680TIP3   OH262530   1.010   5.566  16.979  0.0112 -0.1185  0.0864
13680TIP3    H162531   0.996   5.572  16.884 -0.4450  2.1546  0.2257
13680TIP3    H262532   0.925   5.542  17.014 -0.3244  0.9009  0.0159
13681TIP3   OH262533   1.900   0.731  17.123 -0.0253 -0.3738 -0.5454
13681TIP3    H162534   1.871   0.762  17.209  0.6397 -1.2769  0.0165
13681TIP3    H262535   1.832   0.763  17.063 -0.7065 -0.0609  0.3534
13682TIP3   OH262536   1.706   5.080  15.788  0.3496 -0.0894 -0.2761
13682TIP3    H162537   1.648   5.152  15.764  0.0453 -0.0187  0.6413
13682TIP3    H262538   1.754   5.113  15.864 -0.0474 -0.9758  0.3748
13683TIP3   OH262539   6.085   4.978   2.524  0.2636  0.2048 -0.2430
13683TIP3    H162540   6.125   4.891   2.526  0.7668  0.3890 -1.3360
13683TIP3    H262541   6.050   4.990   2.612  2.0801 -0.2239  0.5900
13684TIP3   OH262542   3.154   0.707  12.382  0.3133  0.0289 -0.2986
13684TIP3    H162543   3.237   0.728  12.338  0.8099 -0.4085  0.4107
13684TIP3    H262544   3.132   0.786  12.431 -0.1751  0.4731 -1.1960
13685TIP3   OH262545   5.597   2.324   2.280  0.2558  0.4480  0.1997
13685TIP3    H162546   5.686   2.294   2.261  0.6065  1.4130  0.2655
13685TIP3    H262547   5.600   2.355   2.370 -0.4081 -0.4190  0.5350
13686TIP3   OH262548   2.035   5.285   0.772 -0.1177  0.5054  0.3737
13686TIP3    H162549   2.064   5.345   0.703 -0.4753  1.0233  0.6641
13686TIP3    H262550   2.000   5.342   0.840 -1.3398 -0.0706  0.2536
13687TIP3   OH262551   0.346   3.991   1.559 -0.7528 -0.2269  0.0136
13687TIP3    H162552   0.323   4.082   1.544  0.8729 -0.1462 -2.6370
13687TIP3    H262553   0.381   3.989   1.648  0.2593  2.0021 -0.2733
13688TIP3   OH262554   4.574   6.791   4.863  0.0746  0.4171  0.2747
13688TIP3    H162555   4.544   6.714   4.814 -1.9814  1.2787  0.0950
13688TIP3    H262556   4.631   6.838   4.801 -1.4854  0.8360 -0.9053
13689TIP3   OH262557   5.374   3.971   0.721 -0.2323  0.3295  0.0777
13689TIP3    H162558   5.413   3.911   0.656 -0.5436 -0.1807  0.3528
13689TIP3    H262559   5.449   4.017   0.758 -0.1930  2.3541 -2.2763
13690TIP3   OH262560   4.622   3.204   2.071  0.8665  0.3773  0.0785
13690TIP3    H162561   4.575   3.250   2.140  0.3935 -0.0949  0.0759
13690TIP3    H262562   4.609   3.112   2.090  0.4886  0.2374 -0.8047
13691TIP3   OH262563   3.486   5.803  14.864  0.3068  0.4102  0.3532
13691TIP3    H162564   3.506   5.748  14.788 -1.5454 -1.6146  1.2174
13691TIP3    H262565   3.437   5.877  14.828 -1.9051 -1.2838 -0.3765
13692TIP3   OH262566   1.285   3.688  11.340 -0.5883 -0.0967  0.5169
13692TIP3    H162567   1.297   3.671  11.433 -1.7923 -0.5692  0.5966
13692TIP3    H262568   1.372   3.713  11.309  0.1338 -1.3239  1.4729
13693TIP3   OH262569   3.233   1.675  16.392 -0.1132 -0.4206 -0.1234
13693TIP3    H162570   3.170   1.707  16.456 -0.5630 -1.4784 -0.0028
13693TIP3    H262571   3.281   1.752  16.364 -2.4915  0.7026 -1.3561
13694TIP3   OH262572   4.938   0.437   1.652 -0.0383 -0.2844  0.8083
13694TIP3    H162573   4.905   0.513   1.605  0.6638 -1.1186 -1.1114
13694TIP3    H262574   4.873   0.369   1.637 -0.2776 -0.3249  1.8861
13695TIP3   OH262575   3.668   0.603   4.804  0.6379 -0.2695  0.1846
13695TIP3    H162576   3.729   0.656   4.753  0.6956 -1.3101 -0.8600
13695TIP3    H262577   3.642   0.661   4.877  1.7517  0.6878 -0.1358
13696TIP3   OH262578   1.053   3.507   0.801  0.3864  0.2849 -0.4474
13696TIP3    H162579   1.048   3.571   0.871  2.3419 -1.9780  2.0027
13696TIP3    H262580   1.145   3.506   0.776 -0.1524  0.5538 -2.6600
13697TIP3   OH262581   1.879   0.095   3.057  0.1004 -0.2852 -0.0995
13697TIP3    H162582   1.942   0.077   2.987 -0.5653 -1.0742 -0.5287
13697TIP3    H262583   1.917   0.053   3.134  0.9633  0.8075  0.0909
13698TIP3   OH262584   1.531   1.730   6.107  0.3308 -0.1768 -0.0254
13698TIP3    H162585   1.496   1.641   6.105 -1.1805  0.3918 -0.1293
13698TIP3    H262586   1.496   1.768   6.188  2.3786 -0.2011  0.9184
13699TIP3   OH262587   3.904   1.789  12.585 -0.2584 -0.6654  0.2563
13699TIP3    H162588   3.988   1.779  12.541 -0.2403  1.0668 -0.1456
13699TIP3    H262589   3.926   1.828  12.670 -0.4840 -2.2258  1.0834
13700TIP3   OH262590   2.957   6.614  11.381 -0.1650  0.7289  0.0279
13700TIP3    H162591   2.903   6.634  11.305  0.0858  1.8020  0.1148
13700TIP3    H262592   2.928   6.676  11.448  0.4303  0.5914  0.4253
13701TIP3   OH262593   2.676   2.199  15.243  0.1020 -0.2608  0.0579
13701TIP3    H162594   2.720   2.205  15.327  1.0722  0.8418 -0.4915
13701TIP3    H262595   2.635   2.284  15.231 -3.4100 -1.6418  1.1332
13702TIP3   OH262596   0.379   0.196   2.348  0.4530  0.1087 -0.3197
13702TIP3    H162597   0.397   0.106   2.374  0.2911  0.5892  1.6275
13702TIP3    H262598   0.428   0.249   2.411  0.3327  1.3829 -1.2659
13703TIP3   OH262599   5.044   3.652   2.033 -1.1031 -0.0615 -0.0384
13703TIP3    H162600   5.118   3.663   2.092 -1.3939 -0.4199  0.4101
13703TIP3    H262601   4.973   3.701   2.074 -0.8086  1.3084 -1.0909
13704TIP3   OH262602   4.249   0.455  12.797 -0.1493  0.3196 -0.0292
13704TIP3    H162603   4.225   0.496  12.714 -0.4048  0.3336  0.0523
13704TIP3    H262604   4.168   0.453  12.848  0.1240  0.8019  0.4342
13705TIP3   OH262605   2.410   2.187  11.668 -0.1975  0.2895 -0.3414
13705TIP3    H162606   2.434   2.248  11.598  0.1633  0.1901 -0.3053
13705TIP3    H262607   2.408   2.101  11.626  2.8462 -0.2105  0.3278
13706TIP3   OH262608   5.708   3.465   4.026 -0.4739 -0.3119  0.0517
13706TIP3    H162609   5.672   3.390   3.980 -0.6398 -0.0469 -0.2512
13706TIP3    H262610   5.789   3.485   3.979 -0.0136 -0.7864  0.6125
13707TIP3   OH262611   5.793   4.671   2.592 -0.2778  0.6171 -0.6884
13707TIP3    H162612   5.725   4.738   2.588  0.2679  1.1690 -1.0128
13707TIP3    H262613   5.760   4.600   2.537  0.1685  1.6191 -2.3342
13708TIP3   OH262614   2.737   4.406  15.299  0.1412 -0.2350 -0.1827
13708TIP3    H162615   2.723   4.402  15.204 -1.6037 -0.7482  0.0571
13708TIP3    H262616   2.711   4.495  15.323  2.0320  0.3954 -0.3627
13709TIP3   OH262617   0.002   4.050  16.150  0.3036  0.3260  0.1864
13709TIP3    H162618   0.004   3.984  16.219  0.8923 -2.4995 -2.2962
13709TIP3    H262619   0.092   4.053  16.118 -0.2610  0.2294 -1.5172
13710TIP3   OH262620   1.615   3.030  14.252  0.3988  0.2435 -0.0126
13710TIP3    H162621   1.576   3.087  14.186 -1.3640 -0.0205  0.7556
13710TIP3    H262622   1.592   2.941  14.224 -0.1064  0.1144  0.7860
13711TIP3   OH262623   2.923   2.207  15.831 -0.1821 -0.6807  0.3890
13711TIP3    H162624   2.891   2.244  15.749  1.4296  1.4294  0.6142
13711TIP3    H262625   2.866   2.244  15.899 -0.1111 -0.6125  0.4113
13712TIP3   OH262626   1.378   5.632   4.404 -0.1519 -0.1182  0.1224
13712TIP3    H162627   1.312   5.611   4.338 -0.2887 -0.5381  0.3939
13712TIP3    H262628   1.328   5.654   4.482 -0.0173  1.1859 -0.1338
13713TIP3   OH262629   3.595   0.552   3.159 -0.5909  0.1882  0.7060
13713TIP3    H162630   3.518   0.516   3.204 -0.4042 -1.8883 -0.4644
13713TIP3    H262631   3.619   0.483   3.096  0.7145  1.8580 -0.7062
13714TIP3   OH262632   6.569   1.780   0.916 -0.0926  0.4141  0.1821
13714TIP3    H162633   6.579   1.853   0.977  1.0066  0.3391  0.1126
13714TIP3    H262634   6.655   1.738   0.915  0.0530  0.6814 -1.7390
13715TIP3   OH262635   1.500   4.360   3.129  0.2338  0.8824  0.5490
13715TIP3    H162636   1.448   4.290   3.168  0.6665  0.4677  0.3950
13715TIP3    H262637   1.589   4.342   3.159  0.3682  1.2977  0.4028
13716TIP3   OH262638   5.239   1.589   6.154  0.2777  0.0505  0.5900
13716TIP3    H162639   5.199   1.547   6.230  0.2791 -1.1986 -0.0689
13716TIP3    H262640   5.309   1.643   6.190 -0.7911  0.8052  1.6030
13717TIP3   OH262641   4.141   1.483   1.903  0.5085  0.3334 -0.3390
13717TIP3    H162642   4.141   1.421   1.975 -1.1652  0.1423 -0.4624
13717TIP3    H262643   4.084   1.443   1.837  1.5904  0.7349 -1.5731
13718TIP3   OH262644   2.184   5.357  13.552  0.4871  0.3200 -0.4070
13718TIP3    H162645   2.240   5.406  13.491 -0.6071 -1.0868 -2.6758
13718TIP3    H262646   2.223   5.270  13.556  0.9339  0.5651  1.5370
13719TIP3   OH262647   3.463   5.592  14.563 -0.3087  0.1647  0.5961
13719TIP3    H162648   3.527   5.598  14.492  0.6175  1.5406  1.5139
13719TIP3    H262649   3.422   5.506  14.551  1.9374 -0.9138  0.1947
13720TIP3   OH262650   5.027   4.431   4.986  0.7579  0.1258  0.2665
13720TIP3    H162651   5.119   4.425   4.961  0.5567 -0.2575 -0.4022
13720TIP3    H262652   5.018   4.518   5.024  0.7753  1.3113 -2.2872
13721TIP3   OH262653   1.062   1.961   0.574  0.6655 -0.1231  0.3993
13721TIP3    H162654   1.111   2.004   0.504  1.3278 -1.8725 -0.2527
13721TIP3    H262655   1.128   1.944   0.642  0.3082  0.2696  0.8582
13722TIP3   OH262656   6.028   4.761   1.931 -0.3110  0.0730  0.2051
13722TIP3    H162657   5.964   4.830   1.914 -0.7360 -0.2529  0.4320
13722TIP3    H262658   5.975   4.687   1.963  0.4062  0.8051  3.4917
13723TIP3   OH262659   0.416   4.855  11.846 -0.1027 -0.7731 -0.0304
13723TIP3    H162660   0.479   4.786  11.823  1.9852  1.2817 -0.9741
13723TIP3    H262661   0.397   4.898  11.763 -1.7979 -0.5411  0.4588
13724TIP3   OH262662   6.234   4.281  11.355  0.7142  0.2132  0.3361
13724TIP3    H162663   6.218   4.366  11.395  0.7803 -0.7511  2.5874
13724TIP3    H262664   6.257   4.300  11.265 -0.6389  2.4768  0.3927
13725TIP3   OH262665   2.256   5.058   3.759  0.2626  0.2701 -0.4041
13725TIP3    H162666   2.169   5.057   3.718  0.8575  0.2661 -1.7020
13725TIP3    H262667   2.308   4.996   3.708  0.8201 -0.3511  0.8752
13726TIP3   OH262668   3.277   3.496  13.397 -0.5468 -0.3272  0.0843
13726TIP3    H162669   3.346   3.472  13.459 -2.2850 -3.6856  0.9423
13726TIP3    H262670   3.212   3.542  13.449 -0.7176 -0.6585  0.1702
13727TIP3   OH262671   6.606   5.109  16.544 -0.0667  0.0970  0.5642
13727TIP3    H162672   6.623   5.106  16.638  1.6748  0.4367  0.2976
13727TIP3    H262673   6.690   5.135  16.505 -0.9394  0.6875 -1.0285
13728TIP3   OH262674   3.735   1.078  13.141 -0.3310  0.0642 -0.1278
13728TIP3    H162675   3.688   1.156  13.111 -0.4082 -0.8660 -2.6325
13728TIP3    H262676   3.827   1.099  13.129 -0.3411 -0.1228 -0.5416
13729TIP3   OH262677   5.100   4.178   4.204  0.4073  0.0086 -0.0853
13729TIP3    H162678   5.121   4.131   4.124 -1.2595  0.2609 -0.7312
13729TIP3    H262679   5.138   4.126   4.274 -1.1982 -2.2534 -0.7809
13730TIP3   OH262680   2.964   3.819   5.609 -0.0462 -0.0977 -0.0271
13730TIP3    H162681   2.969   3.838   5.515  1.3082 -1.3546 -0.2378
13730TIP3    H262682   2.899   3.881   5.642 -0.7203  0.2127 -1.8257
13731TIP3   OH262683   0.582   4.108  17.024  0.0742  0.0274  0.1639
13731TIP3    H162684   0.557   4.199  17.036 -0.6437  0.0331 -1.1514
13731TIP3    H262685   0.629   4.085  17.104 -0.3150  1.3417  0.7985
13732TIP3   OH262686   4.563   3.304  15.507  0.4870 -0.3194  0.1852
13732TIP3    H162687   4.617   3.342  15.438  0.2433  0.2497  0.3009
13732TIP3    H262688   4.475   3.337  15.491  0.2300 -0.9719  0.1946
13733TIP3   OH262689   2.295   2.402   3.127  0.2010  0.1139  0.4182
13733TIP3    H162690   2.357   2.472   3.107  1.0712 -0.5633  0.7053
13733TIP3    H262691   2.315   2.377   3.217 -0.1405 -0.4787  0.3331
13734TIP3   OH262692   6.490   6.515   2.184 -0.2069  0.4530 -0.0829
13734TIP3    H162693   6.407   6.561   2.192 -0.7525 -0.0324 -2.2865
13734TIP3    H262694   6.535   6.560   2.112  1.1635  0.2967  0.6525
13735TIP3   OH262695   4.175   6.492   5.323 -0.7575 -0.4227  0.4236
13735TIP3    H162696   4.206   6.404   5.344 -0.4028  0.0346  1.8701
13735TIP3    H262697   4.249   6.532   5.277  0.2383  0.1024  2.3968
13736TIP3   OH262698   6.682   0.480   1.033  0.2763  0.1080  0.3091
13736TIP3    H162699   6.667   0.574   1.021  2.0668  0.1344 -2.6744
13736TIP3    H262700   6.644   0.439   0.955  3.3987 -1.1066 -0.7378
13737TIP3   OH262701   4.675   1.450   1.068 -0.5948 -0.0051 -0.8015
13737TIP3    H162702   4.721   1.367   1.068 -0.1868  0.1984 -2.1892
13737TIP3    H262703   4.632   1.454   1.154 -2.1550 -2.4840 -1.3719
13738TIP3   OH262704   2.904   6.724  15.702 -0.0317 -0.3895  0.3460
13738TIP3    H162705   2.903   6.694  15.793  1.6844  0.3671  0.6486
13738TIP3    H262706   2.959   6.661  15.656  1.5063  0.8125  0.4667
13739TIP3   OH262707   0.486   5.365  16.772  0.2399 -0.7002  0.3634
13739TIP3    H162708   0.564   5.382  16.825 -0.3959 -0.5569  1.2605
13739TIP3    H262709   0.521   5.329  16.690  1.4026  1.4355 -0.1427
13740TIP3   OH262710   3.566   6.128   5.386  0.5971 -0.2605 -0.3407
13740TIP3    H162711   3.534   6.039   5.370 -3.5450  1.1604 -1.3896
13740TIP3    H262712   3.534   6.149   5.474  0.5190  0.5454 -0.5560
13741TIP3   OH262713   1.147   2.312  12.911  0.2153 -0.9004  0.1209
13741TIP3    H162714   1.132   2.224  12.947  1.6296 -0.8555  0.8695
13741TIP3    H262715   1.242   2.319  12.902  0.0513  0.0935 -1.1628
13742TIP3   OH262716   3.312   0.905   4.151 -1.0641  0.8152 -0.0864
13742TIP3    H162717   3.323   0.984   4.099  0.2688  0.4332 -0.4438
13742TIP3    H262718   3.276   0.840   4.091 -0.5824  0.6901 -0.2444
13743TIP3   OH262719   2.580   6.799   3.251 -0.5186  0.3672  0.2979
13743TIP3    H162720   2.533   6.742   3.191 -0.0076 -1.4915  1.5648
13743TIP3    H262721   2.535   6.788   3.335 -0.4937  1.9782  0.5447
13744TIP3   OH262722   2.650   1.115  11.310 -0.5049 -0.2879 -0.0415
13744TIP3    H162723   2.697   1.161  11.241  0.5092 -1.6838 -0.3153
13744TIP3    H262724   2.718   1.089  11.372 -1.1555 -0.7727  0.4837
13745TIP3   OH262725   3.453   0.731   1.723 -0.0878 -0.0844  0.1739
13745TIP3    H162726   3.379   0.765   1.774 -0.4014  0.0219 -0.3533
13745TIP3    H262727   3.426   0.739   1.632  1.0835  1.2011 -0.1023
13746TIP3   OH262728   3.459   0.995  15.106  0.1276 -0.4318 -0.1878
13746TIP3    H162729   3.377   0.948  15.123 -0.9555  0.9670 -1.3319
13746TIP3    H262730   3.432   1.078  15.067  2.0950  0.1610 -0.4097
13747TIP3   OH262731   0.344   0.425   5.015 -0.3497 -0.0631  0.1962
13747TIP3    H162732   0.256   0.407   4.981 -0.5011 -1.6791  1.3106
13747TIP3    H262733   0.387   0.340   5.016  0.9296  0.5659  0.4846
13748TIP3   OH262734   4.044   2.828   3.711  0.8124 -0.6921  0.0267
13748TIP3    H162735   3.952   2.804   3.724  0.6152 -0.7001 -1.2683
13748TIP3    H262736   4.071   2.865   3.796 -0.9979  1.2210 -0.1478
13749TIP3   OH262737   0.165   2.846   3.990  0.3394  0.1779 -0.0357
13749TIP3    H162738   0.221   2.897   3.932 -0.1709  1.6381  0.6806
13749TIP3    H262739   0.156   2.901   4.068  1.3144 -1.8647  1.6055
13750TIP3   OH262740   2.469   5.367   0.332 -0.3737 -0.0157  0.2971
13750TIP3    H162741   2.509   5.453   0.334  0.1860 -0.2924  1.3071
13750TIP3    H262742   2.514   5.317   0.400 -0.6415 -1.1287 -0.3158
13751TIP3   OH262743   5.177   1.670  17.254  0.8720  0.5340  0.6069
13751TIP3    H162744   5.176   1.575  17.268 -0.8638  0.4878  0.4820
13751TIP3    H262745   5.267   1.690  17.231  1.0961 -1.2395 -0.2901
13752TIP3   OH262746   0.558   0.268   5.615 -0.2132 -0.3081  0.2082
13752TIP3    H162747   0.473   0.223   5.616 -0.6354  0.3243 -1.6115
13752TIP3    H262748   0.604   0.235   5.691 -0.8569 -3.0889 -0.4961
13753TIP3   OH262749   4.400   3.189  16.300  0.0841 -0.0116 -0.4314
13753TIP3    H162750   4.306   3.168  16.295 -0.1103  0.2896  1.2917
13753TIP3    H262751   4.416   3.244  16.224 -1.6612  1.6927  0.3336
13754TIP3   OH262752   0.709   0.174   2.329  0.0264 -0.0322 -0.2096
13754TIP3    H162753   0.645   0.141   2.392  1.2511  0.5227  1.3965
13754TIP3    H262754   0.672   0.152   2.244 -3.1176  1.6636  0.5394
13755TIP3   OH262755   0.392   5.462  17.126 -0.2211  0.0012  0.1215
13755TIP3    H162756   0.298   5.448  17.131  0.0763 -2.2621  0.4653
13755TIP3    H262757   0.425   5.435  17.211  0.8473 -0.4303 -0.4099
13756TIP3   OH262758   4.760   6.681  16.940  0.2659  0.1995 -0.1492
13756TIP3    H162759   4.665   6.684  16.930  0.2999  3.1963 -0.3571
13756TIP3    H262760   4.792   6.642  16.859 -0.7446 -1.0021 -0.0063
13757TIP3   OH262761   1.349   4.497   2.251  0.0802 -0.2342 -0.1795
13757TIP3    H162762   1.344   4.402   2.246 -0.8066 -0.1982 -0.0615
13757TIP3    H262763   1.302   4.528   2.174 -1.6049  0.1241  0.9473
13758TIP3   OH262764   0.725   6.177  16.550  0.1341 -0.3191 -0.0199
13758TIP3    H162765   0.755   6.240  16.615 -1.1192 -0.0942  0.3627
13758TIP3    H262766   0.652   6.221  16.506  1.1618 -0.3052 -1.8563
13759TIP3   OH262767   6.556   6.628   2.817 -0.3796 -0.1518 -0.3453
13759TIP3    H162768   6.611   6.686   2.764 -0.4461 -1.1077 -1.5078
13759TIP3    H262769   6.584   6.643   2.907  2.5038 -1.2958 -0.9470
13760TIP3   OH262770   4.895   0.087   5.030 -0.4345 -0.2178 -0.1095
13760TIP3    H162771   4.842   0.123   4.959  0.8330  0.8145 -0.5618
13760TIP3    H262772   4.894  -0.008   5.016 -1.2648 -0.1227 -0.7290
13761TIP3   OH262773   0.723   0.277  12.847  0.4011 -0.1487  0.2942
13761TIP3    H162774   0.738   0.367  12.818 -1.5238 -0.2513 -1.1793
13761TIP3    H262775   0.808   0.234  12.835  1.3331  1.4228  0.9503
13762TIP3   OH262776   4.018   1.315  11.091  0.1024 -0.3943 -0.0160
13762TIP3    H162777   4.024   1.262  11.012 -1.8187 -0.2741 -0.2937
13762TIP3    H262778   4.070   1.267  11.156 -0.2311 -1.7538 -0.7085
13763TIP3   OH262779   2.046   0.996  11.260 -0.2013 -0.6227 -0.0722
13763TIP3    H162780   1.953   0.987  11.239 -0.3026 -0.2935  0.2116
13763TIP3    H262781   2.090   0.930  11.207 -0.3228  0.8837 -2.1612
13764TIP3   OH262782   3.686   6.569  12.412  0.6745 -0.0977  0.2239
13764TIP3    H162783   3.651   6.639  12.357 -0.8356 -0.6156  0.4734
13764TIP3    H262784   3.744   6.614  12.473  1.5679  0.6140 -1.1032
13765TIP3   OH262785   1.075   2.663   5.165  0.5172 -0.3082  0.1042
13765TIP3    H162786   1.161   2.680   5.203  1.0327  0.6808 -1.4186
13765TIP3    H262787   1.093   2.628   5.078 -0.6185  0.7601 -0.5896
13766TIP3   OH262788   1.153   2.629   0.831  0.0845  0.0310 -0.1654
13766TIP3    H162789   1.195   2.584   0.758 -1.8876  0.5496 -1.7101
13766TIP3    H262790   1.201   2.712   0.840 -0.0637  0.2615 -1.3504
13767TIP3   OH262791   4.494   6.623  16.945  0.2465 -0.2800 -0.0948
13767TIP3    H162792   4.410   6.605  16.902  0.2087  0.0032 -0.1378
13767TIP3    H262793   4.487   6.579  17.030  0.5991 -1.4624 -0.6564
13768TIP3   OH262794   1.587   3.458  11.666  0.0603 -0.8250 -0.1660
13768TIP3    H162795   1.541   3.397  11.723 -1.7242  0.3218 -0.3161
13768TIP3    H262796   1.632   3.518  11.725  0.0852 -1.0105  0.0028
13769TIP3   OH262797   1.303   4.209  15.852  0.4204  0.0894 -0.2269
13769TIP3    H162798   1.224   4.180  15.898 -0.4050  2.0491 -0.3023
13769TIP3    H262799   1.277   4.210  15.759  0.2942  1.3866 -0.1876
13770TIP3   OH262800   6.498   1.318   1.032  0.2119 -0.3208 -0.2554
13770TIP3    H162801   6.448   1.328   1.114  1.7031 -1.0577  0.7873
13770TIP3    H262802   6.494   1.225   1.013  1.4457 -0.4432  0.0244
13771TIP3   OH262803   5.148   5.019   2.344  0.1236  0.1500  0.6227
13771TIP3    H162804   5.057   5.021   2.374 -0.0787  1.0047 -0.0113
13771TIP3    H262805   5.200   5.012   2.425 -0.4429  1.5496  1.1321
13772TIP3   OH262806   1.846   2.917   1.542  0.0176 -0.2736  0.2819
13772TIP3    H162807   1.869   2.932   1.634  1.2320  2.5638 -0.3744
13772TIP3    H262808   1.765   2.966   1.529 -1.7195 -2.8896  0.3758
13773TIP3   OH262809   4.847   5.420   5.331  0.8267 -0.1062 -0.2606
13773TIP3    H162810   4.804   5.476   5.396 -3.6750 -2.5599 -0.7589
13773TIP3    H262811   4.835   5.467   5.248 -1.2880 -0.8865 -0.4295
13774TIP3   OH262812   6.615   3.449  14.918 -0.4291 -0.1120  0.2596
13774TIP3    H162813   6.530   3.407  14.929 -0.1017 -1.1950 -1.0820
13774TIP3    H262814   6.628   3.499  14.998 -3.3313  1.9156 -0.4070
13775TIP3   OH262815   2.760   1.583   4.974  0.1547  0.2605 -0.1098
13775TIP3    H162816   2.731   1.650   5.036 -3.1306 -0.3194 -0.8176
13775TIP3    H262817   2.758   1.626   4.889  0.3785 -0.1076 -0.3065
13776TIP3   OH262818   3.508   2.377   3.271  0.2028 -1.2462 -0.5542
13776TIP3    H162819   3.537   2.290   3.243 -0.9486 -1.2076 -1.9758
13776TIP3    H262820   3.540   2.436   3.203 -0.1900 -0.7351 -0.2997
13777TIP3   OH262821   0.248   2.986  16.650  0.4346  0.1257 -0.1271
13777TIP3    H162822   0.263   2.954  16.738 -2.2650 -1.9317 -0.2954
13777TIP3    H262823   0.317   2.946  16.597  0.7977 -0.3467  0.6990
13778TIP3   OH262824   5.050   2.019   3.276  0.2645 -0.2639  0.6419
13778TIP3    H162825   5.062   1.985   3.365  0.3021 -0.4865  0.5498
13778TIP3    H262826   5.138   2.017   3.238  0.2260 -0.2884  0.5550
13779TIP3   OH262827   2.657   4.068  15.902  0.3429  0.1248 -0.4588
13779TIP3    H162828   2.619   4.083  15.815  2.3725 -0.5135 -1.5308
13779TIP3    H262829   2.743   4.030  15.884  0.4761 -0.8594  1.8684
13780TIP3   OH262830   2.339   1.854   5.176 -0.5997  0.5865  0.4618
13780TIP3    H162831   2.375   1.815   5.256  0.1947  0.6166  0.1330
13780TIP3    H262832   2.293   1.932   5.207 -3.0649 -1.0767  1.2366
13781TIP3   OH262833   3.499   3.446  13.868  0.5335 -0.3484 -0.0654
13781TIP3    H162834   3.488   3.449  13.773  0.5067  0.3290 -0.0432
13781TIP3    H262835   3.593   3.437  13.882  0.6218  0.4007 -0.1458
13782TIP3   OH262836   5.404   6.487  15.361  0.1588 -0.1773  0.3126
13782TIP3    H162837   5.392   6.581  15.377  1.4451  0.2325 -0.9451
13782TIP3    H262838   5.368   6.472  15.274 -0.4038 -0.9403  0.6665
13783TIP3   OH262839   1.415   3.874  17.014  0.8675  0.1165 -0.5865
13783TIP3    H162840   1.354   3.801  17.000  1.8133 -0.7162 -0.5030
13783TIP3    H262841   1.401   3.932  16.940  0.9152 -0.7506 -1.2897
13784TIP3   OH262842   6.274   4.288  16.831 -0.6710  0.2414 -0.3350
13784TIP3    H162843   6.269   4.192  16.831  0.8763  0.1171  0.5243
13784TIP3    H262844   6.260   4.313  16.740 -3.7618 -0.5801 -0.1910
13785TIP3   OH262845   2.109   3.968  11.051 -0.3240 -0.5745 -0.0063
13785TIP3    H162846   2.045   4.032  11.022 -0.3377 -0.4411  0.3076
13785TIP3    H262847   2.118   3.907  10.978  0.0785  0.0843 -0.5195
13786TIP3   OH262848   0.218   2.691   4.273 -0.4687 -0.1177 -0.3595
13786TIP3    H162849   0.259   2.733   4.348 -0.4447  0.5756 -0.7572
13786TIP3    H262850   0.267   2.722   4.197 -1.1482  0.0077 -0.7614
13787TIP3   OH262851   5.606   2.035   6.284 -0.8965 -0.2425  0.3619
13787TIP3    H162852   5.679   1.974   6.281 -0.8803 -0.3549  2.0820
13787TIP3    H262853   5.575   2.039   6.194  0.6284 -0.9063 -0.2359
13788TIP3   OH262854   6.343   1.615   1.895 -0.3000  0.4419  0.3580
13788TIP3    H162855   6.345   1.574   1.982 -0.7274  2.9563  1.6711
13788TIP3    H262856   6.288   1.693   1.907  0.7429  1.6044 -1.8256
13789TIP3   OH262857   2.197   5.236   0.996 -0.3086  0.2678 -0.6166
13789TIP3    H162858   2.143   5.237   0.917 -1.0157  1.1675 -0.1374
13789TIP3    H262859   2.172   5.156   1.041 -0.7862  0.3497 -0.7252
13790TIP3   OH262860   5.403   2.865  16.149  0.2213  0.0754 -0.2316
13790TIP3    H162861   5.453   2.850  16.230 -0.5364  0.3232  0.2868
13790TIP3    H262862   5.313   2.876  16.179 -0.0071  0.5257 -1.0888
13791TIP3   OH262863   1.577   4.822  14.362 -0.4342  0.1645 -0.0574
13791TIP3    H162864   1.643   4.793  14.424 -0.8667 -0.8577 -0.0587
13791TIP3    H262865   1.493   4.803  14.404 -0.7414  1.0034 -0.2560
13792TIP3   OH262866   1.162   0.286   6.131 -0.2248  0.0967  0.2559
13792TIP3    H162867   1.132   0.377   6.127  0.4986  0.4492  1.9086
13792TIP3    H262868   1.083   0.235   6.147 -0.5385  0.5115  0.0381
13793TIP3   OH262869   4.093   1.078  11.192 -0.3782  0.4955 -0.4697
13793TIP3    H162870   4.002   1.087  11.221 -0.0337 -0.4753  0.9858
13793TIP3    H262871   4.091   1.005  11.130 -0.4455 -0.1725  0.3066
13794TIP3   OH262872   2.158   6.014  13.584  0.5195  0.1981  0.1157
13794TIP3    H162873   2.167   5.989  13.492  1.6584 -1.1327  0.5468
13794TIP3    H262874   2.076   5.972  13.613 -1.1094  2.4999 -0.8027
13795TIP3   OH262875   3.927   4.984  13.688 -0.0150 -0.1275 -0.1676
13795TIP3    H162876   3.867   5.028  13.748  0.8023 -0.1304  0.6877
13795TIP3    H262877   3.910   5.023  13.603  0.2828  1.4400  0.4596
13796TIP3   OH262878   5.309   2.073  14.325  0.5677 -0.1767 -0.2783
13796TIP3    H162879   5.237   2.010  14.335  0.3809 -0.0043 -0.5137
13796TIP3    H262880   5.388   2.021  14.337  0.6170 -1.3363 -4.3614
13797TIP3   OH262881   1.170   2.389   3.720  0.4332  0.0239 -0.2880
13797TIP3    H162882   1.231   2.315   3.719 -0.9999 -1.4096  2.8627
13797TIP3    H262883   1.121   2.378   3.802 -3.1274  1.8243 -1.9374
13798TIP3   OH262884   2.741   5.683  15.057  0.6527  0.9580 -0.0828
13798TIP3    H162885   2.709   5.771  15.035 -1.5419  0.5931  1.3103
13798TIP3    H262886   2.684   5.623  15.009 -0.7203  0.2857  2.1988
13799TIP3   OH262887   5.768   2.434  13.864 -0.4818  0.2591  0.6369
13799TIP3    H162888   5.803   2.383  13.791  2.9418  0.9250  1.6213
13799TIP3    H262889   5.755   2.370  13.934 -0.0214  0.1748  0.6465
13800TIP3   OH262890   2.143   2.205   2.370  0.0384  0.1038 -0.1594
13800TIP3    H162891   2.077   2.136   2.363  0.8152 -0.6546 -0.2337
13800TIP3    H262892   2.118   2.268   2.302 -1.1907  0.3569  0.4976
13801TIP3   OH262893   4.859   2.953   4.543 -0.1497 -0.3132 -0.5259
13801TIP3    H162894   4.775   2.990   4.570 -0.7820 -0.9975 -1.4996
13801TIP3    H262895   4.842   2.860   4.530  1.1395 -0.7669  0.7447
13802TIP3   OH262896   1.839   4.274  15.410  0.0488  0.3380 -0.6079
13802TIP3    H162897   1.814   4.233  15.328 -1.5986  0.0013  0.0194
13802TIP3    H262898   1.894   4.348  15.384 -1.4639  0.9923 -2.1048
13803TIP3   OH262899   2.508   2.622   5.629 -0.1199  0.6533 -0.7213
13803TIP3    H162900   2.444   2.690   5.609 -1.1562 -0.8887 -3.0643
13803TIP3    H262901   2.557   2.611   5.548  3.8893  2.3886  1.2214
13804TIP3   OH262902   1.052   2.080  15.761  0.1791  0.2572 -0.1408
13804TIP3    H162903   1.000   2.140  15.814  1.0278  0.6334  0.2905
13804TIP3    H262904   1.140   2.119  15.761  0.9939 -1.4741  0.9532
13805TIP3   OH262905   6.505   4.020   4.561  0.2058  0.1507  1.0382
13805TIP3    H162906   6.541   4.062   4.639 -1.4013 -0.0044  1.9025
13805TIP3    H262907   6.538   4.073   4.488  2.7571 -0.4444  1.6760
13806TIP3   OH262908   3.994   2.979  15.336 -0.1503 -0.0914 -0.5527
13806TIP3    H162909   4.074   3.031  15.343  0.3319 -0.9655  0.9209
13806TIP3    H262910   4.005   2.928  15.256  0.7727 -0.1913 -0.3682
13807TIP3   OH262911   5.255   5.054  13.986 -0.1101  0.2537  0.1802
13807TIP3    H162912   5.216   4.978  14.029 -1.3858 -0.7417 -2.5572
13807TIP3    H262913   5.181   5.108  13.959  0.5068  0.1100 -1.9782
13808TIP3   OH262914   6.504   6.418  10.741 -0.0062  0.0738  0.3959
13808TIP3    H162915   6.534   6.389  10.827 -1.3456 -0.4071  0.7356
13808TIP3    H262916   6.548   6.359  10.679 -0.3486 -0.7182  0.8826
13809TIP3   OH262917   0.727   6.130   0.580 -0.0459  0.0431  0.2267
13809TIP3    H162918   0.744   6.168   0.494 -2.3177 -1.0596 -0.7711
13809TIP3    H262919   0.800   6.161   0.634  0.9564  1.5127 -1.8315
13810TIP3   OH262920   1.597   2.113   5.144  0.0433  0.1828 -0.3513
13810TIP3    H162921   1.549   2.036   5.174  0.0613  0.0101 -0.7571
13810TIP3    H262922   1.667   2.077   5.089  1.5053  0.3197  1.3299
13811TIP3   OH262923   2.660   1.155   4.724 -0.1372 -0.0313 -0.3987
13811TIP3    H162924   2.753   1.168   4.743 -0.1895 -2.6323  2.4574
13811TIP3    H262925   2.654   1.065   4.693 -1.6727  0.1951 -0.8321
13812TIP3   OH262926   6.343   3.966  14.405  0.4730  0.7975 -0.3028
13812TIP3    H162927   6.438   3.968  14.412  0.4627  1.8981 -0.3803
13812TIP3    H262928   6.325   3.892  14.347  1.4373  2.0815 -2.3527
13813TIP3   OH262929   4.788   0.661   2.146 -0.0911  0.3225  0.1024
13813TIP3    H162930   4.714   0.710   2.111 -0.0300  0.8127  0.6378
13813TIP3    H262931   4.863   0.691   2.094 -0.2700 -0.2253 -0.4863
13814TIP3   OH262932   6.537   1.812   1.422  0.2092  0.4062 -0.0048
13814TIP3    H162933   6.533   1.728   1.469 -2.0595  0.5972  0.2360
13814TIP3    H262934   6.460   1.811   1.366  1.1787  1.5587 -1.4176
13815TIP3   OH262935   5.779   0.512   2.004 -0.0456  0.1142  0.1201
13815TIP3    H162936   5.824   0.428   2.008 -0.7628 -0.2594  0.4953
13815TIP3    H262937   5.689   0.490   1.981 -0.6609  0.6101  1.8984
13816TIP3   OH262938   6.042   6.223  13.124 -0.3151  0.2005  0.1137
13816TIP3    H162939   6.133   6.198  13.140 -0.3069 -0.2966 -0.6449
13816TIP3    H262940   5.997   6.140  13.110 -0.3445  0.5480 -2.2263
13817TIP3   OH262941   2.777   6.790   2.667  0.0271  0.2747 -0.3893
13817TIP3    H162942   2.828   6.860   2.627 -2.1609  1.9548 -0.4612
13817TIP3    H262943   2.777   6.811   2.761  3.8068 -2.7617  0.5548
13818TIP3   OH262944   2.788   5.440   5.396  0.3593  0.2160 -0.3305
13818TIP3    H162945   2.852   5.380   5.359  0.0789 -0.3513  0.0885
13818TIP3    H262946   2.833   5.525   5.398  0.5600  0.1606 -1.4642
13819TIP3   OH262947   4.768   3.806   5.472  0.7057  0.0857 -0.3368
13819TIP3    H162948   4.688   3.860   5.474  0.9058  0.3762  0.4017
13819TIP3    H262949   4.832   3.860   5.426 -0.0074 -0.8839 -2.5876
13820TIP3   OH262950   0.760   2.677   0.146 -0.1607 -0.1158 -0.0348
13820TIP3    H162951   0.748   2.698   0.053  2.1635 -0.0482 -0.3815
13820TIP3    H262952   0.704   2.739   0.192  0.2781  1.3090 -1.3433
13821TIP3   OH262953   3.316   4.477  14.920 -0.1468  0.6543  0.3860
13821TIP3    H162954   3.397   4.426  14.927  0.9547  2.3402  0.4424
13821TIP3    H262955   3.248   4.419  14.956  1.2176 -0.3624  1.4494
13822TIP3   OH262956   0.367   6.557  16.488  0.1919  0.0914  0.0758
13822TIP3    H162957   0.461   6.541  16.480 -0.0082 -1.7148  0.8678
13822TIP3    H262958   0.359   6.652  16.502  1.9250  0.1687  0.6686
13823TIP3   OH262959   3.427   5.952   0.680  0.0882  0.3121 -0.0390
13823TIP3    H162960   3.359   5.998   0.630  0.5928  2.2831  0.9870
13823TIP3    H262961   3.502   5.949   0.621  0.1394  1.0854 -0.0221
13824TIP3   OH262962   4.213   4.096   4.227  0.4471 -0.2087 -0.2899
13824TIP3    H162963   4.239   4.050   4.148  1.1012 -0.3946  0.0295
13824TIP3    H262964   4.177   4.028   4.284 -0.3933 -0.0153 -0.5740
13825TIP3   OH262965   5.530   6.497   2.435  0.0994  0.1478 -0.1681
13825TIP3    H162966   5.548   6.434   2.365 -0.4806  1.3830 -1.4956
13825TIP3    H262967   5.434   6.497   2.442  0.1817 -0.6182  1.2895
13826TIP3   OH262968   1.160   0.845  11.661 -0.2877 -0.3401  0.0153
13826TIP3    H162969   1.231   0.859  11.599  0.9087 -2.5343  0.7928
13826TIP3    H262970   1.086   0.818  11.607  0.6124 -1.7885 -0.5533
13827TIP3   OH262971   5.711   4.920  16.997 -0.3096  0.1432 -0.7590
13827TIP3    H162972   5.672   4.925  16.910  1.3871  0.3271 -1.5449
13827TIP3    H262973   5.645   4.960  17.054 -1.5648 -0.2074 -1.8904
13828TIP3   OH262974   5.489   3.543  15.326 -0.0791 -0.5219 -0.0618
13828TIP3    H162975   5.441   3.461  15.316  1.9122 -1.6773 -0.4902
13828TIP3    H262976   5.470   3.592  15.246  2.3524 -2.5660 -2.0237
13829TIP3   OH262977   3.567   3.457   3.674  0.1019 -0.3661 -0.2023
13829TIP3    H162978   3.587   3.416   3.758  2.4116 -1.5139 -1.1975
13829TIP3    H262979   3.482   3.421   3.649  0.4497 -1.8522  0.6079
13830TIP3   OH262980   0.820   2.867  13.354 -0.5219 -0.1848  0.7118
13830TIP3    H162981   0.826   2.940  13.291 -0.7280 -0.1193  0.7636
13830TIP3    H262982   0.726   2.858  13.369 -0.4308  0.3714  1.6768
13831TIP3   OH262983   3.753   1.636   2.006 -0.1847  0.0309 -0.6181
13831TIP3    H162984   3.764   1.549   1.969 -0.1735 -0.1290 -0.2418
13831TIP3    H262985   3.837   1.679   1.991 -0.1721 -0.0410 -0.7551
13832TIP3   OH262986   1.650   6.578   0.908 -0.2537  0.3215  0.0750
13832TIP3    H162987   1.720   6.629   0.950 -0.6735 -0.2596  1.5265
13832TIP3    H262988   1.693   6.499   0.877 -0.2167  0.0548  0.7899
13833TIP3   OH262989   2.250   3.539  17.183  0.4948  0.3553  0.2308
13833TIP3    H162990   2.287   3.577  17.103 -0.4671  1.6737  0.3818
13833TIP3    H262991   2.171   3.493  17.154  0.4369  0.3781  0.3524
13834TIP3   OH262992   4.968   6.126  11.485  0.0542  0.2722 -0.4715
13834TIP3    H162993   4.876   6.111  11.464  0.0130 -0.0046 -0.0935
13834TIP3    H262994   4.975   6.221  11.493 -0.4178  0.2311  0.4846
13835TIP3   OH262995   4.002   4.507  13.125  0.4790  0.0563  0.3224
13835TIP3    H162996   4.021   4.480  13.036 -1.5548 -0.5667  0.0183
13835TIP3    H262997   4.084   4.496  13.172  1.7091  0.8427 -1.5493
13836TIP3   OH262998   6.243   2.850  11.425  0.0480  0.0886  0.0480
13836TIP3    H162999   6.244   2.763  11.384 -0.4505  0.8346 -1.6376
13836TIP3    H263000   6.252   2.911  11.352 -1.4892  1.5092  0.9741
13837TIP3   OH263001   0.788   4.219  14.101 -0.2270  0.6169  0.5244
13837TIP3    H163002   0.729   4.286  14.066 -1.1625  0.3516  1.5682
13837TIP3    H263003   0.731   4.154  14.142  0.6850 -0.6268 -0.0798
13838TIP3   OH263004   1.044   6.601  16.292 -0.9667  0.2214 -0.0017
13838TIP3    H163005   1.132   6.638  16.297 -1.7011  2.5392 -2.3359
13838TIP3    H263006   1.040   6.540  16.366  2.5403  0.0461  0.2025
13839TIP3   OH263007   3.344   4.744   0.436  0.0068 -0.3741 -0.4223
13839TIP3    H163008   3.379   4.805   0.371  0.0321  0.5597  0.4622
13839TIP3    H263009   3.264   4.785   0.467  1.1733  0.3732  1.8413
13840TIP3   OH263010   5.578   2.158  10.972  0.3066  0.2606  0.5677
13840TIP3    H163011   5.557   2.174  10.880 -0.8415 -1.1852  0.5575
13840TIP3    H263012   5.524   2.221  11.020 -0.3683 -0.1107  0.3105
13841TIP3   OH263013   0.431   1.263  15.842  0.7075 -0.1453  0.3757
13841TIP3    H163014   0.458   1.174  15.817 -2.2708 -1.2525  0.6972
13841TIP3    H263015   0.513   1.306  15.868  2.4749 -2.2819 -1.1854
13842TIP3   OH263016   2.278   6.197  15.728  0.1929  0.2277  0.2604
13842TIP3    H163017   2.313   6.267  15.783  0.9180 -1.2304  1.7596
13842TIP3    H263018   2.183   6.202  15.740  0.3150  0.2207  1.2846
13843TIP3   OH263019   1.655   5.477   2.290 -0.0704 -0.2210 -0.4814
13843TIP3    H163020   1.583   5.539   2.278 -0.5013 -0.4577  0.7751
13843TIP3    H263021   1.630   5.401   2.238  0.1762  0.4137 -1.5524
13844TIP3   OH263022   0.149   6.693  15.966 -0.0994 -0.1989  0.1534
13844TIP3    H163023   0.129   6.781  15.935 -0.9803 -0.2771  0.4726
13844TIP3    H263024   0.129   6.695  16.059 -0.9339 -0.9545  0.0097
13845TIP3   OH263025   3.953   1.089  14.360  0.2468 -0.1466  0.9388
13845TIP3    H163026   3.987   1.173  14.391 -1.1605  1.8691 -2.3653
13845TIP3    H263027   3.859   1.093  14.381  0.4222 -1.7792  2.2862
13846TIP3   OH263028   2.272   1.623  16.361 -0.1130  0.2535  0.6535
13846TIP3    H163029   2.265   1.535  16.398 -2.1261 -0.2478 -0.7963
13846TIP3    H263030   2.186   1.642  16.325  0.2471  2.8632  0.9265
13847TIP3   OH263031   5.115   5.529  13.381 -0.1596 -0.6216  0.3522
13847TIP3    H163032   5.042   5.587  13.402  0.5051  0.1991  0.4733
13847TIP3    H263033   5.146   5.499  13.466 -0.6886 -1.3967  0.2740
13848TIP3   OH263034   1.500   1.856  13.977 -0.2288 -0.0673  0.0158
13848TIP3    H163035   1.492   1.844  13.882 -0.8569 -0.6551  0.1290
13848TIP3    H263036   1.410   1.867  14.007 -0.2454 -1.8017  0.7619
13849TIP3   OH263037   6.558   5.774  16.488  0.1367  0.2624 -0.1193
13849TIP3    H163038   6.465   5.794  16.486  0.6290  2.8026 -0.0137
13849TIP3    H263039   6.587   5.800  16.576  1.0124 -0.2400 -0.2389
13850TIP3   OH263040   0.622   4.297   0.583  0.0155  0.3440  0.7703
13850TIP3    H163041   0.640   4.285   0.676  2.2962  0.4072  0.3944
13850TIP3    H263042   0.650   4.215   0.542  0.1882  0.7717  0.0107
13851TIP3   OH263043   5.607   4.573   3.385  0.2208  0.4674  0.8045
13851TIP3    H163044   5.550   4.650   3.383 -0.5201 -0.0808  0.4963
13851TIP3    H263045   5.634   4.561   3.294 -0.2560 -0.0681  0.7301
13852TIP3   OH263046   0.963   4.386   6.144 -0.3601 -0.0728  0.5223
13852TIP3    H163047   1.023   4.321   6.179 -0.1442 -0.3741 -0.3838
13852TIP3    H263048   0.913   4.340   6.077 -0.0815  0.7302 -0.2562
13853TIP3   OH263049   4.237   6.810  13.118  0.2368 -0.2720  0.4609
13853TIP3    H163050   4.173   6.874  13.088  0.2003 -0.9684 -1.0397
13853TIP3    H263051   4.315   6.861  13.138 -0.3549  0.4264  1.0328
13854TIP3   OH263052   6.659   4.146   4.734  0.7371 -0.2167 -0.3348
13854TIP3    H163053   6.745   4.127   4.696  0.4134  0.9861 -1.7399
13854TIP3    H263054   6.668   4.235   4.769 -0.2114  0.3148 -1.3970
13855TIP3   OH263055   0.020   1.034   2.048  0.7318  0.0218  0.0876
13855TIP3    H163056  -0.053   0.982   2.014  0.7558 -0.5739  0.9108
13855TIP3    H263057   0.015   1.022   2.143 -0.4969  3.1492  0.5378
13856TIP3   OH263058   6.412   4.931  12.480 -0.5905 -0.0999 -1.2103
13856TIP3    H163059   6.374   4.866  12.539  1.0224 -0.5697 -0.6472
13856TIP3    H263060   6.482   4.884  12.435  1.4906  1.5489  0.1636
13857TIP3   OH263061   5.702   6.316   3.081 -0.7109 -0.1294  0.5445
13857TIP3    H163062   5.797   6.302   3.081 -0.9776 -2.4432 -0.7835
13857TIP3    H263063   5.691   6.405   3.114  1.9359  0.2950  0.4950
13858TIP3   OH263064   0.096   0.009   0.907  0.0263  0.0672 -0.3121
13858TIP3    H163065   0.189  -0.004   0.888  0.1721 -0.3116  0.6073
13858TIP3    H263066   0.081   0.102   0.891  0.8242  0.3559  0.5454
13859TIP3   OH263067   2.818   4.202  16.133 -0.9000 -0.4402  0.2105
13859TIP3    H163068   2.769   4.253  16.069  1.6464 -0.9480 -2.3369
13859TIP3    H263069   2.872   4.266  16.178 -0.2689 -0.4574 -0.5129
13860TIP3   OH263070   0.842   3.031   0.082  0.0623  0.1698  0.9727
13860TIP3    H163071   0.798   3.079   0.012  0.7824 -0.4289  0.0832
13860TIP3    H263072   0.774   3.014   0.147 -1.2354 -1.3732 -0.6813
13861TIP3   OH263073   3.366   3.239  12.907 -0.0779 -0.1023  0.2736
13861TIP3    H163074   3.343   3.219  12.998  0.4633 -0.0529  0.4263
13861TIP3    H263075   3.337   3.330  12.895 -2.2725 -0.8286 -0.3319
13862TIP3   OH263076   5.583   6.188  14.621 -0.4849 -0.1192 -0.0274
13862TIP3    H163077   5.605   6.123  14.688  0.6869  0.4151  0.1226
13862TIP3    H263078   5.655   6.250  14.622 -1.3701  0.9645 -0.4738
13863TIP3   OH263079   1.997   1.677  16.323 -0.1991 -0.2496  0.1822
13863TIP3    H163080   1.930   1.630  16.274 -0.3115  0.1838 -0.0873
13863TIP3    H263081   1.978   1.769  16.307  0.1029 -0.1127  0.5880
13864TIP3   OH263082   0.307   6.206  16.359 -0.2134 -0.1205  0.6233
13864TIP3    H163083   0.235   6.150  16.330 -0.7684  1.0927 -0.4571
13864TIP3    H263084   0.288   6.223  16.451 -1.0876 -0.1695  0.4639
13865TIP3   OH263085   2.666   3.538  14.451  0.5096  0.1217 -0.4791
13865TIP3    H163086   2.619   3.621  14.464  1.8454  0.5633  2.3027
13865TIP3    H263087   2.700   3.544  14.361  0.8436  2.7641 -0.2689
13866TIP3   OH263088   0.739   1.189  14.478  0.4897 -0.6665 -0.3281
13866TIP3    H163089   0.795   1.199  14.401  0.7220 -2.1994 -0.3817
13866TIP3    H263090   0.788   1.231  14.549  0.2667  0.7661 -0.9831
13867TIP3   OH263091   2.505   2.586   1.756 -0.2106 -0.1964 -0.0444
13867TIP3    H163092   2.458   2.664   1.785 -0.4483 -0.8405  1.3804
13867TIP3    H263093   2.594   2.597   1.791 -0.3598 -0.7419  0.5313
13868TIP3   OH263094   3.678   0.877   5.358 -0.5674 -0.2361 -0.7815
13868TIP3    H163095   3.600   0.881   5.302 -1.3245 -0.3692  0.2409
13868TIP3    H263096   3.668   0.796   5.407  0.2106 -0.2414 -0.6292
13869TIP3   OH263097   3.174   1.350  12.037 -0.3321 -0.1992  0.3853
13869TIP3    H163098   3.242   1.287  12.062 -0.0021 -0.8701 -1.9395
13869TIP3    H263099   3.127   1.306  11.966 -0.7736  1.7689 -0.5852
13870TIP3   OH263100   5.493   2.515   5.811 -0.2476 -0.3759 -0.0695
13870TIP3    H163101   5.538   2.555   5.886 -0.9766 -0.8516  0.6360
13870TIP3    H263102   5.558   2.519   5.741  1.4512 -2.2055  1.2504
13871TIP3   OH263103   2.322   3.291   1.841 -0.6782 -0.5429  0.2630
13871TIP3    H163104   2.407   3.249   1.849 -0.1206  0.7398  1.3549
13871TIP3    H263105   2.285   3.255   1.760  1.1264 -0.6926 -0.5328
13872TIP3   OH263106   2.451   5.955  13.361 -0.5048 -0.1736  0.1673
13872TIP3    H163107   2.476   5.920  13.275  0.9555 -2.2780  1.3427
13872TIP3    H263108   2.388   5.891  13.395  0.8198 -0.7678  1.6299
13873TIP3   OH263109   6.299   4.821   4.302 -0.2729 -0.4236  0.0681
13873TIP3    H163110   6.343   4.896   4.342  2.0849 -0.7489 -1.6968
13873TIP3    H263111   6.351   4.801   4.224 -2.5016 -2.1061 -1.1228
13874TIP3   OH263112   5.183   6.070  16.984  0.3085 -0.4124  0.1499
13874TIP3    H163113   5.261   6.046  16.936  1.5811 -0.6566  2.2106
13874TIP3    H263114   5.122   6.102  16.918  1.4150 -2.0235 -1.7451
13875TIP3   OH263115   1.013   5.338   0.695  0.1911  0.2168  0.6126
13875TIP3    H163116   1.055   5.270   0.643  2.1574  1.7042  0.1456
13875TIP3    H263117   1.007   5.414   0.636 -1.8532  0.5467  1.1443
13876TIP3   OH263118   2.448   6.213   1.854  0.5228  0.2861  0.3272
13876TIP3    H163119   2.450   6.256   1.940  0.9633  1.0697 -0.0601
13876TIP3    H263120   2.503   6.135   1.865  1.0367  0.6785  0.6130
13877TIP3   OH263121   4.277   5.526   5.947 -0.4263  0.3910 -0.0655
13877TIP3    H163122   4.337   5.465   5.989  1.0351  0.4834 -1.8796
13877TIP3    H263123   4.272   5.600   6.008  1.8343  0.6554 -0.1137
13878TIP3   OH263124   4.638   2.991   2.731 -0.2011  0.1288  0.1952
13878TIP3    H163125   4.580   2.942   2.673 -0.5633  0.5037  0.2336
13878TIP3    H263126   4.720   2.999   2.682 -0.9220  1.6069 -0.8655
13879TIP3   OH263127   4.497   0.894  16.162 -0.1509 -0.1228 -0.0648
13879TIP3    H163128   4.553   0.911  16.086  1.3483 -0.7890  0.8633
13879TIP3    H263129   4.423   0.845  16.126  0.7674 -0.8429 -1.0357
13880TIP3   OH263130   2.426   5.437   3.053 -0.2058 -0.2090 -0.0571
13880TIP3    H163131   2.438   5.347   3.083 -1.1224  0.1557  1.5481
13880TIP3    H263132   2.452   5.491   3.128 -1.0956  0.8104 -0.4503
13881TIP3   OH263133   2.658   3.885  13.078  0.8207  0.0215 -0.0146
13881TIP3    H163134   2.579   3.888  13.023  0.2867  2.5416  0.7430
13881TIP3    H263135   2.648   3.804  13.128 -0.7187 -0.2970 -0.7435
13882TIP3   OH263136   0.199   3.307  15.083  0.0540 -0.2316 -0.3440
13882TIP3    H163137   0.155   3.291  14.999 -0.1471  0.4008 -0.3625
13882TIP3    H263138   0.167   3.393  15.111 -1.1514 -1.1319  1.1876
13883TIP3   OH263139   3.395   2.519  12.107 -0.5430  0.2165 -0.3095
13883TIP3    H163140   3.437   2.438  12.136 -0.1314  0.3175 -0.6249
13883TIP3    H263141   3.331   2.538  12.176  0.5416  0.5400  0.6278
13884TIP3   OH263142   1.096   4.515   5.710 -0.3405  0.4100  0.0145
13884TIP3    H163143   1.103   4.496   5.803 -0.9467  0.0813 -0.0068
13884TIP3    H263144   1.038   4.447   5.675  0.6727 -0.0676 -0.7844
13885TIP3   OH263145   1.238   6.203  11.292  0.3485  0.2152  0.8082
13885TIP3    H163146   1.301   6.131  11.282  0.5433  0.3637  0.9486
13885TIP3    H263147   1.179   6.194  11.217 -0.2458 -0.7017  1.3596
13886TIP3   OH263148   0.000   5.553  12.438  0.0710 -0.4036  0.0190
13886TIP3    H163149  -0.069   5.611  12.470  0.0764  0.0906 -0.8208
13886TIP3    H263150   0.059   5.611  12.389  0.9980 -0.8416  0.5769
13887TIP3   OH263151   2.320   5.561   0.598  0.4443 -0.6166 -0.2989
13887TIP3    H163152   2.277   5.627   0.651 -1.7975 -1.6211 -0.7485
13887TIP3    H263153   2.413   5.580   0.607  0.1212 -0.0544  3.0521
13888TIP3   OH263154   2.275   3.212  16.030  0.1752 -0.0371  0.0751
13888TIP3    H163155   2.305   3.196  16.119  0.4280  0.1990  0.0337
13888TIP3    H263156   2.266   3.307  16.024  1.8851  0.1266 -0.6881
13889TIP3   OH263157   5.217   0.939  15.375  0.2321  0.3399 -0.3247
13889TIP3    H163158   5.136   0.960  15.328  0.7048  0.1803 -1.2285
13889TIP3    H263159   5.257   0.870  15.323  0.5611 -0.1395  0.5588
13890TIP3   OH263160   4.661   2.089  14.153  0.0712  0.5572 -0.6248
13890TIP3    H163161   4.735   2.036  14.127  0.1517  1.3107 -2.0148
13890TIP3    H263162   4.585   2.044  14.117  0.0205  0.6937 -0.6906
13891TIP3   OH263163   4.249   5.831  16.402  0.4174 -0.3817 -0.3884
13891TIP3    H163164   4.183   5.901  16.400  0.5984 -0.1708  0.3915
13891TIP3    H263165   4.261   5.813  16.495  2.6181  0.7194 -0.3785
13892TIP3   OH263166   1.794   4.813   1.795 -0.4835  0.2507  0.3470
13892TIP3    H163167   1.874   4.846   1.755  0.0080  1.3046  2.0919
13892TIP3    H263168   1.822   4.737   1.846  0.2759  2.7313  4.0205
13893TIP3   OH263169   5.380   6.072  14.825 -0.1106  0.3540 -0.2102
13893TIP3    H163170   5.466   6.032  14.810 -0.2974  0.4948 -1.9105
13893TIP3    H263171   5.369   6.072  14.920  1.5618 -0.0988  0.0121
13894TIP3   OH263172   5.636   5.012   1.346 -0.1206  0.0403  1.0845
13894TIP3    H163173   5.656   5.068   1.271  1.4961  0.3052  1.6883
13894TIP3    H263174   5.599   5.072   1.412 -0.4524  0.0037  0.9354
13895TIP3   OH263175   1.652   4.662   1.199 -0.7242  0.6914  0.1237
13895TIP3    H163176   1.680   4.704   1.280  0.4043 -0.1835  0.2056
13895TIP3    H263177   1.682   4.572   1.207 -1.2154  0.4120 -0.9781
13896TIP3   OH263178   0.294   3.002   2.855 -0.0067 -0.0137  0.3492
13896TIP3    H163179   0.317   2.915   2.822 -0.5795 -0.7387  1.7834
13896TIP3    H263180   0.367   3.028   2.910 -1.0932 -0.9248  2.3215
13897TIP3   OH263181   6.766   0.845   5.498  0.5589  0.5327  0.0072
13897TIP3    H163182   6.744   0.914   5.561 -0.6198 -0.1178  0.3291
13897TIP3    H263183   6.686   0.830   5.449  0.6520 -0.9188  0.2442
13898TIP3   OH263184   4.591   3.058   3.907  0.1360 -0.4266  0.1775
13898TIP3    H163185   4.668   3.004   3.889 -0.2611 -0.4484 -1.6728
13898TIP3    H263186   4.522   3.022   3.852 -0.6171  0.8636  0.2199
13899TIP3   OH263187   0.087   5.028  14.157  0.4436 -0.7286  0.4615
13899TIP3    H163188   0.060   4.982  14.077  2.4886 -0.1503 -0.6594
13899TIP3    H263189   0.015   5.087  14.177  1.1361  1.5812 -2.9957
13900TIP3   OH263190   4.885   1.551   5.560 -0.1969 -0.2479  0.5025
13900TIP3    H163191   4.827   1.547   5.636  0.4478 -0.9170  0.9760
13900TIP3    H263192   4.947   1.621   5.580 -0.3862 -0.0304  0.3288
13901TIP3   OH263193   0.506   0.411   3.099 -0.7071 -0.3548 -0.0197
13901TIP3    H163194   0.541   0.482   3.153 -1.5911  0.1156 -0.0495
13901TIP3    H263195   0.551   0.332   3.130  0.9810  0.3247 -0.6008
13902TIP3   OH263196   0.217   3.642   1.238 -0.3050 -0.5983 -0.4948
13902TIP3    H163197   0.152   3.683   1.181  0.8087  1.4662 -0.3926
13902TIP3    H263198   0.166   3.610   1.313 -1.4211 -0.6743 -1.2620
13903TIP3   OH263199   2.967   4.426  10.378 -0.3517  0.1467  0.1512
13903TIP3    H163200   2.929   4.415  10.290 -0.8721 -1.4355  0.5514
13903TIP3    H263201   2.932   4.510  10.409 -0.4595  0.5437 -0.9905
13904TIP3   OH263202   6.487   3.073  13.776 -0.0283 -0.2848  0.2084
13904TIP3    H163203   6.430   3.126  13.833  1.6504  0.9793  0.8026
13904TIP3    H263204   6.534   3.137  13.723  0.4537 -1.3193 -0.6480
13905TIP3   OH263205   4.583   1.281  15.616  0.1065 -0.3377  0.2407
13905TIP3    H163206   4.541   1.268  15.701  1.0864 -0.5329  0.7109
13905TIP3    H263207   4.517   1.255  15.552  0.2781 -2.9200  1.0058
13906TIP3   OH263208   3.777   1.559   5.312  0.0050 -0.1157  0.0011
13906TIP3    H163209   3.809   1.580   5.400  0.8360 -0.3877 -0.2291
13906TIP3    H263210   3.690   1.599   5.308  1.1305  2.5386 -0.1170
13907TIP3   OH263211   6.155   3.490   5.785 -0.1106  0.2976 -0.1585
13907TIP3    H163212   6.240   3.475   5.826  0.3951  2.1304 -0.4268
13907TIP3    H263213   6.114   3.404   5.781  1.0501 -0.3777  1.4581
13908TIP3   OH263214   2.562   5.536  13.704 -0.1099 -0.1067 -0.3643
13908TIP3    H163215   2.610   5.585  13.638 -0.2083  1.0171  0.3820
13908TIP3    H263216   2.552   5.448  13.666 -0.5957  0.6372 -2.0533
13909TIP3   OH263217   1.096   5.462  14.563  0.2024 -0.0958 -0.0513
13909TIP3    H163218   1.092   5.555  14.585  0.6864 -0.4849  1.8658
13909TIP3    H263219   1.072   5.458  14.470 -0.5966  1.8502  0.0256
13910TIP3   OH263220   5.967   1.466  14.710 -0.1035 -0.2569 -0.4445
13910TIP3    H163221   6.029   1.408  14.667  0.4996  0.0744 -0.0423
13910TIP3    H263222   5.917   1.505  14.639  0.3850 -0.2674 -0.7979
13911TIP3   OH263223   5.896   1.634   5.859 -0.2044  0.1124  0.4879
13911TIP3    H163224   5.922   1.713   5.906 -1.0618  1.4212 -1.1654
13911TIP3    H263225   5.836   1.664   5.791  0.5469 -1.7553 -1.1118
13912TIP3   OH263226   1.559   0.941   5.580 -0.0636  0.0057 -0.9486
13912TIP3    H163227   1.522   1.006   5.641  1.8237 -0.3889  0.7221
13912TIP3    H263228   1.645   0.976   5.557  0.8760 -1.7390 -0.2391
13913TIP3   OH263229   3.860   3.695   0.581 -0.3841 -0.0262 -0.1247
13913TIP3    H163230   3.903   3.652   0.655 -0.4534 -0.0310 -0.0867
13913TIP3    H263231   3.898   3.655   0.503 -0.5372 -0.2423 -0.0881
13914TIP3   OH263232   5.994   1.488   5.266  0.2184 -0.3269  0.6381
13914TIP3    H163233   5.902   1.462   5.256  0.3992 -1.1755  1.0944
13914TIP3    H263234   6.027   1.492   5.176  0.3643 -2.4479  0.5462
13915TIP3   OH263235   1.497   1.911  16.350  0.2262 -0.3686 -0.3928
13915TIP3    H163236   1.516   1.903  16.257  1.0139  1.3345 -0.4126
13915TIP3    H263237   1.570   1.961  16.386 -1.0251  0.7098  0.7684
13916TIP3   OH263238   2.843   6.534   0.076 -0.0552 -0.4021 -0.6489
13916TIP3    H163239   2.848   6.610   0.018 -0.7661 -1.4438 -2.1543
13916TIP3    H263240   2.751   6.529   0.102 -0.5939 -2.0773 -2.5624
13917TIP3   OH263241   1.779   0.290  12.180 -0.0436  0.6243 -0.3124
13917TIP3    H163242   1.776   0.274  12.085  1.1928  0.4235 -0.3292
13917TIP3    H263243   1.756   0.205  12.219  0.2741  0.4845 -0.4298
13918TIP3   OH263244   6.518   4.261   2.566 -0.0073 -0.1393  0.4684
13918TIP3    H163245   6.505   4.313   2.646 -4.1875  1.8647 -1.2078
13918TIP3    H263246   6.468   4.181   2.582  1.0118 -0.7682  0.6077
13919TIP3   OH263247   0.964   6.013  15.649  0.3976 -0.3835 -0.0282
13919TIP3    H163248   1.023   6.025  15.723  0.8532  0.0470 -0.4540
13919TIP3    H263249   1.020   6.023  15.572 -0.0361 -0.9883 -0.4325
13920TIP3   OH263250   4.659   6.265  11.254 -0.0980 -0.0831  0.3187
13920TIP3    H163251   4.608   6.341  11.280  1.5853  0.9370  0.7832
13920TIP3    H263252   4.646   6.257  11.160 -1.7802 -0.3967  0.5493
13921TIP3   OH263253   4.957   4.862  10.418  0.7064 -0.4764 -0.5680
13921TIP3    H163254   4.951   4.931  10.353  0.1128  0.3200  0.3243
13921TIP3    H263255   4.984   4.906  10.499  0.0053 -1.2283  0.0945
13922TIP3   OH263256   3.838   1.225  15.140 -0.4587 -0.3475 -0.1418
13922TIP3    H163257   3.837   1.228  15.235  1.3217  1.3432 -0.1322
13922TIP3    H263258   3.812   1.135  15.119 -2.2161 -0.3951  1.8556
13923TIP3   OH263259   4.027   3.479  12.873  0.5525  0.4161 -0.0502
13923TIP3    H163260   3.978   3.541  12.928  0.1903 -1.0540  1.3657
13923TIP3    H263261   3.976   3.398  12.877  1.5696 -0.2915 -0.9723
13924TIP3   OH263262   2.637   3.996  14.177  0.3956 -0.1857  0.3446
13924TIP3    H163263   2.552   4.009  14.135  0.1683 -0.0189  0.8466
13924TIP3    H263264   2.686   3.942  14.115 -0.2466 -0.6844  0.2514
13925TIP3   OH263265   5.675   6.620  13.212  0.6412 -1.1572 -1.0136
13925TIP3    H163266   5.647   6.663  13.292 -1.2397 -1.7528 -1.3046
13925TIP3    H263267   5.735   6.682  13.171 -0.8046  0.5567 -0.6845
13926TIP3   OH263268   2.176   0.533   5.820  0.0949 -0.7335 -0.0319
13926TIP3    H163269   2.262   0.493   5.811  1.1131  1.1769  0.6608
13926TIP3    H263270   2.163   0.580   5.738 -0.3058 -1.0512 -0.1515
13927TIP3   OH263271   4.447   1.255  15.855  0.1513 -0.1406  0.1105
13927TIP3    H163272   4.386   1.323  15.885 -2.2112 -1.7841 -0.6178
13927TIP3    H263273   4.481   1.216  15.936  0.8680  1.2892  0.5330
13928TIP3   OH263274   4.815   2.384  12.593  0.2998  0.0460  0.1551
13928TIP3    H163275   4.814   2.297  12.633  0.9736 -0.3483 -0.6360
13928TIP3    H263276   4.724   2.403  12.573  0.2580 -1.0688 -0.8482
13929TIP3   OH263277   2.497   5.282  13.048  0.0040  0.5198  0.5180
13929TIP3    H163278   2.504   5.377  13.036  0.9622  0.2200 -1.7469
13929TIP3    H263279   2.573   5.258  13.100  0.2660  0.8824  0.3044
13930TIP3   OH263280   1.363   3.564  15.635 -0.1590  0.0724  0.1927
13930TIP3    H163281   1.292   3.501  15.619  0.2790 -0.1234 -1.1322
13930TIP3    H263282   1.347   3.634  15.572  0.7695  0.0563 -0.0789
13931TIP3   OH263283   4.772   1.521   2.756  0.3713 -0.1376 -0.1156
13931TIP3    H163284   4.710   1.553   2.691  0.9108  1.1304 -0.0536
13931TIP3    H263285   4.764   1.584   2.828  1.1954 -0.3713  0.1869
13932TIP3   OH263286   4.216   1.870  14.630 -0.1234 -0.6222 -0.1174
13932TIP3    H163287   4.308   1.849  14.611  0.2546  1.3981 -0.7863
13932TIP3    H263288   4.208   1.963  14.608 -2.5360 -0.9277 -0.7509
13933TIP3   OH263289   0.168   6.592  15.434 -0.0843 -0.0767  0.4624
13933TIP3    H163290   0.112   6.664  15.406 -1.1811 -0.6453  1.1035
13933TIP3    H263291   0.197   6.616  15.522  0.9180  0.3423  0.0240
13934TIP3   OH263292   2.660   4.911  12.193  0.3236  0.0283 -0.0238
13934TIP3    H163293   2.756   4.908  12.200  0.2479 -1.2712  0.7854
13934TIP3    H263294   2.629   4.847  12.256 -1.0953  0.3581 -0.3458
13935TIP3   OH263295   1.092   4.855  14.426 -0.3481 -0.0418  0.0161
13935TIP3    H163296   1.091   4.883  14.335 -0.7502 -1.4653 -0.4561
13935TIP3    H263297   1.073   4.761  14.422  1.7424 -0.5975  1.4138
13936TIP3   OH263298   6.082   2.858  16.496 -0.2874  0.1835 -0.5647
13936TIP3    H163299   6.058   2.899  16.580  1.2767  0.9665 -0.4622
13936TIP3    H263300   6.161   2.808  16.516 -1.7138 -2.3872 -0.8594
13937TIP3   OH263301   3.569   0.823  15.333  0.1380  0.2729  0.0299
13937TIP3    H163302   3.613   0.907  15.348  1.1786 -0.3656  0.6480
13937TIP3    H263303   3.535   0.830  15.243 -0.7401  1.7497  0.4339
13938TIP3   OH263304   6.678   5.063   1.778 -0.3335  0.1536 -0.8282
13938TIP3    H163305   6.641   5.057   1.866 -0.8149  1.0230 -0.9648
13938TIP3    H263306   6.622   5.007   1.725 -0.8686  0.6983 -0.8418
13939TIP3   OH263307   3.380   0.112   4.373 -0.3155  0.2513  0.2872
13939TIP3    H163308   3.459   0.115   4.320 -0.8543 -0.2327 -0.5652
13939TIP3    H263309   3.352   0.020   4.369 -2.0789  0.7909 -1.1729
13940TIP3   OH263310   1.828   2.035  12.872  0.0057 -0.0792 -0.3999
13940TIP3    H163311   1.871   1.964  12.921  0.1808  1.5153  1.8667
13940TIP3    H263312   1.899   2.097  12.854 -0.7928  1.2137  0.8306
13941TIP3   OH263313   1.173   0.628   1.142  0.1963  0.0081 -0.6472
13941TIP3    H163314   1.111   0.568   1.184 -0.3076  1.4104  0.6916
13941TIP3    H263315   1.218   0.573   1.078  0.0844 -1.9200  0.8158
13942TIP3   OH263316   1.592   3.189   3.725  0.1746 -0.1553  0.0370
13942TIP3    H163317   1.629   3.226   3.645 -0.0228 -0.6271 -0.2760
13942TIP3    H263318   1.541   3.114   3.696 -1.4169  0.7400  0.4158
13943TIP3   OH263319   0.440   2.703  16.970 -0.5084  0.5180 -0.5327
13943TIP3    H163320   0.474   2.767  16.907  1.8632 -0.1903 -0.0533
13943TIP3    H263321   0.516   2.677  17.022 -1.6983 -1.5576  0.2962
13944TIP3   OH263322   0.163   0.223   4.101  0.3266  0.3357  0.3513
13944TIP3    H163323   0.228   0.242   4.033  0.1966  0.0317  0.1410
13944TIP3    H263324   0.088   0.279   4.078 -0.7119 -1.5652 -1.2350
13945TIP3   OH263325   3.783   2.650   6.135 -0.3558  0.0878 -0.5411
13945TIP3    H163326   3.839   2.722   6.108  0.0225 -0.1827 -0.4903
13945TIP3    H263327   3.773   2.661   6.230 -0.4262  0.1619 -0.5571
13946TIP3   OH263328   3.409   2.817  15.124 -0.1358 -0.2903  0.0690
13946TIP3    H163329   3.357   2.844  15.048 -0.9602 -0.8202  0.4335
13946TIP3    H263330   3.457   2.896  15.149 -0.7510  0.2076 -0.2903
13947TIP3   OH263331   5.960   1.648   6.209  0.0910 -0.2082  0.5201
13947TIP3    H163332   6.005   1.708   6.150 -0.5381  0.8436  1.0918
13947TIP3    H263333   6.026   1.619   6.271  0.5036 -0.4851 -0.0417
13948TIP3   OH263334   4.801   3.299  14.586 -0.0529  0.1257  0.2973
13948TIP3    H163335   4.824   3.227  14.528  2.4673  0.1284  1.1840
13948TIP3    H263336   4.783   3.372  14.527  1.3081 -0.1802 -0.5406
13949TIP3   OH263337   1.078   2.529   4.939  0.3340  0.0734  0.3174
13949TIP3    H163338   1.004   2.521   4.879 -0.6501 -0.7156  1.6161
13949TIP3    H263339   1.155   2.511   4.883 -0.5990 -1.3249 -0.5929
13950TIP3   OH263340   2.011   5.563   3.473 -0.2753 -0.3139  0.4215
13950TIP3    H163341   2.027   5.632   3.538  0.9866  1.0236 -1.2264
13950TIP3    H263342   1.919   5.575   3.449 -0.2044  0.4969  0.5127
13951TIP3   OH263343   3.068   5.986   4.010  0.0226 -0.3166 -0.2768
13951TIP3    H163344   3.120   5.963   3.933  1.0617 -0.6001  0.4923
13951TIP3    H263345   3.047   6.079   3.998  0.2993 -0.3260 -0.8312
13952TIP3   OH263346   5.908   5.215   6.156  0.0643 -0.2064 -0.2973
13952TIP3    H163347   5.895   5.132   6.110  0.2775 -1.8435  2.3827
13952TIP3    H263348   5.820   5.241   6.183  0.2187 -0.8679  0.9099
13953TIP3   OH263349   5.064   3.837  11.663  0.8739 -0.1004 -0.3341
13953TIP3    H163350   5.102   3.906  11.608 -0.7580  0.2488 -1.0853
13953TIP3    H263351   5.035   3.770  11.600 -0.6348  0.1036  0.1028
13954TIP3   OH263352   1.602   0.268   2.473 -0.4002 -0.4600 -0.3109
13954TIP3    H163353   1.640   0.245   2.558 -1.2321 -1.1663 -0.1121
13954TIP3    H263354   1.518   0.310   2.496 -0.7641 -0.9216 -0.7777
13955TIP3   OH263355   0.559   3.138  13.136  0.2192 -0.2992 -0.0227
13955TIP3    H163356   0.466   3.123  13.125  0.1197 -0.6209  1.0869
13955TIP3    H263357   0.565   3.201  13.208  0.8100  1.1536 -1.2783
13956TIP3   OH263358   1.617   2.306  14.847 -0.3879  0.3082  0.0268
13956TIP3    H163359   1.559   2.244  14.802 -0.9384  0.3993  0.5988
13956TIP3    H263360   1.698   2.257  14.861 -0.0318  0.4237 -1.4708
13957TIP3   OH263361   2.209   3.676  15.051 -0.2878  0.3051  0.2123
13957TIP3    H163362   2.118   3.658  15.029 -0.6674  3.0359 -0.8668
13957TIP3    H263363   2.226   3.763  15.015  2.6174  0.1057  0.8144
13958TIP3   OH263364   6.088   0.985   2.821  0.2323 -0.1005 -0.3985
13958TIP3    H163365   6.075   1.076   2.848  2.9439  0.3998 -0.4841
13958TIP3    H263366   6.071   0.984   2.727 -0.4377  0.1622 -0.2822
13959TIP3   OH263367   2.586   4.998  15.439  0.0659  0.4974  0.0230
13959TIP3    H163368   2.615   4.941  15.510 -1.2301 -2.6096 -1.7724
13959TIP3    H263369   2.496   5.022  15.464 -0.3414 -0.4836 -0.4515
13960TIP3   OH263370   1.407   6.564  14.190 -0.3989 -0.0170  0.4002
13960TIP3    H163371   1.470   6.501  14.155 -1.6299 -1.6634  1.0215
13960TIP3    H263372   1.384   6.619  14.115 -1.4238 -2.1598 -0.9517
13961TIP3   OH263373   1.365   4.048   2.497  0.2081  0.0225  0.0458
13961TIP3    H163374   1.434   4.108   2.525  0.8217 -1.6548  2.5077
13961TIP3    H263375   1.406   3.961   2.500 -1.4073 -0.8106 -0.5553
13962TIP3   OH263376   5.381   5.417  15.335  0.1307  0.0045 -0.3596
13962TIP3    H163377   5.405   5.509  15.326  0.4718 -0.0219  0.3020
13962TIP3    H263378   5.307   5.417  15.396 -0.1190 -0.1278 -0.6565
13963TIP3   OH263379   1.203   1.033   6.044  0.6124  0.1579  0.4546
13963TIP3    H163380   1.278   1.052   6.101  1.6319  0.3422 -0.8876
13963TIP3    H263381   1.149   1.111   6.047  0.7510  0.2340  1.0202
13964TIP3   OH263382   6.492   4.669  12.025  0.1914 -0.0118 -0.5265
13964TIP3    H163383   6.406   4.701  12.000  0.6690  1.1313 -0.7475
13964TIP3    H263384   6.530   4.636  11.943 -0.1684 -0.8568 -0.3620
13965TIP3   OH263385   4.444   1.985   4.509 -0.3132 -0.4494  0.0178
13965TIP3    H163386   4.536   2.004   4.490 -0.4825  0.2827 -0.0927
13965TIP3    H263387   4.396   2.050   4.459 -0.8694 -0.3653  0.6607
13966TIP3   OH263388   0.722   2.002   3.702 -0.6067 -0.0299 -0.2916
13966TIP3    H163389   0.719   2.030   3.611  0.8407  0.5392 -0.1882
13966TIP3    H263390   0.735   2.083   3.751 -0.7188 -0.4031  0.3677
13967TIP3   OH263391   0.232   5.857   0.220 -0.1814  0.1707 -0.2806
13967TIP3    H163392   0.299   5.791   0.198  0.8531  0.9390  0.4792
13967TIP3    H263393   0.249   5.879   0.311 -2.0422 -0.2355  0.1944
13968TIP3   OH263394   5.446   0.654   3.643 -0.5983 -0.4694  0.2385
13968TIP3    H163395   5.463   0.597   3.569 -1.7253 -1.5477  0.7773
13968TIP3    H263396   5.529   0.655   3.692 -0.3573 -1.0778 -0.1503
13969TIP3   OH263397   6.415   3.377   4.984  0.1338 -0.1725 -0.0212
13969TIP3    H163398   6.503   3.340   4.994  0.6369  1.1834  0.7798
13969TIP3    H263399   6.366   3.343   5.060  0.0762 -0.5968 -0.2453
13970TIP3   OH263400   3.094   6.122  11.901  0.3954  0.1688  0.2422
13970TIP3    H163401   3.102   6.212  11.871 -1.1147 -0.5390 -2.7013
13970TIP3    H263402   3.005   6.116  11.935 -0.0900 -0.4970 -1.0425
13971TIP3   OH263403   2.938   6.376   2.085 -0.2961 -0.1672 -0.0709
13971TIP3    H163404   2.875   6.385   2.156 -0.0773 -1.5264  0.3204
13971TIP3    H263405   3.021   6.405   2.122 -0.6554  1.7428 -0.6227
13972TIP3   OH263406   2.574   1.777   3.838  0.5389 -0.3526 -0.0765
13972TIP3    H163407   2.607   1.839   3.773 -0.5479  0.3976  0.0561
13972TIP3    H263408   2.486   1.808   3.858 -0.2288 -2.1922 -0.3461
13973TIP3   OH263409   1.544   2.464  13.829  0.7839 -0.3998  0.2820
13973TIP3    H163410   1.518   2.515  13.906  0.0573 -2.0509  1.1730
13973TIP3    H263411   1.471   2.474  13.768  0.6346 -0.3850  0.4621
13974TIP3   OH263412   5.672   2.459   4.133  0.1545 -0.4305 -0.3372
13974TIP3    H163413   5.752   2.484   4.087 -0.5135 -0.0482 -1.3389
13974TIP3    H263414   5.687   2.368   4.160 -0.1431 -1.3795 -3.0461
13975TIP3   OH263415   3.097   6.416  11.853  0.6928 -0.3122 -0.5811
13975TIP3    H163416   3.163   6.431  11.786  0.3631  3.1912 -0.2961
13975TIP3    H263417   3.014   6.424  11.807  0.4450 -0.9925 -0.2692
13976TIP3   OH263418   0.105   0.188   2.308 -0.1257 -0.5044  0.6053
13976TIP3    H163419   0.199   0.205   2.321  0.0965 -0.6358 -0.7287
13976TIP3    H263420   0.099   0.093   2.301 -0.0151 -0.4010 -1.5447
13977TIP3   OH263421   4.664   6.268   1.154  0.5325  0.0826  0.1462
13977TIP3    H163422   4.756   6.252   1.133  0.2693 -1.0742 -0.2061
13977TIP3    H263423   4.655   6.363   1.150  1.3460  0.1386 -1.4695
13978TIP3   OH263424   0.256   2.727   2.257  0.1047  0.1902  0.3690
13978TIP3    H163425   0.225   2.653   2.203  1.1022  0.8080 -1.1261
13978TIP3    H263426   0.345   2.702   2.282 -0.9607 -0.9294  3.4172
13979TIP3   OH263427   4.297   0.835   5.595 -0.2109 -0.2750 -0.8094
13979TIP3    H163428   4.343   0.803   5.672 -1.5874 -1.2458 -0.3438
13979TIP3    H263429   4.364   0.840   5.527  1.4802  2.4698  0.8833
13980TIP3   OH263430   6.508   4.449   3.639  0.3937  0.2756  0.1965
13980TIP3    H163431   6.489   4.516   3.705  1.3809  1.2302 -0.4382
13980TIP3    H263432   6.491   4.366   3.683 -3.4941  0.8998  0.1849
13981TIP3   OH263433   0.667   0.695   2.396 -0.1168 -0.1650  0.3074
13981TIP3    H163434   0.612   0.670   2.470 -0.3526 -0.2543  0.1056
13981TIP3    H263435   0.707   0.613   2.367 -1.1002 -0.3704 -0.5244
13982TIP3   OH263436   4.984   3.063  14.138  0.0601 -0.0544 -0.0187
13982TIP3    H163437   4.927   2.999  14.095 -0.7669  0.4609  0.2915
13982TIP3    H263438   5.035   3.011  14.200  0.2808 -0.5919 -0.6319
13983TIP3   OH263439   0.662   4.916   3.206 -0.8448  0.4262 -0.4201
13983TIP3    H163440   0.642   5.009   3.194 -0.3888  0.4640 -0.9158
13983TIP3    H263441   0.608   4.872   3.141  0.7064  0.5379 -1.8621
13984TIP3   OH263442   5.784   5.920  15.314 -0.4134 -0.3034 -0.2958
13984TIP3    H163443   5.699   5.964  15.305 -1.1408 -2.0766 -3.4563
13984TIP3    H263444   5.762   5.828  15.325  1.0325 -0.9944 -2.6145
13985TIP3   OH263445   6.817   3.614  11.788 -0.6358  0.8188 -0.3360
13985TIP3    H163446   6.733   3.598  11.745 -0.7358  0.1072  0.1086
13985TIP3    H263447   6.800   3.689  11.845 -0.2983  2.2908 -2.0626
13986TIP3   OH263448   0.683   6.784  11.709  0.2929 -0.7570 -0.1268
13986TIP3    H163449   0.692   6.690  11.692 -0.0286 -0.5837 -1.3137
13986TIP3    H263450   0.693   6.826  11.624  2.0968  0.4413  0.6200
13987TIP3   OH263451   2.803   1.631  12.637 -0.0207  0.5597 -0.2648
13987TIP3    H163452   2.711   1.605  12.639  0.3806 -1.0545  2.6435
13987TIP3    H263453   2.840   1.582  12.563 -0.7086 -2.1089  1.0438
13988TIP3   OH263454   1.375   2.124  13.813 -0.0085  0.2424 -0.3003
13988TIP3    H163455   1.470   2.119  13.807  0.0997 -0.8040  1.4727
13988TIP3    H263456   1.345   2.037  13.786 -0.6526  1.2040 -2.9230
13989TIP3   OH263457   1.059   6.563  14.639 -0.4398  0.5983 -0.4177
13989TIP3    H163458   1.032   6.472  14.626 -0.1414  0.5621 -0.7972
13989TIP3    H263459   1.147   6.568  14.601  0.7183  0.3572  2.0484
13990TIP3   OH263460   5.090   6.619   2.962 -0.4495 -0.2205 -0.0925
13990TIP3    H163461   5.132   6.534   2.950  1.3630  0.8077 -1.6741
13990TIP3    H263462   5.030   6.606   3.036  0.2056 -2.6734  0.1068
13991TIP3   OH263463   2.390   5.365   0.837  0.0010  0.2648 -0.2595
13991TIP3    H163464   2.465   5.305   0.841 -0.5403 -0.4770 -0.9614
13991TIP3    H263465   2.321   5.320   0.885 -0.0008  0.9427  0.3741
13992TIP3   OH263466   5.610   3.045   4.209 -0.5835  0.3863  0.1937
13992TIP3    H163467   5.601   3.139   4.223 -1.1932  0.2293  0.9366
13992TIP3    H263468   5.564   3.028   4.127  1.4906  1.0612 -1.1854
13993TIP3   OH263469   0.685   3.668   3.771  0.1517  0.3722  0.7035
13993TIP3    H163470   0.694   3.732   3.842 -0.5980  0.6094  0.5928
13993TIP3    H263471   0.620   3.606   3.804  0.5778 -0.1170  0.6443
13994TIP3   OH263472   5.556   4.190   0.803  0.3374 -0.1487 -0.5372
13994TIP3    H163473   5.524   4.241   0.877  0.8653  0.4623 -0.7191
13994TIP3    H263474   5.599   4.255   0.746  1.7155 -0.8938 -0.3923
13995TIP3   OH263475   2.557   5.802   6.147 -0.1838  0.5506 -0.1945
13995TIP3    H163476   2.542   5.709   6.128 -0.1420  0.1878  1.4022
13995TIP3    H263477   2.500   5.848   6.086 -0.2893 -0.5161 -0.9459
13996TIP3   OH263478   4.134   4.323   1.252 -0.5581  0.4384  0.2297
13996TIP3    H163479   4.078   4.246   1.259  1.4778 -0.9880  2.6680
13996TIP3    H263480   4.088   4.391   1.302 -0.9195 -0.1580  0.7162
13997TIP3   OH263481   4.166   2.603   4.201 -0.2064 -0.0839 -0.2244
13997TIP3    H163482   4.071   2.604   4.207 -0.1672 -0.7870  0.8945
13997TIP3    H263483   4.195   2.652   4.277  0.3264 -0.6075 -0.0813
13998TIP3   OH263484   0.471   3.851  15.067 -0.5726 -0.1319 -0.1349
13998TIP3    H163485   0.518   3.906  15.129 -2.1779 -0.4952  1.4961
13998TIP3    H263486   0.540   3.811  15.014  1.0488 -0.8940  2.3252
13999TIP3   OH263487   4.313   4.497   5.135 -0.1648  0.2043  0.3719
13999TIP3    H163488   4.397   4.472   5.097 -0.2595  0.1074  0.2224
13999TIP3    H263489   4.255   4.507   5.059 -0.6663 -1.1498  0.5549
14000TIP3   OH263490   5.981   3.298   0.746 -0.2176  0.2985 -0.4181
14000TIP3    H163491   5.901   3.267   0.787  1.4686 -1.5160  1.7874
14000TIP3    H263492   5.972   3.271   0.654 -1.3457 -1.6665  0.1944
14001TIP3   OH263493   0.354   3.095   2.497  0.2675  0.0464  0.3081
14001TIP3    H163494   0.271   3.051   2.480 -1.3277  2.7188  0.6457
14001TIP3    H263495   0.393   3.109   2.411 -0.6969  0.6702 -0.0359
14002TIP3   OH263496   2.155   4.326  12.968  0.3877  0.2385 -0.5501
14002TIP3    H163497   2.165   4.242  13.013  2.3901 -0.3859 -2.0455
14002TIP3    H263498   2.231   4.377  12.995 -0.1561  1.1248 -0.6449
14003TIP3   OH263499   2.051   3.622   4.437  0.5066 -0.3777 -0.3286
14003TIP3    H163500   2.060   3.710   4.472  0.9610 -0.7788  0.6029
14003TIP3    H263501   2.120   3.616   4.371 -1.8329  1.1985 -3.1979
14004TIP3   OH263502   1.192   6.509   1.047  0.1793 -0.0568  0.0546
14004TIP3    H163503   1.242   6.518   0.966 -0.8146  0.9166 -0.4874
14004TIP3    H263504   1.228   6.576   1.105 -0.6094  0.8077 -0.4211
14005TIP3   OH263505   3.235   3.761   4.196 -0.1713 -0.0785 -0.0168
14005TIP3    H163506   3.227   3.775   4.102 -0.6138 -1.2578 -0.1746
14005TIP3    H263507   3.213   3.669   4.209  0.2912 -0.0482  1.1963
14006TIP3   OH263508   4.556   6.124  13.317  0.1469 -0.1866 -0.3058
14006TIP3    H163509   4.485   6.187  13.304  2.1466  2.2001 -0.3375
14006TIP3    H263510   4.552   6.101  13.410 -1.1025 -0.6770 -0.4671
14007TIP3   OH263511   2.309   0.823   5.757  0.1974  0.1349 -0.6093
14007TIP3    H163512   2.282   0.913   5.738 -0.1843 -0.0301 -0.8542
14007TIP3    H263513   2.313   0.819   5.853  1.4801  0.7753 -0.6107
14008TIP3   OH263514   5.051   6.305   3.773 -0.4124  0.4213  0.0935
14008TIP3    H163515   5.055   6.269   3.861 -0.2503 -0.2589 -0.1829
14008TIP3    H263516   4.978   6.259   3.731  1.6814 -1.9007 -1.2433
14009TIP3   OH263517   5.392   6.519   3.533  0.2318 -0.1376 -0.1741
14009TIP3    H163518   5.431   6.567   3.606 -0.0501 -1.3217  0.7950
14009TIP3    H263519   5.386   6.429   3.565 -0.5858 -0.5351 -1.3958
14010TIP3   OH263520   3.401   0.363  11.298 -0.0006 -0.2670 -0.0769
14010TIP3    H163521   3.334   0.294  11.293  0.1731 -0.4335 -0.1404
14010TIP3    H263522   3.352   0.444  11.307 -0.3087 -0.1365 -2.2856
14011TIP3   OH263523   5.138   0.469   6.457 -0.2674 -0.7818 -0.2322
14011TIP3    H163524   5.209   0.424   6.411  1.8816  0.8536  1.2755
14011TIP3    H263525   5.121   0.416   6.535  1.3344  0.2497  0.8605
14012TIP3   OH263526   3.603   5.741   2.203 -0.0794  0.2220 -0.3893
14012TIP3    H163527   3.676   5.686   2.174 -1.8386 -2.1692 -0.5882
14012TIP3    H263528   3.601   5.813   2.141  0.5069 -1.0993 -2.0105
14013TIP3   OH263529   5.403   5.799   1.755 -0.1019 -0.0918 -0.0864
14013TIP3    H163530   5.334   5.736   1.733 -0.3670 -0.3649  1.3560
14013TIP3    H263531   5.391   5.872   1.695 -0.8326 -0.7062 -0.6974
14014TIP3   OH263532   3.045   2.900   3.567  0.2042  0.2958  0.1807
14014TIP3    H163533   3.127   2.941   3.594  0.6232  0.4287 -1.1996
14014TIP3    H263534   3.051   2.896   3.471 -0.6054 -1.3566  0.1684
14015TIP3   OH263535   4.372   5.877   1.466  0.3183  0.2232 -0.3858
14015TIP3    H163536   4.375   5.818   1.391 -0.1126 -0.6536  0.2777
14015TIP3    H263537   4.354   5.963   1.427  1.3246  0.0021 -1.3873
14016TIP3   OH263538   3.398   2.816   6.392  0.5220  0.1584 -0.1758
14016TIP3    H163539   3.467   2.863   6.345  1.3665 -1.7886 -0.9940
14016TIP3    H263540   3.415   2.724   6.372 -3.2803 -0.3543 -1.7654
14017TIP3   OH263541   5.059   5.590  10.752  0.0232  0.2211 -0.4356
14017TIP3    H163542   5.007   5.645  10.810  0.7588  0.3964  0.0797
14017TIP3    H263543   5.140   5.640  10.737  0.0897 -0.0741 -1.1498
14018TIP3   OH263544   0.337   5.733   5.870 -0.2490  0.5469 -0.4559
14018TIP3    H163545   0.365   5.692   5.788  0.2652 -1.2057  0.5360
14018TIP3    H263546   0.356   5.667   5.937 -0.1217  2.1462  1.1561
14019TIP3   OH263547   6.437   3.896   1.397 -0.4946 -0.0177 -0.1909
14019TIP3    H163548   6.399   3.983   1.386 -2.9631 -0.8169  1.2680
14019TIP3    H263549   6.531   3.912   1.403 -0.7977  2.4379 -0.8661
14020TIP3   OH263550   0.400   3.433  14.116  0.1886 -0.7326  0.6908
14020TIP3    H163551   0.388   3.489  14.193  2.5620  0.1966  0.4830
14020TIP3    H263552   0.396   3.344  14.151 -0.2891 -0.3574  1.6285
14021TIP3   OH263553   0.388   3.500  10.573  0.3596  0.7027  0.2519
14021TIP3    H163554   0.300   3.524  10.542  0.9616  1.2647 -1.0746
14021TIP3    H263555   0.445   3.517  10.499  1.3097 -1.7950  0.3364
14022TIP3   OH263556   4.511   1.756   3.439 -0.3532 -0.5444  0.0156
14022TIP3    H163557   4.561   1.681   3.469  0.2392  0.1397  0.8002
14022TIP3    H263558   4.456   1.780   3.513 -0.8454 -0.4531 -0.3720
14023TIP3   OH263559   2.253   5.629   0.324 -0.2981  0.1990  0.2129
14023TIP3    H163560   2.263   5.607   0.417 -1.2597 -0.7574  0.1141
14023TIP3    H263561   2.224   5.720   0.324 -1.3238 -0.1036  0.9295
14024TIP3   OH263562   4.472   0.362  12.466  0.2747  0.4447  0.2716
14024TIP3    H163563   4.396   0.340  12.520  0.4749 -0.7942  0.0599
14024TIP3    H263564   4.435   0.376  12.379  0.3707 -1.0612 -0.0387
14025TIP3   OH263565   0.372   0.322  16.630 -0.3256  0.0674 -0.1560
14025TIP3    H163566   0.353   0.273  16.711  0.3953 -1.7416 -1.0281
14025TIP3    H263567   0.433   0.390  16.657 -0.4009 -0.2633  0.9058
14026TIP3   OH263568   3.473   3.084  13.954 -0.1296  0.3267 -0.9912
14026TIP3    H163569   3.505   2.994  13.956 -1.0183 -0.0101 -1.4306
14026TIP3    H263570   3.445   3.103  14.043 -1.0736 -0.2578 -1.1584
14027TIP3   OH263571   2.319   4.726  16.026  0.5750  0.0291  0.0373
14027TIP3    H163572   2.284   4.650  16.074  1.5018 -1.7060 -1.8942
14027TIP3    H263573   2.242   4.767  15.986  0.2803 -1.3666 -0.8795
14028TIP3   OH263574   6.116   5.924   5.605  0.4480  0.2460 -0.3553
14028TIP3    H163575   6.060   5.999   5.627  0.4378 -0.2065  1.3085
14028TIP3    H263576   6.057   5.849   5.605  0.8740 -0.1079  0.5459
14029TIP3   OH263577   3.719   1.503   2.261 -0.6479  0.1311  0.4093
14029TIP3    H163578   3.675   1.585   2.284 -0.0004  0.7849 -0.5523
14029TIP3    H263579   3.726   1.506   2.165  0.0387 -0.7066  0.4202
14030TIP3   OH263580   4.992   1.985   3.868  0.1039 -0.3260 -0.2639
14030TIP3    H163581   4.934   2.038   3.923 -0.2562 -0.7213 -0.2621
14030TIP3    H263582   4.933   1.942   3.806  0.4280 -0.4869 -0.4632
14031TIP3   OH263583   1.644   3.794  14.771 -0.1987  0.0663  0.3598
14031TIP3    H163584   1.554   3.825  14.762 -0.9267 -1.8327  0.6341
14031TIP3    H263585   1.646   3.752  14.857 -0.0182 -2.7894 -0.9488
14032TIP3   OH263586   2.922   3.898  13.915 -0.0792  0.5493 -0.6395
14032TIP3    H163587   2.863   3.969  13.890 -0.2609  0.7945  0.4406
14032TIP3    H263588   3.003   3.942  13.941 -0.3537  0.4105  0.4942
14033TIP3   OH263589   1.029   1.646  11.904 -0.6982 -0.6711  0.6175
14033TIP3    H163590   1.011   1.688  11.820  0.7094  1.4300  1.2941
14033TIP3    H263591   1.073   1.564  11.881 -2.4346 -1.2985 -0.7058
14034TIP3   OH263592   0.531   0.012   1.829  0.1347  0.3420  0.4067
14034TIP3    H163593   0.451   0.049   1.867  1.8255  3.0088  1.7374
14034TIP3    H263594   0.545   0.062   1.749 -0.1998 -1.0316 -0.5235
14035TIP3   OH263595   0.987   5.455   4.674 -0.0331 -0.1391 -0.2375
14035TIP3    H163596   1.018   5.374   4.714  3.2734  1.0078 -0.1983
14035TIP3    H263597   0.933   5.496   4.742  0.9838 -0.7819  0.9898
14036TIP3   OH263598   3.012   3.665   2.176  0.0704  0.0257 -0.4050
14036TIP3    H163599   3.090   3.632   2.220  1.0205  0.1304 -1.9411
14036TIP3    H263600   2.970   3.722   2.240  1.7182  0.6356  0.1713
14037TIP3   OH263601   1.645   3.479  17.173  0.3812  0.3987  0.3425
14037TIP3    H163602   1.739   3.496  17.162  0.1911  1.5667  0.3658
14037TIP3    H263603   1.635   3.385  17.156  1.7040  0.0338  1.3927
14038TIP3   OH263604   1.577   2.977  14.893  0.6634 -0.7636  0.0736
14038TIP3    H163605   1.553   2.896  14.847  1.1941 -0.6208 -0.4757
14038TIP3    H263606   1.597   2.949  14.982 -0.0148 -1.1061  0.1237
14039TIP3   OH263607   6.193   5.753  13.100  0.5477 -0.6148 -0.5048
14039TIP3    H163608   6.243   5.702  13.164 -1.6460 -1.9624  0.2501
14039TIP3    H263609   6.221   5.718  13.015 -0.1458 -2.4063 -0.0457
14040TIP3   OH263610   5.964   1.220  12.330  0.0160 -0.3723 -0.4345
14040TIP3    H163611   5.973   1.314  12.319  0.1901 -0.3234  0.1120
14040TIP3    H263612   6.038   1.183  12.281  1.6777 -0.0948  1.7355
14041TIP3   OH263613   5.087   1.896   5.095  0.0257  0.2689  0.2368
14041TIP3    H163614   5.159   1.932   5.044  0.1373 -1.0882 -0.6087
14041TIP3    H263615   5.114   1.806   5.114 -1.7506 -0.5339 -0.7748
14042TIP3   OH263616   5.811   4.284   3.054  0.3201  0.0811  0.6709
14042TIP3    H163617   5.852   4.302   2.969 -2.0113 -1.3468 -0.8762
14042TIP3    H263618   5.780   4.370   3.084  1.0400  0.5837  0.0385
14043TIP3   OH263619   6.582   6.640   1.941 -0.2330  0.3393 -0.3723
14043TIP3    H163620   6.670   6.618   1.972 -0.9574 -1.5383  0.5332
14043TIP3    H263621   6.574   6.595   1.857 -0.8190 -0.7974  0.2638
14044TIP3   OH263622   6.366   0.184   5.213  0.6567 -0.0834 -0.2222
14044TIP3    H163623   6.294   0.137   5.255 -1.1855  1.7662 -1.1153
14044TIP3    H263624   6.414   0.224   5.286 -1.0739  1.1415  0.3131
14045TIP3   OH263625   2.133   4.622   3.715 -0.2658 -0.1101 -0.1425
14045TIP3    H163626   2.155   4.601   3.806 -0.5731 -0.4226 -0.1390
14045TIP3    H263627   2.051   4.576   3.698  0.5492 -1.2963 -1.0508
14046TIP3   OH263628   5.884   4.965   4.983  0.0683  0.5355  0.0370
14046TIP3    H163629   5.977   4.980   4.965  0.6459 -1.3383  1.1831
14046TIP3    H263630   5.880   4.945   5.077 -1.4239  0.1567 -0.0754
14047TIP3   OH263631   5.262   4.163  12.165  0.1367  0.9060 -0.9055
14047TIP3    H163632   5.326   4.223  12.128  0.5103  0.8784 -0.3202
14047TIP3    H263633   5.181   4.214  12.167  0.5109  1.5085 -0.1588
14048TIP3   OH263634   5.374   0.409   4.090 -0.2171  0.0706  0.2089
14048TIP3    H163635   5.466   0.420   4.116 -0.2656 -1.2117  0.9967
14048TIP3    H263636   5.327   0.394   4.173 -1.0014 -0.0974 -0.2566
14049TIP3   OH263637   3.447   0.371   6.138 -0.3206 -0.3988 -0.2040
14049TIP3    H163638   3.536   0.383   6.171 -0.6943  2.4643  0.0120
14049TIP3    H263639   3.392   0.368   6.217 -0.6358  0.3784 -0.3845
14050TIP3   OH263640   2.312   6.231   2.673  0.0584  0.0681  0.1645
14050TIP3    H163641   2.354   6.147   2.653  0.0199  0.1106 -0.1053
14050TIP3    H263642   2.247   6.242   2.603  0.3148  0.4975 -0.0112
14051TIP3   OH263643   5.642   3.795   1.607  0.0689 -0.5175 -0.3257
14051TIP3    H163644   5.730   3.797   1.645  1.1158 -0.2656 -2.6082
14051TIP3    H263645   5.638   3.873   1.551 -0.5797 -1.9225 -2.3495
14052TIP3   OH263646   0.183   2.443  16.051 -0.3709  0.3332 -0.2657
14052TIP3    H163647   0.155   2.385  16.121  0.9509 -0.7107 -0.5388
14052TIP3    H263648   0.132   2.522  16.062  0.5176  0.6135  2.5150
14053TIP3   OH263649   4.672   1.155   4.924 -0.5958 -0.2951 -0.5597
14053TIP3    H163650   4.678   1.239   4.879 -1.5805  0.0774 -0.0144
14053TIP3    H263651   4.608   1.105   4.874  0.1456 -0.8153 -1.0104
14054TIP3   OH263652   0.817   0.830   3.171  0.2287  0.4689 -0.0263
14054TIP3    H163653   0.873   0.778   3.114 -1.2381  0.1866 -1.2906
14054TIP3    H263654   0.744   0.857   3.115 -1.7019 -0.4488  1.8929
14055TIP3   OH263655   5.912   3.137  13.713 -0.0741 -0.1681 -0.1320
14055TIP3    H163656   5.895   3.046  13.740  0.1375  0.4045  2.1771
14055TIP3    H263657   5.952   3.177  13.790 -0.2915  1.9423 -1.0548
14056TIP3   OH263658   6.174   2.662  14.307  0.1307  0.3598 -0.0338
14056TIP3    H163659   6.149   2.683  14.397 -0.1105  0.6423 -0.1650
14056TIP3    H263660   6.263   2.695  14.298  0.4289 -0.3128  0.3204
14057TIP3   OH263661   1.638   0.852   3.077  0.1118  0.1480 -0.3412
14057TIP3    H163662   1.702   0.847   3.147 -1.2209  0.6053  0.9618
14057TIP3    H263663   1.600   0.764   3.073 -0.8006  0.4903  0.5037
14058TIP3   OH263664   1.214   5.302   2.393 -0.8081  0.7871  0.0003
14058TIP3    H163665   1.239   5.220   2.350  1.0015  0.8177  0.9234
14058TIP3    H263666   1.119   5.308   2.378 -1.1601 -1.8580  0.5483
14059TIP3   OH263667   5.751   1.995   3.299  0.0444  0.2408  0.0850
14059TIP3    H163668   5.819   2.005   3.365  0.0301  0.9778 -0.0042
14059TIP3    H263669   5.691   1.929   3.335 -0.4537  1.2736  1.2213
14060TIP3   OH263670   5.085   1.403   1.700 -0.2992 -0.1711  0.1588
14060TIP3    H163671   4.999   1.373   1.727 -0.1836 -0.5226  0.1429
14060TIP3    H263672   5.089   1.385   1.606 -0.0742 -0.4814  0.2284
14061TIP3   OH263673   1.571   6.813  14.776  0.1524 -0.2092 -0.0084
14061TIP3    H163674   1.629   6.887  14.792  1.0492 -0.9168  0.0935
14061TIP3    H263675   1.524   6.837  14.695 -0.4180  0.9532  0.6390
14062TIP3   OH263676   5.661   0.482   2.450 -0.1640  0.1499  0.0047
14062TIP3    H163677   5.580   0.509   2.407 -1.1466 -1.1091  0.9748
14062TIP3    H263678   5.674   0.391   2.423  0.4127  0.0537  0.5824
14063TIP3   OH263679   5.260   0.769  14.518 -0.0993  0.6609 -0.5386
14063TIP3    H163680   5.320   0.759  14.592  0.0778 -1.3462 -0.8940
14063TIP3    H263681   5.263   0.863  14.498 -0.0914  1.2466  1.8972
14064TIP3   OH263682   0.897   5.107   3.188  0.3923  0.4473 -0.0270
14064TIP3    H163683   0.813   5.144   3.159  0.4544  0.3694 -0.3149
14064TIP3    H263684   0.953   5.111   3.110  0.1689 -0.9149 -0.2970
14065TIP3   OH263685   1.965   3.916  15.208 -0.1907  0.2163 -0.2948
14065TIP3    H163686   1.923   3.835  15.238 -0.8780  0.2734 -1.0657
14065TIP3    H263687   2.032   3.934  15.274 -1.8185  0.4899  1.3350
14066TIP3   OH263688   1.590   4.272  11.588  0.4835  0.1688 -0.2348
14066TIP3    H163689   1.628   4.264  11.675  0.3547 -0.3398 -0.2238
14066TIP3    H263690   1.565   4.183  11.564 -0.8961  0.4941 -0.1467
14067TIP3   OH263691   3.148   2.876  10.749 -0.4014  0.7513 -0.5090
14067TIP3    H163692   3.214   2.880  10.818 -0.8416  0.5342 -0.0669
14067TIP3    H263693   3.198   2.861  10.669  0.0026 -0.5752 -0.0279
14068TIP3   OH263694   3.029   3.544   1.917 -0.2598 -0.9209  0.2529
14068TIP3    H163695   3.008   3.564   2.008 -1.2577  1.7760 -0.4609
14068TIP3    H263696   3.093   3.611   1.892 -1.8937  0.0529 -1.6560
14069TIP3   OH263697   0.481   4.761   3.598  0.7999  0.0101  0.6097
14069TIP3    H163698   0.526   4.706   3.534  1.2232 -0.4170  1.2525
14069TIP3    H263699   0.417   4.702   3.639  1.1569  0.0271  1.2014
14070TIP3   OH263700   1.313   2.806   0.522 -0.0895 -0.1541  0.0337
14070TIP3    H163701   1.350   2.838   0.605 -1.6356  1.4219  0.1781
14070TIP3    H263702   1.220   2.829   0.527 -0.5297 -1.4745 -1.4793
14071TIP3   OH263703   4.673   5.653   1.602  0.0160 -0.0125 -0.1118
14071TIP3    H163704   4.598   5.609   1.560 -0.1828 -1.3788  1.5440
14071TIP3    H263705   4.749   5.610   1.564 -0.1355 -0.6001  0.2313
14072TIP3   OH263706   4.914   4.363   5.916  0.1158 -0.0624 -0.7333
14072TIP3    H163707   4.951   4.282   5.880  0.4010 -1.2665  2.0554
14072TIP3    H263708   4.829   4.337   5.952 -0.0032  1.0104 -0.1995
14073TIP3   OH263709   2.782   1.846  13.760  0.7078  0.0192  0.4813
14073TIP3    H163710   2.752   1.901  13.833  1.2359  2.8286 -1.2789
14073TIP3    H263711   2.703   1.828  13.710  0.7826  0.6393  0.1377
14074TIP3   OH263712   1.833   0.708   1.531  0.3438  0.2193 -0.2632
14074TIP3    H163713   1.907   0.718   1.591  0.8456 -1.0110 -0.6323
14074TIP3    H263714   1.858   0.634   1.475 -1.4380 -0.6483  0.0141
14075TIP3   OH263715   0.073   6.541   0.954 -0.3741  0.2525 -0.0810
14075TIP3    H163716   0.100   6.631   0.937  2.0460 -0.5409 -0.8171
14075TIP3    H263717   0.002   6.525   0.892  0.8155  0.9198 -1.6691
14076TIP3   OH263718   3.062   6.683   4.092 -0.4602 -0.3915  0.3680
14076TIP3    H163719   3.152   6.696   4.061 -1.0980 -0.3298 -1.5932
14076TIP3    H263720   3.045   6.759   4.148 -0.0742  0.8941 -1.1849
14077TIP3   OH263721   4.142   4.307  14.208 -0.3094 -0.8332 -0.3989
14077TIP3    H163722   4.194   4.302  14.288  0.1426  1.4623 -0.4909
14077TIP3    H263723   4.061   4.259  14.230 -0.3449  0.0245  1.5655
14078TIP3   OH263724   0.277   6.246   0.264 -0.0540 -0.3644 -0.3928
14078TIP3    H163725   0.250   6.238   0.355  0.8795  0.5304 -0.0055
14078TIP3    H263726   0.325   6.166   0.246  0.3368 -0.2548  0.1253
14079TIP3   OH263727   2.246   1.875   1.515 -0.8733 -0.2668 -0.1361
14079TIP3    H163728   2.240   1.814   1.441 -0.9283  0.4063 -0.6968
14079TIP3    H263729   2.312   1.836   1.572 -1.3758 -1.1863 -0.1556
14080TIP3   OH263730   3.314   1.347  11.704  0.3372 -0.2125 -0.0538
14080TIP3    H163731   3.316   1.442  11.705  1.0175 -0.2072 -0.9073
14080TIP3    H263732   3.286   1.324  11.615 -2.7019 -0.8035  0.9116
14081TIP3   OH263733   1.868   3.792  11.235 -0.2043 -0.1090 -0.5641
14081TIP3    H163734   1.838   3.859  11.175 -0.3845 -0.1089 -0.4771
14081TIP3    H263735   1.879   3.714  11.181 -1.2761 -0.3635 -0.4441
14082TIP3   OH263736   5.439   3.902  13.720  0.0214 -0.2478 -0.0911
14082TIP3    H163737   5.404   3.814  13.708  0.6607 -0.3315 -1.5463
14082TIP3    H263738   5.445   3.937  13.631  0.7652  0.8704  0.3908
14083TIP3   OH263739   2.158   2.653  14.268 -0.1669  0.0399 -0.2157
14083TIP3    H163740   2.235   2.686  14.313  0.8652  0.1785 -1.9784
14083TIP3    H263741   2.092   2.721  14.280  0.4320  0.5627  0.1609
14084TIP3   OH263742   4.949   0.757   4.968  0.1470  0.4755  0.2583
14084TIP3    H163743   4.945   0.851   4.984 -1.9312  0.2652  1.2661
14084TIP3    H263744   5.041   0.735   4.980  0.9440  2.5643 -1.3308
14085TIP3   OH263745   4.699   0.334  12.666  0.5189  0.3232  0.3386
14085TIP3    H163746   4.758   0.409  12.668 -1.6473  2.1499  0.8679
14085TIP3    H263747   4.636   0.355  12.597 -0.1098 -1.0478  0.4615
14086TIP3   OH263748   5.834   1.466   1.206 -0.2090 -0.6534 -0.7458
14086TIP3    H163749   5.870   1.515   1.133 -0.9733  0.5253 -0.3469
14086TIP3    H263750   5.756   1.423   1.170  0.2202 -1.2535 -0.9818
14087TIP3   OH263751   0.461   0.730  11.024 -0.3161  0.0770  0.4785
14087TIP3    H163752   0.461   0.804  11.086 -1.9170 -0.0153  0.6389
14087TIP3    H263753   0.541   0.741  10.974  0.6874  0.5490  2.1134
14088TIP3   OH263754   4.467   6.532   3.829  0.2797 -0.0064 -0.3660
14088TIP3    H163755   4.483   6.627   3.834  0.9921  0.0520 -2.5595
14088TIP3    H263756   4.554   6.495   3.815  0.1038 -1.1038  1.2172
14089TIP3   OH263757   6.036   5.420   4.071 -0.0815  0.5903  0.3731
14089TIP3    H163758   5.983   5.498   4.091 -0.4063  0.4174  0.1915
14089TIP3    H263759   6.050   5.424   3.976  0.9248  1.0688  0.5267
14090TIP3   OH263760   5.447   2.636  13.652  0.4043  0.7425 -0.1349
14090TIP3    H163761   5.510   2.670  13.715  0.0876  0.6005  0.2669
14090TIP3    H263762   5.375   2.699  13.654 -0.6670 -0.4564  1.4043
14091TIP3   OH263763   2.666   5.053   5.623 -0.2721 -0.4001 -0.1222
14091TIP3    H163764   2.600   5.026   5.687  0.3620 -1.7237  0.0052
14091TIP3    H263765   2.643   5.005   5.544  0.9966 -1.5321  0.1637
14092TIP3   OH263766   5.218   0.660   4.933 -0.3492 -0.6211 -0.6613
14092TIP3    H163767   5.313   0.662   4.937 -0.3438  0.7592 -0.8378
14092TIP3    H263768   5.197   0.642   4.841 -0.2772 -1.5572 -0.5046
14093TIP3   OH263769   4.571   2.915   2.067  0.7482  0.6335 -0.1869
14093TIP3    H163770   4.509   2.892   1.997  0.5895  1.1969 -0.2354
14093TIP3    H263771   4.515   2.936   2.142  0.9042 -3.2838  1.2602
14094TIP3   OH263772   3.043   2.309   1.675 -0.8500  0.1302  0.2208
14094TIP3    H163773   3.128   2.337   1.640 -0.3831 -0.0106  1.2010
14094TIP3    H263774   3.008   2.250   1.608 -0.8203  1.2580 -0.8218
14095TIP3   OH263775   3.095   4.229   2.174 -0.0424  0.3536  0.0819
14095TIP3    H163776   3.175   4.267   2.140  0.2836 -1.8898 -1.9437
14095TIP3    H263777   3.025   4.264   2.119 -0.2513  0.8658  0.6520
14096TIP3   OH263778   1.343   0.983  12.644 -0.2048 -0.2385 -0.1619
14096TIP3    H163779   1.346   0.910  12.582  1.5872  0.8274 -1.4393
14096TIP3    H263780   1.306   1.056  12.595  0.9241  0.5360  0.0877
14097TIP3   OH263781   4.354   3.902  15.226 -0.4085 -0.3372 -0.1981
14097TIP3    H163782   4.389   3.855  15.150 -1.8796 -2.0563  0.1064
14097TIP3    H263783   4.331   3.988  15.193  2.1988  0.2142 -0.8318
14098TIP3   OH263784   4.802   2.987  15.999  0.0522  0.4432  0.5106
14098TIP3    H163785   4.727   3.013  16.053  0.4139 -1.1221  1.8585
14098TIP3    H263786   4.767   2.981  15.910 -1.8940 -1.8101  1.3264
14099TIP3   OH263787   5.667   4.347  12.319  0.4720  0.2469  0.1351
14099TIP3    H163788   5.758   4.370  12.342  0.6042  2.3447 -2.0080
14099TIP3    H263789   5.625   4.432  12.305 -1.3445 -0.7370 -0.6018
14100TIP3   OH263790   3.071   4.141   4.891  0.1541 -0.0971  0.3793
14100TIP3    H163791   3.142   4.106   4.837  0.3753  1.7511 -0.6297
14100TIP3    H263792   3.100   4.127   4.981  1.3502 -0.2469 -0.0083
14101TIP3   OH263793   5.884   5.756  12.988 -0.0702 -0.1624 -0.0476
14101TIP3    H163794   5.969   5.751  13.033 -0.1388 -1.2024 -0.0094
14101TIP3    H263795   5.898   5.709  12.906 -0.3316  0.5556 -0.5102
14102TIP3   OH263796   2.723   6.527   5.385  0.3755 -0.3873  0.1236
14102TIP3    H163797   2.819   6.533   5.384  0.4501 -0.7512  1.7035
14102TIP3    H263798   2.705   6.436   5.409 -0.4247 -0.8351 -2.0016
14103TIP3   OH263799   2.826   1.439   0.914  0.2617 -0.3037  0.4911
14103TIP3    H163800   2.852   1.374   0.849 -0.3192  0.5955 -0.6736
14103TIP3    H263801   2.777   1.505   0.865 -0.1562  0.4388  1.8318
14104TIP3   OH263802   3.154   3.638  12.518  0.3751 -0.0234 -0.7660
14104TIP3    H163803   3.070   3.671  12.486  0.8416 -0.3858 -2.4156
14104TIP3    H263804   3.175   3.695  12.592 -1.0795  0.3691 -0.6164
14105TIP3   OH263805   0.526   0.564   3.335 -0.0648 -0.4146 -0.0631
14105TIP3    H163806   0.446   0.602   3.371 -0.2122  0.4696 -1.2494
14105TIP3    H263807   0.537   0.481   3.382 -1.3782 -0.3031  0.4811
14106TIP3   OH263808   3.290   2.716   0.639 -0.2069  0.2307 -0.5161
14106TIP3    H163809   3.381   2.742   0.621  0.0040  1.0764  1.4531
14106TIP3    H263810   3.257   2.786   0.696 -2.0763 -0.1228 -1.1124
14107TIP3   OH263811   3.972   4.765  15.394  0.2827 -0.4901 -0.0267
14107TIP3    H163812   3.907   4.697  15.412 -1.1808  1.1543  1.3184
14107TIP3    H263813   3.951   4.794  15.305 -0.0794 -0.7425 -0.0274
14108TIP3   OH263814   5.355   5.312   1.337  0.3675  0.3631 -0.1020
14108TIP3    H163815   5.270   5.325   1.294  0.7518  0.2016 -0.9185
14108TIP3    H263816   5.339   5.338   1.428  0.1397  2.9841 -0.8247
14109TIP3   OH263817   5.440   5.558   4.335  0.0772  0.3522  0.7196
14109TIP3    H163818   5.397   5.475   4.315 -0.9788  1.2665 -0.9101
14109TIP3    H263819   5.534   5.538   4.327 -0.0910 -0.9852  1.6841
14110TIP3   OH263820   3.719   5.643  17.161 -0.3316  0.7868 -0.3895
14110TIP3    H163821   3.651   5.610  17.103 -0.8096  2.4509 -0.8274
14110TIP3    H263822   3.796   5.590  17.140 -1.2124 -0.4609 -0.5810
14111TIP3   OH263823   0.229   0.007   4.226  0.1043 -0.1694 -0.1907
14111TIP3    H163824   0.187   0.067   4.165  0.9207 -0.5627 -1.1708
14111TIP3    H263825   0.190   0.027   4.311  1.8334  3.2876 -0.0228
14112TIP3   OH263826   1.179   5.787  14.266 -0.1963  0.0023 -0.4204
14112TIP3    H163827   1.202   5.879  14.252  0.3374 -0.1646 -0.7000
14112TIP3    H263828   1.094   5.789  14.309 -2.5096  0.5663 -4.4739
14113TIP3   OH263829   1.433   4.734  14.831 -0.5313  0.3469  0.0227
14113TIP3    H163830   1.413   4.688  14.913  4.2931  0.1159  1.4333
14113TIP3    H263831   1.483   4.811  14.859  2.4819 -0.4266 -2.5690
14114TIP3   OH263832   0.798   5.539  14.268 -0.2612  0.0420  0.6117
14114TIP3    H163833   0.776   5.583  14.186 -0.1586 -1.2625 -0.1426
14114TIP3    H263834   0.778   5.604  14.336 -1.1716  0.8412 -0.3783
14115TIP3   OH263835   1.964   2.276  16.016 -0.2307 -0.5503  0.5069
14115TIP3    H163836   2.015   2.269  15.936 -0.6623 -1.1715  0.2772
14115TIP3    H263837   2.016   2.332  16.074 -0.2948  0.5754 -0.4943
14116TIP3   OH263838   5.968   6.012  16.658 -0.1070  0.1850  0.0240
14116TIP3    H163839   5.941   6.104  16.661  2.8305  1.1399  0.8951
14116TIP3    H263840   6.019   5.999  16.738  0.9797 -1.7144 -0.8975
14117TIP3   OH263841   0.280   6.348   6.802 -0.0196  0.1388  0.2669
14117TIP3    H163842   0.221   6.273   6.810 -0.9795  0.9265  0.7766
14117TIP3    H263843   0.368   6.310   6.811 -0.5388 -0.7224  2.3632
14118TIP3   OH263844   1.123   0.578  12.883  0.2774  0.2112 -0.4828
14118TIP3    H163845   1.217   0.590  12.873  0.3634 -1.0845 -1.3426
14118TIP3    H263846   1.094   0.658  12.928  1.8304  0.4359  0.1817
14119TIP3   OH263847   2.540   6.205   1.066  0.0156 -0.3646  0.0336
14119TIP3    H163848   2.607   6.259   1.108  0.5560  0.2957 -1.5876
14119TIP3    H263849   2.486   6.268   1.018 -0.8072 -1.0477  0.0494
14120TIP3   OH263850   4.819   4.441   4.538 -0.1379 -0.4640 -0.1492
14120TIP3    H163851   4.898   4.484   4.504  0.0447 -0.9978 -0.4232
14120TIP3    H263852   4.849   4.395   4.616  0.1022 -1.6581 -0.9212
14121TIP3   OH263853   2.705   6.092   3.157 -0.1843 -0.3301 -0.6666
14121TIP3    H163854   2.633   6.100   3.219  1.4254  0.8878  1.1945
14121TIP3    H263855   2.735   6.001   3.167 -0.1486 -0.2408  0.1401
14122TIP3   OH263856   0.595   0.156  14.408 -0.3850  0.1759  0.0830
14122TIP3    H163857   0.645   0.075  14.419 -1.2856 -0.1561  2.2174
14122TIP3    H263858   0.626   0.192  14.325  0.1219 -2.2766 -0.8646
14123TIP3   OH263859   2.526   5.833  13.109  0.3250 -0.0063 -0.4261
14123TIP3    H163860   2.492   5.779  13.038  1.2746 -2.3858  0.7956
14123TIP3    H263861   2.621   5.821  13.105  0.5219  1.2112  0.1955
14124TIP3   OH263862   0.568   3.707   3.106 -0.0486  0.4577 -0.3223
14124TIP3    H163863   0.662   3.714   3.088 -0.0989  2.1373 -0.0635
14124TIP3    H263864   0.552   3.612   3.110  1.5048  0.1264 -0.9744
14125TIP3   OH263865   6.048   6.139   6.152 -0.4341 -0.3188 -0.0365
14125TIP3    H163866   6.015   6.222   6.116 -2.2197 -1.5469 -1.4215
14125TIP3    H263867   6.107   6.166   6.223 -1.5780  2.1204  0.1166
14126TIP3   OH263868   0.162   0.058   1.403  0.1755  0.0182  0.3661
14126TIP3    H163869   0.120   0.023   1.325 -0.2579 -0.8322  0.9732
14126TIP3    H263870   0.138   0.151   1.404 -1.6590 -0.4233  0.6584
14127TIP3   OH263871   0.273   0.847   0.819 -0.3094 -0.1418  0.2818
14127TIP3    H163872   0.294   0.938   0.799  0.0896 -0.3487 -0.2905
14127TIP3    H263873   0.271   0.842   0.914 -1.5481  0.7318  0.3162
14128TIP3   OH263874   4.738   4.061   5.858 -0.0910 -0.2244  0.5800
14128TIP3    H163875   4.709   4.040   5.769  3.0186 -0.3797 -0.5284
14128TIP3    H263876   4.677   4.127   5.888 -0.6710  0.5965 -2.1024
14129TIP3   OH263877   5.185   3.679   4.404  0.0526 -0.3521 -0.2445
14129TIP3    H163878   5.209   3.708   4.316 -0.7363 -1.1564 -0.7467
14129TIP3    H263879   5.166   3.585   4.394 -2.2917 -0.0012  0.2800
14130TIP3   OH263880   1.945   0.676  15.696  0.2509 -0.2530 -0.0647
14130TIP3    H163881   1.954   0.744  15.630  0.7061  0.3742  0.6278
14130TIP3    H263882   1.886   0.612  15.657 -0.0340  0.4476 -0.8024
14131TIP3   OH263883   6.053   5.187  12.254  0.0210  0.6833 -0.1075
14131TIP3    H163884   5.999   5.236  12.316 -0.9346 -2.1438  1.5226
14131TIP3    H263885   5.999   5.179  12.175 -1.6758 -1.1874  1.1216
14132TIP3   OH263886   2.235   4.129  16.850  0.3314 -0.4288  0.2410
14132TIP3    H163887   2.175   4.134  16.775  2.3477  1.3276 -1.4273
14132TIP3    H263888   2.310   4.078  16.817  0.8827 -0.3648  1.3594
14133TIP3   OH263889   2.033   1.054   5.689 -0.5657  0.4566  0.0568
14133TIP3    H163890   1.985   1.136   5.701 -1.3850 -0.2841  2.4341
14133TIP3    H263891   2.123   1.075   5.712 -0.8525  0.6301  1.0726
14134TIP3   OH263892   5.972   0.724   6.423  0.0361  0.3518  0.0801
14134TIP3    H163893   6.041   0.775   6.465 -0.4321  1.2107 -0.1573
14134TIP3    H263894   5.948   0.776   6.346  1.5376 -1.6139 -1.8300
14135TIP3   OH263895   3.981   2.114   6.055 -0.1146 -0.3610 -0.0007
14135TIP3    H163896   3.934   2.104   6.138 -0.0490  1.0317  0.2308
14135TIP3    H263897   4.073   2.100   6.077 -0.0019  0.8188  0.3489
14136TIP3   OH263898   1.830   4.865   3.107 -0.1387  0.3908  0.0600
14136TIP3    H163899   1.806   4.831   3.021  1.3799 -0.8231  0.0554
14136TIP3    H263900   1.770   4.937   3.123 -2.4098 -1.2139 -0.7180
14137TIP3   OH263901   4.552   3.671  16.199  0.1358  0.0331 -0.3603
14137TIP3    H163902   4.486   3.697  16.134  0.0695  0.4482 -0.1269
14137TIP3    H263903   4.512   3.691  16.283  0.6928  0.6076 -0.2265
14138TIP3   OH263904   3.152   0.819   1.269 -0.6585 -0.1459  0.4669
14138TIP3    H163905   3.181   0.741   1.222 -0.7885  2.0977 -3.7494
14138TIP3    H263906   3.061   0.799   1.294 -0.6286 -1.4106 -0.3441
14139TIP3   OH263907   5.282   3.735  16.981 -0.3931  0.3522  0.5250
14139TIP3    H163908   5.364   3.757  17.026  0.4281 -0.0566 -0.7301
14139TIP3    H263909   5.234   3.818  16.977  0.8473  1.0561 -0.4975
14140TIP3   OH263910   0.065   2.912   5.388 -0.2483 -0.1726 -0.4034
14140TIP3    H163911   0.099   2.873   5.468 -2.1370  1.3152  1.2060
14140TIP3    H263912  -0.027   2.883   5.384 -0.9392  1.8677 -0.5772
14141TIP3   OH263913   5.849   1.134   5.046 -0.1136  0.4464 -0.1258
14141TIP3    H163914   5.934   1.098   5.072 -0.8145 -0.9142  0.4075
14141TIP3    H263915   5.831   1.096   4.960 -0.6624 -0.1710  0.2482
14142TIP3   OH263916   5.103   6.134  15.491 -0.0782  0.1767  0.0580
14142TIP3    H163917   5.169   6.202  15.504  0.1146  0.3761 -1.6520
14142TIP3    H263918   5.152   6.052  15.496 -0.0454  0.2277  0.6437
14143TIP3   OH263919   3.439   5.576  17.155  1.0736  0.2799  0.1428
14143TIP3    H163920   3.348   5.599  17.136  1.1447 -0.7337 -1.6598
14143TIP3    H263921   3.437   5.481  17.169  2.0170  0.0078 -1.3123
14144TIP3   OH263922   5.351   3.491  16.887 -0.2901 -0.1468 -0.0786
14144TIP3    H163923   5.418   3.494  16.819  1.5190 -2.2171  1.4464
14144TIP3    H263924   5.341   3.582  16.915  2.5225  0.1723  0.1685
14145TIP3   OH263925   5.090   6.564  12.221 -0.1508  0.0911  0.1428
14145TIP3    H163926   5.036   6.494  12.257 -0.7964  0.5003 -0.0040
14145TIP3    H263927   5.179   6.542  12.247  0.0476 -2.1414 -2.0268
14146TIP3   OH263928   4.165   5.548  11.436 -0.3980  0.2591  0.0598
14146TIP3    H163929   4.226   5.519  11.368  0.5896  1.1129  0.5549
14146TIP3    H263930   4.088   5.578  11.388 -0.6906 -1.3859 -0.5466
14147TIP3   OH263931   2.540   5.560   5.339 -0.0657  0.1205  0.1861
14147TIP3    H163932   2.559   5.653   5.346  1.1343  0.1722 -2.5292
14147TIP3    H263933   2.625   5.517   5.351 -0.0128 -0.3615 -1.6410
14148TIP3   OH263934   3.429   5.792   3.384 -0.3809  0.2949 -0.5417
14148TIP3    H163935   3.481   5.813   3.307 -0.4841 -0.9294 -0.9559
14148TIP3    H263936   3.450   5.701   3.404 -0.4147  0.5609  0.8356
14149TIP3   OH263937   5.994   0.135   5.452 -0.0771 -0.0539  0.1650
14149TIP3    H163938   5.931   0.068   5.426  0.2483 -0.1793 -0.3198
14149TIP3    H263939   5.943   0.216   5.459 -0.1719 -0.0086 -0.9094
14150TIP3   OH263940   3.015   5.494  16.743  0.3444  0.0040 -0.1470
14150TIP3    H163941   2.923   5.518  16.735 -0.0506 -1.1835  0.6325
14150TIP3    H263942   3.025   5.415  16.690  0.4442 -0.9667  1.2632
14151TIP3   OH263943   6.300   3.044  15.260 -0.2768 -0.2146  0.5348
14151TIP3    H163944   6.286   3.038  15.354  1.0508  0.0131  0.7708
14151TIP3    H263945   6.344   3.128  15.247 -1.2948  0.2039 -0.4144
14152TIP3   OH263946   6.773   3.700   5.251  0.2024  0.1858 -0.1424
14152TIP3    H163947   6.808   3.637   5.188  1.9777  1.1363 -0.1947
14152TIP3    H263948   6.795   3.663   5.337 -0.2431 -0.0519 -0.1286
14153TIP3   OH263949   3.116   3.169   3.134  0.7649  0.0503  0.4613
14153TIP3    H163950   3.182   3.229   3.169 -0.0031  0.5292  1.0915
14153TIP3    H263951   3.121   3.092   3.191  2.0486 -0.7018 -0.6022
14154TIP3   OH263952   6.456   4.877   3.044 -0.2159 -0.0258  0.3546
14154TIP3    H163953   6.453   4.794   2.997 -1.3101 -1.5354  2.8777
14154TIP3    H263954   6.526   4.866   3.108 -0.2401  1.0911  0.5941
14155TIP3   OH263955   3.230   6.230  15.784  0.1601 -0.0435  0.1966
14155TIP3    H163956   3.252   6.306  15.730  1.0114 -0.8874 -0.6726
14155TIP3    H263957   3.251   6.258  15.874  1.3596  0.4365 -0.2115
14156TIP3   OH263958   3.538   1.690  13.814 -0.5239 -0.6519 -0.3711
14156TIP3    H163959   3.477   1.735  13.756 -2.4992  1.1722  2.8180
14156TIP3    H263960   3.611   1.751  13.825 -2.7609  1.7245  3.1996
14157TIP3   OH263961   3.665   5.788  12.755  0.5508 -0.2674  0.1025
14157TIP3    H163962   3.730   5.801  12.823  0.8319 -2.1718  0.2521
14157TIP3    H263963   3.581   5.806  12.797  0.4814 -3.7847  1.7723
14158TIP3   OH263964   5.823   5.036  12.456  0.0952  0.3244  0.0287
14158TIP3    H163965   5.866   4.958  12.491  0.8947  0.9906  0.5729
14158TIP3    H263966   5.828   5.099  12.528 -1.7645  0.4395  0.0971
14159TIP3   OH263967   0.415   2.365  15.168 -0.4012  0.2544 -0.0123
14159TIP3    H163968   0.341   2.356  15.227 -1.3401  2.0402 -0.8431
14159TIP3    H263969   0.479   2.300  15.200 -3.0990 -2.9934 -0.6321
14160TIP3   OH263970   1.436   6.697  12.998 -0.0277 -0.9364  0.2622
14160TIP3    H163971   1.472   6.644  12.928 -0.5744 -0.4769 -0.3869
14160TIP3    H263972   1.494   6.773  13.004  0.0709 -1.0211  0.3643
14161TIP3   OH263973   3.403   3.589   3.352  0.2257 -0.4303  0.8178
14161TIP3    H163974   3.445   3.639   3.422  1.2665  1.7489 -1.2135
14161TIP3    H263975   3.476   3.547   3.307 -0.6022 -3.8876  2.3649
14162TIP3   OH263976   6.818   6.158  15.527  0.0024  0.0467  0.3093
14162TIP3    H163977   6.896   6.107  15.505 -0.9650 -0.9464 -0.9847
14162TIP3    H263978   6.823   6.234  15.469  0.0993  0.0668  0.3441
14163TIP3   OH263979   3.779   4.476  10.412 -0.2513 -0.6687 -0.3124
14163TIP3    H163980   3.807   4.527  10.336 -1.6365  1.1355  0.3257
14163TIP3    H263981   3.689   4.450  10.392 -0.9887  0.6523  1.0451
14164TIP3   OH263982   5.928   4.202  16.431  0.1175 -0.5480  0.2805
14164TIP3    H163983   5.843   4.195  16.388 -0.2628 -0.4858  1.0205
14164TIP3    H263984   5.986   4.237  16.363 -0.1281 -1.8229 -0.6428
14165TIP3   OH263985   0.879   0.700  15.978 -0.5017  0.0946  0.1284
14165TIP3    H163986   0.815   0.762  15.945 -1.3685 -1.2115 -0.7404
14165TIP3    H263987   0.843   0.669  16.060 -1.0832 -0.7388 -0.4253
14166TIP3   OH263988   2.491   3.920  16.974 -0.6537  0.0748 -0.4517
14166TIP3    H163989   2.477   3.899  16.882  3.4121  1.3917 -1.5988
14166TIP3    H263990   2.557   3.857  17.004 -0.9435  0.4895  1.2017
14167TIP3   OH263991   3.426   5.932   0.289 -0.1303  0.4442  0.1531
14167TIP3    H163992   3.505   5.985   0.298 -0.4403  0.7405  1.4199
14167TIP3    H263993   3.458   5.842   0.297  0.3511  0.4098 -1.6577
14168TIP3   OH263994   1.617   1.823  15.274  0.1806  0.3019 -0.3149
14168TIP3    H163995   1.626   1.743  15.223  0.4918 -0.3987  0.7989
14168TIP3    H263996   1.654   1.801  15.360 -0.6276  1.3313  0.3252
14169TIP3   OH263997   3.177   1.021  13.995  0.1759  0.3817  0.4595
14169TIP3    H163998   3.147   1.092  14.052 -1.3324  0.6559 -0.6062
14169TIP3    H263999   3.155   0.941  14.042  0.6818  0.6035  1.0837
14170TIP3   OH264000   6.523   3.688   5.614 -0.1473 -0.0091 -0.4968
14170TIP3    H164001   6.430   3.689   5.590 -0.1905 -2.9915 -0.8860
14170TIP3    H264002   6.523   3.694   5.709 -0.9660 -2.1531 -0.2951
14171TIP3   OH264003   6.356   6.486  15.324  0.2266 -0.4589 -0.2446
14171TIP3    H164004   6.395   6.468  15.410  0.9510  1.4895 -0.0945
14171TIP3    H264005   6.271   6.525  15.344 -1.3123 -3.3844 -0.5515
14172TIP3   OH264006   4.277   0.730   3.070 -0.5384  0.2890 -0.1733
14172TIP3    H164007   4.319   0.679   3.139 -0.5342 -0.0974 -0.4543
14172TIP3    H264008   4.323   0.703   2.990 -0.6261  0.6362 -0.3406
14173TIP3   OH264009   5.186   3.200   5.873 -0.0931  0.0498 -0.0482
14173TIP3    H164010   5.225   3.229   5.790 -0.6011  2.1459  0.3873
14173TIP3    H264011   5.260   3.194   5.933 -0.0051  0.8942 -0.0550
14174TIP3   OH264012   0.151   4.483  10.531 -0.1054  0.0834  0.3909
14174TIP3    H164013   0.109   4.556  10.486  1.8971  1.3689  0.4780
14174TIP3    H264014   0.229   4.521  10.572 -1.1419 -1.2587  3.9895
14175TIP3   OH264015   6.407   6.228   3.749 -0.1142  0.1018 -0.3283
14175TIP3    H164016   6.495   6.248   3.718 -0.5966  0.7864 -1.2977
14175TIP3    H264017   6.355   6.304   3.724 -1.1650 -0.6724 -0.5540
14176TIP3   OH264018   4.322   6.606  11.217  0.0584  0.0142  0.0308
14176TIP3    H164019   4.239   6.568  11.244  0.5328 -0.9793  0.1481
14176TIP3    H264020   4.385   6.576  11.284  0.5153  0.6989 -0.0860
14177TIP3   OH264021   6.434   6.651   1.329 -0.2718  0.0729 -0.1494
14177TIP3    H164022   6.466   6.614   1.246  1.1895 -1.4779  1.0383
14177TIP3    H264023   6.396   6.577   1.375 -0.1973  0.7211  0.9851
14178TIP3   OH264024   0.476   4.301   4.224 -0.2247 -0.3643 -0.0244
14178TIP3    H164025   0.552   4.314   4.282  0.6504 -0.4147 -1.1266
14178TIP3    H264026   0.461   4.387   4.185  1.3049 -0.9869 -2.1942
14179TIP3   OH264027   6.694   4.593  13.873 -0.0101  0.1468  0.5543
14179TIP3    H164028   6.710   4.608  13.780  1.3508 -1.5285  0.4764
14179TIP3    H264029   6.763   4.644  13.917  1.2976 -1.4793  0.4838
14180TIP3   OH264030   5.788   4.325   5.286 -0.4354 -0.4861  0.2508
14180TIP3    H164031   5.834   4.273   5.220  0.5026  1.6194 -0.8539
14180TIP3    H264032   5.841   4.317   5.365  0.3267 -0.2954 -0.2347
14181TIP3   OH264033   2.105   3.681   3.440 -0.3874 -0.7249  0.3056
14181TIP3    H164034   2.174   3.733   3.399 -1.1264 -1.6896 -2.4126
14181TIP3    H264035   2.123   3.591   3.412 -1.4132 -1.3489  1.5428
14182TIP3   OH264036   1.453   3.028  16.537  0.3592  0.2159  0.4394
14182TIP3    H164037   1.481   3.048  16.448 -0.9612 -1.3690 -0.3610
14182TIP3    H264038   1.415   3.110  16.569 -2.4517 -0.0636 -1.7885
14183TIP3   OH264039   0.224   0.013   2.683 -0.3523  0.3065  0.8088
14183TIP3    H164040   0.194  -0.039   2.758 -1.1565  1.6592  1.4598
14183TIP3    H264041   0.247  -0.052   2.617  0.5405 -0.9509  2.2649
14184TIP3   OH264042   4.760   5.864   3.613  0.5742  0.5787  0.4281
14184TIP3    H164043   4.753   5.793   3.550 -0.1184  0.2858  0.8264
14184TIP3    H264044   4.854   5.875   3.626  0.7212  0.4455 -0.4233
14185TIP3   OH264045   1.464   4.394   3.704 -0.1012 -0.1162 -0.1193
14185TIP3    H164046   1.464   4.302   3.678  2.1780  0.1226 -1.2184
14185TIP3    H264047   1.415   4.438   3.634 -1.8084 -0.5047  0.7618
14186TIP3   OH264048   1.484   0.413   4.490 -0.0088 -0.3977  0.0959
14186TIP3    H164049   1.524   0.325   4.490  0.5663 -0.2581  3.3431
14186TIP3    H264050   1.559   0.472   4.487 -0.1833 -0.0914  1.3186
14187TIP3   OH264051   4.620   0.949   3.299  0.2185 -0.0676  0.3581
14187TIP3    H164052   4.545   0.930   3.354  0.3704 -0.3102  0.4852
14187TIP3    H264053   4.609   0.892   3.223 -0.2797  0.6651 -0.1312
14188TIP3   OH264054   1.217   3.890   5.556 -0.3672  0.7732 -0.3477
14188TIP3    H164055   1.151   3.849   5.612 -0.4722 -0.0263 -1.0231
14188TIP3    H264056   1.228   3.978   5.591 -4.6299  2.4269 -2.4388
14189TIP3   OH264057   6.707   3.885  11.507  0.0699  0.2372  0.3300
14189TIP3    H164058   6.640   3.899  11.574 -2.0478  0.6830 -1.7491
14189TIP3    H264059   6.658   3.867  11.427  2.3775  2.0806 -1.6601
14190TIP3   OH264060   0.314   5.148  12.285  0.0539 -0.3593  0.1346
14190TIP3    H164061   0.402   5.180  12.306  0.2022 -0.3555 -0.4959
14190TIP3    H264062   0.304   5.165  12.192 -1.0357  0.6481  0.4166
14191TIP3   OH264063   5.237   1.394   3.390  0.3759  0.3695 -0.4300
14191TIP3    H164064   5.224   1.461   3.322  0.2930 -1.2086 -2.0443
14191TIP3    H264065   5.173   1.415   3.457 -0.3656  1.2910 -1.3881
14192TIP3   OH264066   1.363   1.277  15.446  0.0466 -0.6737 -0.1700
14192TIP3    H164067   1.417   1.324  15.382 -0.6078 -1.1190 -1.0726
14192TIP3    H264068   1.292   1.338  15.467  0.1551 -0.6022 -0.0034
14193TIP3   OH264069   0.178   3.798   2.224  0.5768 -1.0560 -0.4887
14193TIP3    H164070   0.269   3.827   2.226  0.6223 -1.2370  0.3174
14193TIP3    H264071   0.127   3.878   2.238  0.6155 -0.9977 -0.6720
14194TIP3   OH264072   2.999   5.914   2.228 -0.4198 -0.0277  0.2833
14194TIP3    H164073   3.014   5.821   2.212  2.5538  0.4932 -0.4141
14194TIP3    H264074   2.958   5.916   2.314  0.9300 -1.9287  1.0577
14195TIP3   OH264075   3.062   6.279   3.976 -0.3876  0.5020  0.0671
14195TIP3    H164076   3.117   6.327   3.914  0.3778 -1.4768 -0.8642
14195TIP3    H264077   2.980   6.329   3.977 -0.2447  0.9207 -2.1682
14196TIP3   OH264078   1.509   4.751   4.861 -0.3622 -0.3122  0.1607
14196TIP3    H164079   1.451   4.684   4.826  0.4906 -0.5189 -0.9091
14196TIP3    H264080   1.588   4.703   4.888 -0.8636 -0.1255  2.1829
14197TIP3   OH264081   0.813   6.610  14.176 -0.1239 -0.2148 -0.0869
14197TIP3    H164082   0.754   6.589  14.104 -0.7932 -0.4060  0.5022
14197TIP3    H264083   0.868   6.681  14.142  0.0383 -0.7773 -1.0171
14198TIP3   OH264084   0.250   4.818  11.419  0.5097  0.4462 -0.1208
14198TIP3    H164085   0.298   4.766  11.483 -0.4829 -1.0048 -0.5008
14198TIP3    H264086   0.290   4.796  11.335 -2.5466 -3.2072 -0.8962
14199TIP3   OH264087   2.889   0.636   1.524  0.2760 -0.0272 -0.1710
14199TIP3    H164088   2.976   0.676   1.524  1.2746 -2.0433 -1.1241
14199TIP3    H264089   2.851   0.661   1.608  1.9480  0.5443  0.4661
14200TIP3   OH264090   2.882   5.117  11.051 -0.3105 -0.6642 -0.2742
14200TIP3    H164091   2.969   5.112  11.010 -0.0955 -0.0249  0.0834
14200TIP3    H264092   2.827   5.060  10.997  0.7939 -2.7750  0.7388
14201TIP3   OH264093   1.505   1.318  17.092  0.0003 -0.0653 -0.3314
14201TIP3    H164094   1.567   1.370  17.041 -0.4472  1.0147  0.1854
14201TIP3    H264095   1.421   1.365  17.084 -0.0818  0.1576  1.3635
14202TIP3   OH264096   4.455   0.844   6.161 -1.0894 -0.9790 -0.0335
14202TIP3    H164097   4.537   0.874   6.124 -1.8946  2.1107  0.3214
14202TIP3    H264098   4.406   0.807   6.088 -0.0722 -1.2407 -0.5868
14203TIP3   OH264099   5.396   6.235  13.177 -0.6758  0.1663  0.2822
14203TIP3    H164100   5.426   6.289  13.103 -1.2172 -0.3120 -0.2935
14203TIP3    H264101   5.373   6.299  13.245 -1.6653  0.6973 -0.5247
14204TIP3   OH264102   2.190   1.230   4.354  0.1491 -0.0238 -0.4484
14204TIP3    H164103   2.278   1.253   4.324  0.2111  0.9392  0.4149
14204TIP3    H264104   2.135   1.240   4.276  0.5689  0.7822 -0.6579
14205TIP3   OH264105   3.151   0.188  11.244 -0.0422 -0.9062 -0.0004
14205TIP3    H164106   3.125   0.101  11.213 -1.8887 -0.7342  0.9285
14205TIP3    H264107   3.089   0.248  11.202 -0.1566 -0.2845  1.0144
14206TIP3   OH264108   4.274   0.342  14.468  0.3085  0.3847  0.3544
14206TIP3    H164109   4.321   0.259  14.458 -1.2360 -0.5125  0.2658
14206TIP3    H264110   4.233   0.336  14.555 -0.3390  0.7750  0.0835
14207TIP3   OH264111   4.126   5.295   5.961  0.1974 -0.7698 -0.4861
14207TIP3    H164112   4.066   5.291   5.886  1.4107 -0.9342 -1.4746
14207TIP3    H264113   4.179   5.373   5.944  0.7748 -1.0577 -0.0068
14208TIP3   OH264114   4.314   5.953   0.785  0.1042  0.1891  0.3532
14208TIP3    H164115   4.315   5.871   0.835  2.3454  0.2720  0.5492
14208TIP3    H264116   4.389   6.002   0.818  0.3921  1.1737 -1.6221
14209TIP3   OH264117   0.767   0.783   1.950  0.1001  0.2706  0.1977
14209TIP3    H164118   0.741   0.860   1.900 -4.3717 -0.5998  0.7594
14209TIP3    H264119   0.758   0.809   2.042  2.3173  0.0835  0.5269
14210TIP3   OH264120   0.254   5.468   5.036  0.3030  0.2098  0.3422
14210TIP3    H164121   0.243   5.459   5.131 -0.8169 -1.6012  0.0786
14210TIP3    H264122   0.176   5.514   5.007  0.1222 -0.1984  0.1760
14211TIP3   OH264123   1.233   4.369  13.961 -0.0954  0.0674 -0.3279
14211TIP3    H164124   1.174   4.385  14.035  0.6770  0.6777  0.1712
14211TIP3    H264125   1.278   4.453  13.948 -1.1381  0.3777 -2.3316
14212TIP3   OH264126   2.385   5.191   0.102  0.2600 -0.3073 -0.3979
14212TIP3    H164127   2.396   5.262   0.165 -0.5528 -0.2341 -0.3267
14212TIP3    H264128   2.469   5.145   0.103  0.0281 -0.7599  1.2803
14213TIP3   OH264129   3.463   2.987   4.099  0.1698 -0.5211 -0.3331
14213TIP3    H164130   3.538   3.037   4.129 -0.2224 -0.5781  0.7647
14213TIP3    H264131   3.402   2.987   4.173  0.4321 -3.1821 -0.0173
14214TIP3   OH264132   1.643   5.834   1.583  0.0780  0.0459  0.1487
14214TIP3    H164133   1.648   5.779   1.505  1.1883 -0.5659  0.6214
14214TIP3    H264134   1.697   5.789   1.648 -0.7018  0.6172  1.2327
14215TIP3   OH264135   0.920   3.566  14.384 -0.4899 -0.0158  0.6440
14215TIP3    H164136   0.887   3.502  14.447  1.6965 -1.1757  0.6843
14215TIP3    H264137   0.923   3.518  14.301 -3.7559  1.6086 -0.5919
14216TIP3   OH264138   6.086   3.197   0.972 -0.2078  0.5216  0.3865
14216TIP3    H164139   6.078   3.242   0.888 -0.2447  0.5100  0.3838
14216TIP3    H264140   6.135   3.257   1.027  0.7710  0.0773  0.0207
14217TIP3   OH264141   6.417   5.248   4.282  0.3365  0.5573  0.7890
14217TIP3    H164142   6.341   5.306   4.289 -2.3372 -1.8307 -3.8155
14217TIP3    H264143   6.397   5.175   4.341 -0.9778  0.0530 -0.2272
14218TIP3   OH264144   5.897   2.102   0.697 -0.3979 -0.6414  0.5076
14218TIP3    H164145   5.815   2.133   0.736 -1.4398 -1.7779 -0.6803
14218TIP3    H264146   5.927   2.175   0.643 -2.1491 -1.1238 -1.2509
14219TIP3   OH264147   4.474   4.105  14.772 -0.3394 -0.1801  0.0151
14219TIP3    H164148   4.398   4.082  14.825  0.6241 -2.4689  0.5347
14219TIP3    H264149   4.459   4.062  14.688 -0.2249  0.5123 -0.3717
14220TIP3   OH264150   3.781   4.910  15.079 -0.6181  0.1650 -0.1309
14220TIP3    H164151   3.830   4.948  15.006  0.0365  0.5546  0.5009
14220TIP3    H264152   3.730   4.839  15.039 -1.2490  1.1842 -1.1900
14221TIP3   OH264153   1.889   1.667   3.959  0.3154  0.1021  0.0058
14221TIP3    H164154   1.834   1.686   4.034 -0.6496 -2.1297 -0.0880
14221TIP3    H264155   1.898   1.752   3.914 -2.7497  0.6429  0.2062
14222TIP3   OH264156   1.045   4.508   3.045  0.1266  0.1343 -0.0514
14222TIP3    H164157   1.120   4.475   2.995  0.3994  0.2752  0.2633
14222TIP3    H264158   1.035   4.598   3.017 -0.4813 -0.1417 -0.7473
14223TIP3   OH264159   1.272   3.430   0.666 -0.2213  0.1363 -0.1176
14223TIP3    H164160   1.256   3.395   0.579  0.3550 -1.7004  0.4630
14223TIP3    H264161   1.367   3.440   0.671 -0.2349  0.0619  0.3543
14224TIP3   OH264162   6.581   2.835  16.425  0.0478  0.0210 -0.0465
14224TIP3    H164163   6.560   2.857  16.335 -2.7810  0.3903  0.6042
14224TIP3    H264164   6.640   2.905  16.454 -2.1620  2.2183 -0.5012
14225TIP3   OH264165   3.556   1.047   0.643  0.7325 -0.2479 -0.0783
14225TIP3    H164166   3.519   1.117   0.697  2.3432  0.2487  0.4277
14225TIP3    H264167   3.493   0.975   0.652  0.1683  0.3645  1.1909
14226TIP3   OH264168   3.397   0.790   3.855 -0.1204  0.1017  0.3786
14226TIP3    H164169   3.394   0.715   3.913 -2.1642  0.3671  0.6662
14226TIP3    H264170   3.360   0.759   3.772 -0.7407  0.7235  0.4162
14227TIP3   OH264171   5.740   1.112   3.071 -0.1666 -0.4152 -0.2750
14227TIP3    H164172   5.709   1.057   2.999 -0.0564  0.6915 -1.2022
14227TIP3    H264173   5.723   1.202   3.042  0.8852  0.0991  0.6148
14228TIP3   OH264174   4.131   6.213  16.764  0.2841 -0.0174  0.4753
14228TIP3    H164175   4.219   6.193  16.732 -0.0909 -1.4324  0.2333
14228TIP3    H264176   4.131   6.185  16.855  0.3684  0.9187  0.7723
14229TIP3   OH264177   0.149   0.285  16.295 -0.5199 -0.6754  0.0043
14229TIP3    H164178   0.127   0.265  16.204 -0.7926  3.1461 -0.9710
14229TIP3    H264179   0.230   0.336  16.289 -1.9156  1.9263  1.5024
14230TIP3   OH264180   3.934   6.586  14.856  0.2657 -0.6077 -0.4580
14230TIP3    H164181   3.886   6.577  14.774  0.0385 -0.5188 -0.3348
14230TIP3    H264182   3.950   6.496  14.885 -1.0710 -0.6489  0.2278
14231TIP3   OH264183   3.807   6.433  10.672  0.1110 -0.0805 -0.0435
14231TIP3    H164184   3.834   6.525  10.674 -0.1293 -0.0044 -0.1836
14231TIP3    H264185   3.714   6.436  10.696 -0.2359 -0.1501 -1.3320
14232TIP3   OH264186   3.184   0.792  14.927  0.6453 -0.8887 -0.6446
14232TIP3    H164187   3.139   0.817  14.846  1.1238 -0.0100 -0.6420
14232TIP3    H264188   3.197   0.697  14.918  0.4573 -0.8457 -1.4725
14233TIP3   OH264189   2.876   5.431   2.209 -0.3549 -0.3794  0.5227
14233TIP3    H164190   2.867   5.354   2.266  0.2557  1.0145  2.6083
14233TIP3    H264191   2.807   5.491   2.238  0.6431  0.7886  0.5750
14234TIP3   OH264192   4.214   2.809   3.968  0.0065 -0.2254  0.2455
14234TIP3    H164193   4.288   2.869   3.966  1.4130 -1.8586  0.5729
14234TIP3    H264194   4.222   2.763   4.052 -1.1699 -0.6794  0.1264
14235TIP3   OH264195   6.193   2.876   0.098 -0.0940 -0.2195  0.1812
14235TIP3    H164196   6.265   2.939   0.098  0.2912 -0.6487 -0.5299
14235TIP3    H264197   6.198   2.833   0.012 -1.7536  0.3826 -0.2736
14236TIP3   OH264198   4.343   1.844  15.578  0.1049 -0.6837  0.4358
14236TIP3    H164199   4.259   1.887  15.560  0.4303 -0.1107  0.2757
14236TIP3    H264200   4.401   1.875  15.508  0.6275 -0.5800  0.9080
14237TIP3   OH264201   2.128   5.127  16.026 -0.4546 -0.3844 -0.4786
14237TIP3    H164202   2.114   5.044  16.073  1.3207  0.1124  1.0356
14237TIP3    H264203   2.223   5.140  16.027 -0.6835  1.6586 -0.7170
14238TIP3   OH264204   6.764   4.022  15.454  0.1721  0.2485 -0.1114
14238TIP3    H164205   6.815   4.103  15.451  0.1438  0.2522 -2.3663
14238TIP3    H264206   6.673   4.051  15.457  0.1871  0.2924 -0.0823
14239TIP3   OH264207   0.647   6.469  16.475 -0.1609  0.3958 -0.4720
14239TIP3    H164208   0.699   6.398  16.437 -1.6993 -0.1988 -1.5847
14239TIP3    H264209   0.711   6.533  16.504  1.2987 -1.5092  0.7369
14240TIP3   OH264210   0.748   3.481   4.651 -0.1466 -0.0362 -0.5595
14240TIP3    H164211   0.829   3.460   4.698  1.6087  0.6385 -3.0502
14240TIP3    H264212   0.763   3.569   4.617 -3.4989  1.6840  1.8732
14241TIP3   OH264213   4.763   3.277   0.209 -0.3825 -0.3212  0.0937
14241TIP3    H164214   4.801   3.295   0.123  1.5608 -0.8618  0.7916
14241TIP3    H264215   4.793   3.348   0.264  0.8131 -1.4857  0.9956
14242TIP3   OH264216   5.081   4.507   2.626 -0.0540 -0.1597 -0.1413
14242TIP3    H164217   5.084   4.577   2.560  0.9475  0.5217  0.6046
14242TIP3    H264218   4.990   4.478   2.625 -0.2202  0.3227 -1.3187
14243TIP3   OH264219   2.870   4.653   5.221  0.5397 -0.5022  0.5562
14243TIP3    H164220   2.937   4.609   5.273 -0.1407  0.2250  2.1168
14243TIP3    H264221   2.787   4.615   5.252  0.0065  1.1105  1.2032
14244TIP3   OH264222   4.481   5.786   3.606 -0.7509 -0.2941 -0.4306
14244TIP3    H164223   4.500   5.879   3.614 -2.6566  0.3627 -2.4361
14244TIP3    H264224   4.561   5.742   3.634  0.5944  1.9617 -0.5087
14245TIP3   OH264225   1.107   6.780   2.870  0.3870  0.1156 -0.0584
14245TIP3    H164226   1.052   6.762   2.945  1.4585 -0.2703  0.6570
14245TIP3    H264227   1.195   6.754   2.897  0.5718 -1.4750 -1.9517
14246TIP3   OH264228   5.327   0.962  10.963  0.0964 -0.1405 -0.2054
14246TIP3    H164229   5.331   0.980  10.869  1.3804  1.2789  0.0760
14246TIP3    H264230   5.277   1.036  10.999 -0.1115 -0.5072  0.2737
14247TIP3   OH264231   0.608   3.819   0.584 -0.2832  0.2603  0.1381
14247TIP3    H164232   0.590   3.796   0.675  1.3099 -1.7918  0.0181
14247TIP3    H264233   0.522   3.832   0.544 -1.0223  0.3527  1.7157
14248TIP3   OH264234   4.041   3.260  10.809 -0.0205  0.2382  0.1614
14248TIP3    H164235   4.017   3.198  10.740 -0.4563 -0.2754  0.7718
14248TIP3    H264236   4.135   3.247  10.821 -0.0982 -0.2527  0.2413
14249TIP3   OH264237   5.774   1.057   5.506  0.3561  0.0485  0.0457
14249TIP3    H164238   5.814   1.144   5.505  0.1376  0.1587 -1.6743
14249TIP3    H264239   5.708   1.060   5.437  0.0082 -1.3458  0.2800
14250TIP3   OH264240   3.071   5.013  13.637 -0.2869  0.0381 -0.3944
14250TIP3    H164241   3.049   4.986  13.548 -0.6349 -1.0232  0.0075
14250TIP3    H264242   3.019   4.956  13.693  0.3591  0.3218  0.5074
14251TIP3   OH264243   3.092   2.279   5.614 -0.0639  0.3593  0.3843
14251TIP3    H164244   3.029   2.268   5.543 -1.3894  0.9976  1.3939
14251TIP3    H264245   3.107   2.373   5.619 -0.0097  0.3265  0.9439
14252TIP3   OH264246   2.133   0.330   2.140  0.0626 -0.1037 -0.4523
14252TIP3    H164247   2.143   0.327   2.235  0.9873 -2.0762 -0.5662
14252TIP3    H264248   2.096   0.245   2.117  1.1393 -0.2118 -1.9722
14253TIP3   OH264249   6.586   3.285   3.553  0.8266 -0.2355 -0.4411
14253TIP3    H164250   6.602   3.379   3.550  0.2925 -0.1534 -2.6349
14253TIP3    H264251   6.673   3.245   3.552  1.0470  0.2467 -1.1629
14254TIP3   OH264252   5.702   3.322  12.577  0.6577 -0.1988  0.3141
14254TIP3    H164253   5.693   3.228  12.559  3.0561 -0.6017  0.7826
14254TIP3    H264254   5.712   3.362  12.491  2.6786 -0.8547  0.1741
14255TIP3   OH264255   4.034   4.948   4.178 -0.3693 -0.0699  0.0321
14255TIP3    H164256   4.064   4.975   4.265  2.1856  2.1515 -1.4009
14255TIP3    H264257   3.939   4.937   4.188 -0.4206  1.8595  2.6978
14256TIP3   OH264258   3.913   1.806  15.030  0.1213  0.3114 -0.7330
14256TIP3    H164259   3.981   1.866  15.000  0.0855  1.4592  1.2914
14256TIP3    H264260   3.837   1.862  15.047 -0.4792 -0.5599 -0.4779
14257TIP3   OH264261   2.902   6.248  12.543 -0.6880 -0.2059  0.6857
14257TIP3    H164262   2.979   6.305  12.554 -0.2968 -0.5111 -0.3833
14257TIP3    H264263   2.835   6.305  12.506 -1.0190  0.0834  1.7063
14258TIP3   OH264264   0.497   2.483   1.805 -0.2325  0.2792 -0.2411
14258TIP3    H164265   0.420   2.508   1.754  0.1182 -0.0795 -0.9616
14258TIP3    H264266   0.557   2.445   1.741 -0.4854 -1.8349  0.6930
14259TIP3   OH264267   0.763   1.456   0.420  0.5105 -0.1303 -0.0642
14259TIP3    H164268   0.768   1.536   0.367 -0.6368 -1.2777 -2.0323
14259TIP3    H264269   0.787   1.386   0.360 -0.8522 -1.5017  0.9178
14260TIP3   OH264270   1.012   0.610  15.364 -0.1343 -0.7397  0.0153
14260TIP3    H164271   0.972   0.545  15.422  0.1804 -0.9571 -0.0104
14260TIP3    H264272   1.052   0.558  15.294 -1.0393 -0.4512 -0.7301
14261TIP3   OH264273   3.556   2.293   1.023 -0.1733  0.0443  0.0126
14261TIP3    H164274   3.584   2.211   1.064  1.3849  0.4813 -0.1112
14261TIP3    H264275   3.487   2.327   1.081 -0.3083 -0.9754  0.4630
14262TIP3   OH264276   2.752   1.062  12.900 -0.4623 -1.0853 -0.4719
14262TIP3    H164277   2.756   1.134  12.964  0.7032  0.2303 -1.9537
14262TIP3    H264278   2.725   0.986  12.952 -0.2940  0.0892  1.4440
14263TIP3   OH264279   2.406   6.219  16.688  0.6511  0.2888  0.2729
14263TIP3    H164280   2.345   6.257  16.624  1.5799  1.8548  0.2566
14263TIP3    H264281   2.385   6.125  16.688 -0.1060  0.4072 -1.5151
14264TIP3   OH264282   5.095   1.406   4.804  0.0970  0.0509 -0.0468
14264TIP3    H164283   5.058   1.428   4.890  1.5506 -0.3942  0.7348
14264TIP3    H264284   5.107   1.490   4.760  1.2611  0.4885  1.0374
14265TIP3   OH264285   2.129   4.318   0.785 -0.5422  0.2487 -0.1998
14265TIP3    H164286   2.093   4.397   0.744 -0.2327  1.3067  1.4816
14265TIP3    H264287   2.136   4.341   0.877 -0.4616 -1.7763  0.3273
14266TIP3   OH264288   5.241   4.273  15.932  0.0975  0.7919  0.3114
14266TIP3    H164289   5.329   4.256  15.965  0.0158  0.3965  0.3310
14266TIP3    H264290   5.231   4.368  15.937  0.1831  0.7619  1.1808
14267TIP3   OH264291   3.729   6.595   3.060  0.0932  0.6161 -0.2604
14267TIP3    H164292   3.698   6.558   3.143 -1.1548 -2.3664 -1.8701
14267TIP3    H264293   3.822   6.573   3.057  0.3037  1.3594  0.6290
14268TIP3   OH264294   4.431   1.145   2.924 -0.4383  0.2951  0.3550
14268TIP3    H164295   4.451   1.137   2.830  0.5254 -1.8267  0.7018
14268TIP3    H264296   4.360   1.082   2.938  0.3500 -0.3902  1.3057
14269TIP3   OH264297   0.069   4.129  12.345 -0.0033 -0.3439  0.0341
14269TIP3    H164298   0.116   4.087  12.418  0.5991 -1.2881 -0.8577
14269TIP3    H264299   0.093   4.221  12.351 -0.8429 -0.1943  1.6766
14270TIP3   OH264300   2.403   0.690  14.379  0.5617 -0.8252  0.2969
14270TIP3    H164301   2.431   0.623  14.317  0.3151 -0.0417 -0.6885
14270TIP3    H264302   2.481   0.744  14.392  0.1194  0.1531 -0.8695
14271TIP3   OH264303   6.392   0.699   4.029  0.1073  0.0880  0.3258
14271TIP3    H164304   6.323   0.661   3.975  0.8692 -4.5397  2.0991
14271TIP3    H264305   6.346   0.734   4.105 -0.5414  1.1938 -0.5519
14272TIP3   OH264306   3.163   0.754   1.587 -0.3333 -0.1732  0.2069
14272TIP3    H164307   3.207   0.767   1.671  1.4459 -0.7511 -0.5896
14272TIP3    H264308   3.230   0.774   1.522 -1.1151 -1.5207 -1.0706
14273TIP3   OH264309   1.680   0.373  17.072  0.4762 -0.2546 -0.4396
14273TIP3    H164310   1.696   0.466  17.056 -1.5885  0.3684  0.7216
14273TIP3    H264311   1.698   0.361  17.165  2.5640 -1.5015 -0.9419
14274TIP3   OH264312   1.589   6.072   3.435 -0.4914  0.0193 -0.1780
14274TIP3    H164313   1.612   6.160   3.465 -0.4640  0.5468 -1.6823
14274TIP3    H264314   1.567   6.024   3.515 -1.1770  1.5925  0.6051
14275TIP3   OH264315   5.196   4.160  14.725 -0.2717 -0.0185 -0.2693
14275TIP3    H164316   5.215   4.252  14.705  0.3019 -0.2924 -1.0280
14275TIP3    H264317   5.269   4.112  14.688  1.0163 -0.5764  2.7054
14276TIP3   OH264318   2.323   2.865  14.111 -0.4232  0.3143 -0.0396
14276TIP3    H164319   2.232   2.850  14.084 -0.7279 -0.8970  1.5062
14276TIP3    H264320   2.316   2.928  14.182 -0.0343  0.2803  0.0294
14277TIP3   OH264321   4.198   4.294  11.059  0.1340  0.6826  0.6438
14277TIP3    H164322   4.258   4.257  10.994  0.5463 -0.0470  1.4246
14277TIP3    H264323   4.243   4.373  11.089  0.7687  0.0935  1.2890
14278TIP3   OH264324   5.862   1.785  13.728  0.0240  0.0603  0.1524
14278TIP3    H164325   5.927   1.725  13.691  2.2329  1.9458  0.7167
14278TIP3    H264326   5.904   1.820  13.807 -1.9251  0.9578  0.8568
14279TIP3   OH264327   1.914   1.380  13.019  0.7065 -0.1518 -0.2177
14279TIP3    H164328   1.952   1.467  13.008  0.5825  0.1631  1.5533
14279TIP3    H264329   1.957   1.345  13.097 -0.5954 -0.9189  0.1890
14280TIP3   OH264330   1.512   2.743  11.565 -0.3722  0.0498 -0.3384
14280TIP3    H164331   1.555   2.803  11.504  0.3941  1.8682  1.8311
14280TIP3    H264332   1.572   2.669  11.572 -0.0320  0.2434 -1.1167
14281TIP3   OH264333   1.406   1.450  11.663 -0.3353  0.6217 -0.2416
14281TIP3    H164334   1.497   1.473  11.678 -1.0972  3.6590  0.4086
14281TIP3    H264335   1.407   1.399  11.581  2.1384 -2.0268  1.2392
14282TIP3   OH264336   1.244   5.783   3.300  0.0275  0.4657 -0.0430
14282TIP3    H164337   1.159   5.768   3.258  0.7989 -3.3134 -0.5861
14282TIP3    H264338   1.307   5.786   3.228  1.0192 -3.3400  0.4625
14283TIP3   OH264339   0.977   5.501   1.477 -0.5086 -0.1211  0.0187
14283TIP3    H164340   0.904   5.556   1.506  1.9787  2.6000  1.5938
14283TIP3    H264341   1.031   5.489   1.555  0.7167 -2.1785 -1.0554
14284TIP3   OH264342   0.096   4.165   1.961  0.1712  0.2655  0.1449
14284TIP3    H164343   0.024   4.219   1.993  0.3622  1.2552 -1.0059
14284TIP3    H264344   0.164   4.175   2.028 -0.2631  0.4288  0.5696
14285TIP3   OH264345   3.290   3.263  11.595  0.2260 -0.0132 -0.0924
14285TIP3    H164346   3.317   3.228  11.510  1.8463 -0.2015  0.4740
14285TIP3    H264347   3.256   3.350  11.575 -0.8680 -0.6476 -1.1108
14286TIP3   OH264348   2.661   0.605   2.723 -0.0947  0.4728 -0.1037
14286TIP3    H164349   2.746   0.629   2.686 -0.3670  1.9315  0.1193
14286TIP3    H264350   2.656   0.510   2.713  1.8138  0.2698  0.4462
14287TIP3   OH264351   3.856   3.941   0.935  0.4100  0.0966 -0.5012
14287TIP3    H164352   3.936   3.993   0.927  0.8906 -0.1410  1.8819
14287TIP3    H264353   3.815   3.973   1.016  0.7717 -3.1844  1.1364
14288TIP3   OH264354   6.229   3.598  12.050  0.2489  0.2863  0.6335
14288TIP3    H164355   6.148   3.630  12.011 -1.1568 -0.3429  2.7921
14288TIP3    H264356   6.200   3.552  12.129  2.4599 -2.6229 -0.0785
14289TIP3   OH264357   2.567   1.196  12.730  0.0889 -0.6067 -0.4505
14289TIP3    H164358   2.606   1.128  12.784 -0.3124 -0.3320  0.1992
14289TIP3    H264359   2.494   1.230  12.782 -0.0973 -0.1009 -1.0193
14290TIP3   OH264360   6.329   3.962   0.791  0.0726 -0.5211 -0.1723
14290TIP3    H164361   6.343   4.000   0.878 -1.5343  0.6729 -0.3869
14290TIP3    H264362   6.317   3.869   0.808  0.6224 -0.4376  0.7819
14291TIP3   OH264363   5.268   4.067   3.362 -0.0460  0.2731 -0.2529
14291TIP3    H164364   5.291   4.076   3.269  1.3598  1.6675  0.1900
14291TIP3    H264365   5.172   4.059   3.363 -0.0977  0.4600 -1.8011
14292TIP3   OH264366   0.663   1.995  12.592  0.5636 -0.0213 -0.1507
14292TIP3    H164367   0.696   1.959  12.674 -0.4813 -0.9009 -0.0780
14292TIP3    H264368   0.568   2.001  12.606  0.2121 -1.3582 -1.7060
14293TIP3   OH264369   0.057   1.995   4.699  0.2676 -0.0989 -0.0556
14293TIP3    H164370   0.085   2.034   4.781  0.2688  0.4802 -0.3256
14293TIP3    H264371  -0.037   1.979   4.710 -0.1982  1.9059 -0.6622
14294TIP3   OH264372   5.182   5.694  15.140 -0.1070 -0.4092 -0.5971
14294TIP3    H164373   5.100   5.734  15.113 -0.2850  0.3247  0.9016
14294TIP3    H264374   5.160   5.644  15.219  0.8346 -0.4264 -0.3291
14295TIP3   OH264375   4.368   3.633  14.609 -0.4097  0.4677 -0.1848
14295TIP3    H164376   4.375   3.596  14.697  1.5302 -0.7312 -0.7780
14295TIP3    H264377   4.452   3.675  14.594  0.3828 -1.7031 -2.4126
14296TIP3   OH264378   0.935   4.194  12.891 -0.7504  0.1434 -1.0366
14296TIP3    H164379   0.851   4.237  12.907 -0.4525  0.0020  1.3205
14296TIP3    H264380   0.996   4.266  12.877 -0.4206  0.5897  2.0348
14297TIP3   OH264381   1.337   2.226   1.592  0.5710  0.6394 -0.0406
14297TIP3    H164382   1.342   2.215   1.497 -1.9525 -0.2185 -0.1503
14297TIP3    H264383   1.331   2.320   1.605 -1.5548  0.6939 -0.9828
14298TIP3   OH264384   4.732   5.128  16.888 -0.2777 -0.7079 -0.2561
14298TIP3    H164385   4.673   5.115  16.962  0.3199 -2.4723 -0.0436
14298TIP3    H264386   4.693   5.078  16.816 -0.4019  0.2822 -0.8964
14299TIP3   OH264387   6.584   1.211  13.559 -0.2841 -0.5230  0.6575
14299TIP3    H164388   6.654   1.204  13.494  0.4860  0.0451  1.3976
14299TIP3    H264389   6.576   1.305  13.576 -2.8636 -0.3356 -1.1090
14300TIP3   OH264390   1.117   0.862  16.054 -0.0430  0.5603 -0.1579
14300TIP3    H164391   1.076   0.777  16.038 -0.1957  0.3261  1.3007
14300TIP3    H264392   1.076   0.921  15.991 -1.9464  0.1351  0.6115
14301TIP3   OH264393   4.188   4.725   4.573  0.0989 -0.6976 -0.5098
14301TIP3    H164394   4.199   4.630   4.572 -0.7988 -0.8115 -1.2144
14301TIP3    H264395   4.187   4.749   4.665  0.9229 -1.2937 -0.3385
14302TIP3   OH264396   3.505   6.672  14.110  0.3528 -0.3127  0.2344
14302TIP3    H164397   3.576   6.716  14.157  0.2628  0.1562 -0.0525
14302TIP3    H264398   3.425   6.700  14.155  0.1625  1.1771 -0.9531
14303TIP3   OH264399   0.241   4.515  15.284  0.3123  0.0384 -0.0696
14303TIP3    H164400   0.165   4.531  15.228  1.4396  2.4056 -1.0408
14303TIP3    H264401   0.309   4.482  15.225  0.6221 -0.3068  0.4642
14304TIP3   OH264402   2.981   4.073   1.085  0.4464  0.0277 -0.3497
14304TIP3    H164403   2.967   4.167   1.069 -0.7263  0.3568  2.1510
14304TIP3    H264404   2.966   4.032   1.000 -0.5393  1.9832 -1.1865
14305TIP3   OH264405   1.941   3.587   0.224  0.8910  0.0430 -0.7812
14305TIP3    H164406   2.002   3.620   0.289  2.7395  0.4377 -2.6027
14305TIP3    H264407   1.922   3.497   0.251  0.2615  0.7008  1.1471
14306TIP3   OH264408   5.906   5.511   3.158 -0.0531 -0.0583 -0.8566
14306TIP3    H164409   5.960   5.449   3.207 -0.9116  0.5604  0.9436
14306TIP3    H264410   5.863   5.456   3.092 -0.0058 -1.2084  0.0264
14307TIP3   OH264411   3.233   4.180  11.025  0.2426  0.2292  0.2874
14307TIP3    H164412   3.195   4.235  10.956 -1.1027  0.7443  1.4103
14307TIP3    H264413   3.267   4.104  10.978 -0.6976  0.5404 -0.9501
14308TIP3   OH264414   2.079   0.562  16.156 -0.0593  0.0831 -0.1682
14308TIP3    H164415   2.136   0.496  16.117 -0.9100 -1.1060  0.5202
14308TIP3    H264416   2.032   0.600  16.081  0.4484 -0.0878 -0.5768
14309TIP3   OH264417   6.317   5.081   3.245  0.1242  0.3453  0.3558
14309TIP3    H164418   6.330   5.003   3.299  2.9970  0.9183  0.6307
14309TIP3    H264419   6.318   5.048   3.155  1.2782  0.0354  0.4711
14310TIP3   OH264420   0.035   3.233  16.784 -0.0812 -0.5041 -0.3851
14310TIP3    H164421   0.002   3.265  16.700 -2.4569 -0.2583  0.5641
14310TIP3    H264422   0.079   3.150  16.762 -0.6928 -0.4770 -1.8538
14311TIP3   OH264423   6.696   4.140   0.534 -0.0686  0.0079 -0.8276
14311TIP3    H164424   6.724   4.049   0.527 -0.3837 -0.3682  1.7801
14311TIP3    H264425   6.763   4.181   0.589 -1.4067  0.5910  0.4438
14312TIP3   OH264426   4.115   5.988  12.009  0.0325  0.5238  0.7419
14312TIP3    H164427   4.084   6.078  12.017  0.4018  0.7586 -0.2747
14312TIP3    H264428   4.110   5.970  11.915 -0.4848 -0.6822  0.9833
14313TIP3   OH264429   5.943   3.415   4.295  0.0884 -0.0083  0.0553
14313TIP3    H164430   5.999   3.373   4.230 -1.6244  0.3691 -1.7666
14313TIP3    H264431   5.908   3.342   4.347 -0.0908 -0.5204 -0.7693
14314TIP3   OH264432   5.184   0.491  10.888 -0.3232  0.3272  0.6566
14314TIP3    H164433   5.269   0.453  10.864 -1.2577 -2.1693  0.9398
14314TIP3    H264434   5.154   0.534  10.809 -0.4200 -2.0557 -0.6899
14315TIP3   OH264435   6.821   2.987  10.756  0.3932 -0.0002  0.5268
14315TIP3    H164436   6.875   2.933  10.814 -0.6550 -1.1035  0.5299
14315TIP3    H264437   6.869   2.988  10.674  0.5708 -0.7424  0.6085
14316TIP3   OH264438   3.979   0.861  13.684  0.0233  0.2160  0.3218
14316TIP3    H164439   3.901   0.812  13.713  0.6837 -2.1486 -1.5404
14316TIP3    H264440   4.050   0.797  13.689  0.9994  1.0079 -2.0245
14317TIP3   OH264441   6.361   1.737   3.762 -0.4134 -0.4485 -0.3376
14317TIP3    H164442   6.348   1.654   3.807  0.6254 -1.7767 -2.3042
14317TIP3    H264443   6.436   1.721   3.704  0.6496  2.2855  0.1404
14318TIP3   OH264444   2.304   2.056  16.523  0.5676  0.1245  0.7207
14318TIP3    H164445   2.370   2.072  16.456  0.4349  1.1199  0.8108
14318TIP3    H264446   2.349   2.005  16.590  0.5455 -1.4134 -0.3667
14319TIP3   OH264447   5.628   0.200  15.535 -0.8436 -0.5185 -0.0088
14319TIP3    H164448   5.591   0.126  15.486 -1.3933 -0.6182  0.5527
14319TIP3    H264449   5.560   0.224  15.597 -0.0939 -0.4855  0.8142
14320TIP3   OH264450   3.879   3.636   5.888  0.5101  0.2843 -0.4887
14320TIP3    H164451   3.811   3.572   5.911  1.7198 -1.3081 -1.1832
14320TIP3    H264452   3.890   3.688   5.968 -2.5482  1.6265 -0.8153
14321TIP3   OH264453   6.562   3.190  15.161  0.0967  0.4474  0.3839
14321TIP3    H164454   6.655   3.199  15.138  0.1539 -1.2443 -0.1577
14321TIP3    H264455   6.529   3.122  15.103 -0.8951 -0.7107  2.2115
14322TIP3   OH264456   3.153   6.488   4.735 -0.0343  0.5090 -0.7814
14322TIP3    H164457   3.156   6.393   4.732 -0.9853  0.4424 -0.0779
14322TIP3    H264458   3.238   6.516   4.701 -0.8585 -0.4909 -3.9185
14323TIP3   OH264459   3.257   2.787  11.860 -0.3614  0.0621 -0.3284
14323TIP3    H164460   3.276   2.792  11.766 -0.0839 -2.4709 -0.4992
14323TIP3    H264461   3.217   2.700  11.871 -1.0333  0.5872  1.8021
14324TIP3   OH264462   6.688   2.627  13.366 -0.0848  0.0282  0.0306
14324TIP3    H164463   6.687   2.708  13.315 -1.1358  0.5127  0.7946
14324TIP3    H264464   6.752   2.572  13.322  0.3298  1.1126 -0.7568
14325TIP3   OH264465   6.699   0.268  15.068 -0.0283  0.5890  0.2987
14325TIP3    H164466   6.634   0.198  15.067 -0.5677  1.0915 -0.2928
14325TIP3    H264467   6.741   0.261  15.154 -1.5066  0.8331  1.0676
14326TIP3   OH264468   1.926   0.634   4.429  0.3229 -0.6046  0.1907
14326TIP3    H164469   2.002   0.627   4.487  0.7477  0.7768 -0.1652
14326TIP3    H264470   1.948   0.706   4.370 -0.3588 -1.5772 -1.3055
14327TIP3   OH264471   1.084   3.033   0.200  0.1470 -0.2659 -0.5301
14327TIP3    H164472   1.070   3.058   0.292  0.4270 -0.7113 -0.3673
14327TIP3    H264473   0.997   3.040   0.160 -0.1981 -1.1722  0.0390
14328TIP3   OH264474   2.468   1.164  16.584 -0.4878 -0.0232  0.2321
14328TIP3    H164475   2.488   1.087  16.531 -0.6683 -1.3816  2.0367
14328TIP3    H264476   2.483   1.135  16.674  0.6995  2.4620  0.9101
14329TIP3   OH264477   3.225   2.438   2.802 -0.2267 -0.1063  0.5788
14329TIP3    H164478   3.282   2.486   2.863  0.0952 -3.5639  3.4036
14329TIP3    H264479   3.281   2.367   2.769 -1.7219 -1.0728  0.0226
14330TIP3   OH264480   4.451   2.853  11.750 -0.2014  0.8220  0.1543
14330TIP3    H164481   4.465   2.947  11.744  2.1362  0.7244  2.2732
14330TIP3    H264482   4.419   2.840  11.840  0.4453 -0.4594  0.2229
14331TIP3   OH264483   5.740   4.137  14.800 -0.0267  0.2151  0.2670
14331TIP3    H164484   5.653   4.141  14.839  0.4694 -1.4258  1.6809
14331TIP3    H264485   5.787   4.212  14.838 -0.7787  1.0594 -0.4441
14332TIP3   OH264486   1.558   1.897  13.135 -0.2739  0.1990  0.7492
14332TIP3    H164487   1.577   1.934  13.049  2.4777  0.9596  1.5942
14332TIP3    H264488   1.501   1.962  13.177  0.3467  1.0223  0.3531
14333TIP3   OH264489   1.339   4.238   2.263  0.2967  0.5237  0.2225
14333TIP3    H164490   1.254   4.247   2.222  0.5662 -0.7517 -0.6785
14333TIP3    H264491   1.325   4.176   2.335  0.6421 -0.5532 -0.6017
14334TIP3   OH264492   5.804   4.758   0.982 -0.2448 -0.0243  0.2577
14334TIP3    H164493   5.861   4.824   0.943 -1.2157  0.2429 -0.7543
14334TIP3    H264494   5.729   4.753   0.923 -0.9891 -0.8023  1.2374
14335TIP3   OH264495   6.699   5.542  16.959  0.3685  0.1057  0.5848
14335TIP3    H164496   6.668   5.487  16.887  1.1709 -1.5194  1.4223
14335TIP3    H264497   6.781   5.580  16.927  0.7454 -0.6461  0.6300
14336TIP3   OH264498   1.635   1.341   0.690 -0.6583  0.5663  0.2771
14336TIP3    H164499   1.663   1.408   0.752  0.2825  0.8148 -0.3829
14336TIP3    H264500   1.598   1.390   0.616  0.6496  0.4234 -0.5062
14337TIP3   OH264501   5.266   6.580  13.098 -0.3401 -0.6905  0.4558
14337TIP3    H164502   5.178   6.614  13.078  0.5035  2.3378  1.3687
14337TIP3    H264503   5.267   6.570  13.193 -0.4747 -3.3934  0.2602
14338TIP3   OH264504   2.270   6.636   3.906  0.1396  0.3646  0.2510
14338TIP3    H164505   2.199   6.614   3.844 -0.0470  1.2243  0.1493
14338TIP3    H264506   2.297   6.551   3.942 -2.3094  0.1335  1.8080
14339TIP3   OH264507   3.748   4.555  11.987 -0.3162 -0.0095  0.5247
14339TIP3    H164508   3.661   4.585  12.011  0.5601  1.6162  1.9410
14339TIP3    H264509   3.791   4.536  12.070  0.2985 -2.0348 -0.1959
14340TIP3   OH264510   1.257   2.650   4.098  0.7615 -0.4070 -0.1065
14340TIP3    H164511   1.316   2.625   4.026  1.1067  0.0208  0.0220
14340TIP3    H264512   1.279   2.741   4.116  0.0979 -0.2590 -0.0105
14341TIP3   OH264513   3.283   2.896  15.402  0.4786 -0.0318  0.5083
14341TIP3    H164514   3.229   2.863  15.330  0.3754 -0.0912  0.6129
14341TIP3    H264515   3.346   2.826  15.420  1.5654  0.6152 -0.5985
14342TIP3   OH264516   2.752   6.268   0.722  0.7193 -0.0941 -0.2177
14342TIP3    H164517   2.755   6.282   0.817  0.3396 -0.6329 -0.1263
14342TIP3    H264518   2.677   6.319   0.692  1.2277  0.6039 -0.3234
14343TIP3   OH264519   6.713   4.805  15.741 -0.1994  0.7323  0.4793
14343TIP3    H164520   6.651   4.849  15.683  0.7667 -0.0227 -1.1957
14343TIP3    H264521   6.692   4.712  15.732 -0.5120  0.6337  1.9524
14344TIP3   OH264522   3.513   2.197  13.999 -0.4987  0.0143 -0.2812
14344TIP3    H164523   3.531   2.237  13.914 -2.5184  0.1882 -0.6723
14344TIP3    H264524   3.492   2.270  14.056 -0.3560 -0.1986  0.0491
14345TIP3   OH264525   3.185   3.657  11.010 -0.0868  0.0386 -0.3271
14345TIP3    H164526   3.202   3.704  10.929 -0.3269 -0.6773 -0.8073
14345TIP3    H264527   3.255   3.684  11.069  0.8563 -0.4212 -1.2097
14346TIP3   OH264528   2.941   6.206   6.060 -0.7231  1.0888 -0.2332
14346TIP3    H164529   2.968   6.227   6.149  0.6950 -0.1110 -0.3493
14346TIP3    H264530   2.846   6.194   6.066 -0.4009 -1.3564  1.6785
14347TIP3   OH264531   6.181   2.973   4.115  0.1121  0.3603  0.4420
14347TIP3    H164532   6.111   2.922   4.156 -0.5447  0.1339 -0.8962
14347TIP3    H264533   6.261   2.923   4.133 -0.0826  0.5204  1.8237
14348TIP3   OH264534   1.356   0.773   5.439 -0.1720  0.1546 -0.8171
14348TIP3    H164535   1.297   0.843   5.466 -0.4720 -0.2285 -0.4662
14348TIP3    H264536   1.443   0.807   5.457 -0.2451  0.9272 -1.8040
14349TIP3   OH264537   6.221   6.780   5.966  0.4788  0.2226  0.3615
14349TIP3    H164538   6.176   6.771   5.882 -0.5842  1.1393  0.8133
14349TIP3    H264539   6.283   6.851   5.953 -0.7743  1.4366  0.7686
14350TIP3   OH264540   4.095   3.752  12.773  0.4346 -0.0822 -0.2700
14350TIP3    H164541   4.084   3.667  12.815  0.0206  0.3664  0.5500
14350TIP3    H264542   4.153   3.735  12.699  0.7281 -0.9883  0.1567
14351TIP3   OH264543   2.264   3.263   5.998  0.0751 -0.5122  0.6733
14351TIP3    H164544   2.183   3.290   5.954 -0.5240 -1.7053  1.0268
14351TIP3    H264545   2.247   3.174   6.028  1.5251 -0.7879  0.7489
14352TIP3   OH264546   4.792   3.601   3.157  0.1942 -0.3220 -0.0651
14352TIP3    H164547   4.724   3.598   3.225  1.0837 -1.6345  0.8231
14352TIP3    H264548   4.744   3.594   3.074 -0.7242 -2.3605  0.5861
14353TIP3   OH264549   1.161   3.508   3.493  0.1728 -0.2813 -0.5741
14353TIP3    H164550   1.240   3.463   3.525  0.2137 -0.4322 -0.8823
14353TIP3    H264551   1.089   3.448   3.514 -0.1513  0.8071  1.7076
14354TIP3   OH264552   0.502   3.366  16.151  0.1025  0.1996  0.5936
14354TIP3    H164553   0.455   3.417  16.085 -0.7544  0.0996  1.1087
14354TIP3    H264554   0.570   3.321  16.102 -0.9148 -0.3760 -0.3460
14355TIP3   OH264555   2.069   4.844   1.659 -0.1617  0.5235 -0.5509
14355TIP3    H164556   2.086   4.838   1.565  0.6459  0.2790 -0.3934
14355TIP3    H264557   2.117   4.922   1.688 -0.3108  0.5311 -0.3198
14356TIP3   OH264558   3.671   3.167  11.217 -0.4188 -0.7277  0.3989
14356TIP3    H164559   3.737   3.229  11.184 -0.5357 -0.6728  0.2646
14356TIP3    H264560   3.693   3.085  11.174 -0.3896 -0.7287  0.4162
14357TIP3   OH264561   4.567   0.343   3.156  0.1617 -0.1818  0.1485
14357TIP3    H164562   4.652   0.338   3.200  0.0005  1.7034  0.7527
14357TIP3    H264563   4.503   0.350   3.227 -0.4381 -0.6961 -0.3223
14358TIP3   OH264564   3.448   6.794  13.450  0.0349 -0.0589 -0.4966
14358TIP3    H164565   3.383   6.857  13.418 -0.4803  0.4381  1.4183
14358TIP3    H264566   3.531   6.826  13.415 -0.4772  0.4699 -1.2880
14359TIP3   OH264567   0.349   3.857  15.301 -0.5990  0.5583  0.1233
14359TIP3    H164568   0.328   3.890  15.214  1.1702  0.3316 -0.4210
14359TIP3    H264569   0.393   3.774  15.286 -0.3762  0.4531  1.2446
14360TIP3   OH264570   4.532   2.744  16.997 -0.2348 -0.4714 -0.3854
14360TIP3    H164571   4.582   2.823  16.976  0.9640 -1.6756 -2.2644
14360TIP3    H264572   4.441   2.772  16.992  0.0762  0.3609 -3.2552
14361TIP3   OH264573   0.471   0.386   0.039  0.0013 -0.4877 -0.1962
14361TIP3    H164574   0.537   0.317   0.043 -0.7021 -1.1671 -0.1897
14361TIP3    H264575   0.439   0.395   0.129 -0.4625 -0.7054 -0.3350
14362TIP3   OH264576   1.144   5.976  12.356  0.3136 -0.2595  0.0717
14362TIP3    H164577   1.068   5.937  12.399 -0.0994  1.3405  0.8527
14362TIP3    H264578   1.112   6.006  12.272  0.1993 -0.0207  0.2005
14363TIP3   OH264579   3.260   0.761  15.647  0.0124  0.4174  0.4796
14363TIP3    H164580   3.194   0.764  15.716  1.2288  0.2061  1.7013
14363TIP3    H264581   3.250   0.845  15.601 -0.4439  0.8149  1.2727
14364TIP3   OH264582   1.513   4.136  16.017 -0.3739  0.6369 -0.7214
14364TIP3    H164583   1.443   4.138  15.952 -1.6271 -0.9309  0.5022
14364TIP3    H264584   1.541   4.045  16.020  1.2786  1.1042 -0.6737
14365TIP3   OH264585   5.996   3.248  14.648 -0.5496  0.4424 -0.1949
14365TIP3    H164586   6.059   3.201  14.593 -2.4362 -2.4611 -0.1193
14365TIP3    H264587   5.921   3.263  14.590 -1.1710  0.5639  0.6276
14366TIP3   OH264588   5.837   1.839  13.398 -0.2702 -0.0128  0.3610
14366TIP3    H164589   5.765   1.897  13.425  0.1309  0.9280 -0.5130
14366TIP3    H264590   5.819   1.821  13.305  1.5193  1.6939 -0.3961
14367TIP3   OH264591   3.783   0.029  15.811 -0.0335 -0.1644  0.6362
14367TIP3    H164592   3.766  -0.017  15.894 -0.0239  1.2366  1.4533
14367TIP3    H264593   3.818  -0.039  15.753  0.6773 -1.0511  2.0241
14368TIP3   OH264594   4.188   2.055  15.759  0.0560 -0.3833  0.4085
14368TIP3    H164595   4.274   2.097  15.758 -0.0641 -0.1148 -1.4188
14368TIP3    H264596   4.127   2.125  15.782  0.3422 -0.7397  2.5204
14369TIP3   OH264597   5.138   1.624   0.515  0.3117 -0.1014  0.4818
14369TIP3    H164598   5.193   1.680   0.571 -0.9405  3.1753 -1.2557
14369TIP3    H264599   5.199   1.586   0.452  1.1728 -0.5347  1.5296
14370TIP3   OH264600   1.055   4.551  14.485 -0.2303  0.0393 -0.0822
14370TIP3    H164601   1.108   4.598  14.550  2.0825 -0.4520 -1.4705
14370TIP3    H264602   1.088   4.461  14.487 -1.3283 -0.4034 -0.7301
14371TIP3   OH264603   1.691   5.419   1.824  0.6727  0.6805 -0.1896
14371TIP3    H164604   1.640   5.373   1.757  0.1187  2.4491 -1.0280
14371TIP3    H264605   1.741   5.350   1.868  0.9651 -0.5467 -2.3477
14372TIP3   OH264606   5.608   0.994   2.840  0.4498 -0.0180  0.3505
14372TIP3    H164607   5.655   0.999   2.757 -1.5564 -1.5324 -0.9677
14372TIP3    H264608   5.559   1.076   2.845  2.2978  1.1110  1.2399
14373TIP3   OH264609   0.359   3.915  14.203  0.7105  0.3282  0.0645
14373TIP3    H164610   0.309   3.896  14.282  1.1718  1.2164  0.5852
14373TIP3    H264611   0.339   3.842  14.144  0.7677 -0.6266  1.1828
14374TIP3   OH264612   0.678   5.488  12.578 -0.3394  0.3275  0.5699
14374TIP3    H164613   0.716   5.518  12.661 -1.0104  0.6428  0.7687
14374TIP3    H264614   0.584   5.487  12.594 -0.5231  1.0757 -0.3989
14375TIP3   OH264615   4.294   2.089  11.778 -0.1503 -0.5021  0.1974
14375TIP3    H164616   4.260   2.127  11.696  0.8255 -1.5499 -0.7198
14375TIP3    H264617   4.374   2.138  11.796 -0.9491  0.4905  1.1688
14376TIP3   OH264618   4.007   5.684   2.852 -0.1322  0.5258  0.2567
14376TIP3    H164619   4.080   5.687   2.790  0.5946  1.0008  1.1028
14376TIP3    H264620   4.039   5.632   2.925 -0.1561  1.7938  1.2068
14377TIP3   OH264621   2.235   1.296   5.042  0.3047  0.0261  0.3789
14377TIP3    H164622   2.260   1.348   5.118 -0.2879 -0.1181  0.6774
14377TIP3    H264623   2.316   1.287   4.992  0.7295  0.0143  1.0524
14378TIP3   OH264624   1.577   2.315   2.836  0.9644 -0.6189  0.2220
14378TIP3    H164625   1.658   2.291   2.880  0.4303 -2.2260  0.4036
14378TIP3    H264626   1.517   2.242   2.854 -0.1946  0.0429 -0.7514
14379TIP3   OH264627   6.122   6.199  14.790 -0.2524  0.1062 -0.4888
14379TIP3    H164628   6.098   6.146  14.715 -0.0713  3.3021 -3.0485
14379TIP3    H264629   6.217   6.209  14.783 -0.2643  0.6577  0.0176
14380TIP3   OH264630   4.341   0.942  13.008 -0.0699  0.0471  0.2734
14380TIP3    H164631   4.354   1.025  13.052  2.8883  0.3098 -0.8700
14380TIP3    H264632   4.255   0.950  12.966 -0.0920  2.3042  0.6297
14381TIP3   OH264633   3.655   3.595   4.238 -0.0510 -0.1162  0.3136
14381TIP3    H164634   3.633   3.605   4.145 -2.0602 -2.0567  0.4884
14381TIP3    H264635   3.628   3.677   4.278  0.9055  0.7721 -0.7936
14382TIP3   OH264636   3.135   4.067   0.260 -0.4095  0.0088  0.1851
14382TIP3    H164637   3.212   4.010   0.254 -0.3356  0.1943 -0.9727
14382TIP3    H264638   3.069   4.024   0.206 -0.2303  1.1594 -1.0120
14383TIP3   OH264639   1.182   6.572  13.613 -0.3695  0.1769 -0.0184
14383TIP3    H164640   1.269   6.550  13.579 -0.5622 -1.9561  0.7159
14383TIP3    H264641   1.121   6.532  13.552 -0.7797 -0.2107  0.6333
14384TIP3   OH264642   0.295   3.949   5.338  0.7320 -0.0379 -0.1099
14384TIP3    H164643   0.258   3.937   5.426  0.9559  2.2172  0.3407
14384TIP3    H264644   0.368   3.887   5.334  0.4367 -0.4944  1.1144
14385TIP3   OH264645   6.345   1.646  15.076  0.0009  0.0860 -0.7912
14385TIP3    H164646   6.310   1.734  15.059  0.9123  1.2297  2.3831
14385TIP3    H264647   6.276   1.601  15.124  0.0224 -0.4938 -1.2890
14386TIP3   OH264648   1.158   5.352   5.261 -0.6914  1.0319 -0.1214
14386TIP3    H164649   1.144   5.293   5.187 -0.8658 -0.1271  0.8065
14386TIP3    H264650   1.234   5.316   5.307 -1.1133  1.2097  0.7533
14387TIP3   OH264651   0.185   2.158   4.897  0.0249  0.2946  0.1071
14387TIP3    H164652   0.193   2.241   4.850  0.0156  0.4818  0.4256
14387TIP3    H264653   0.271   2.117   4.889 -0.2708 -0.1529 -0.9309
14388TIP3   OH264654   4.322   3.867   0.561  0.0238 -0.9606  0.7055
14388TIP3    H164655   4.237   3.861   0.604 -0.4793 -0.5160 -0.2044
14388TIP3    H264656   4.303   3.859   0.468  0.7556  0.9111  0.3488
14389TIP3   OH264657   4.192   4.113   4.553  0.2518  0.0954  0.2956
14389TIP3    H164658   4.175   4.045   4.487  0.3221  0.8007 -0.4599
14389TIP3    H264659   4.141   4.084   4.630 -0.4644 -0.3330 -0.3187
14390TIP3   OH264660   5.462   5.999   0.300  0.0317 -0.6217  0.0960
14390TIP3    H164661   5.471   5.907   0.324  1.4978 -0.7041 -0.7043
14390TIP3    H264662   5.546   6.039   0.323 -0.6154  0.5556  0.5195
14391TIP3   OH264663   0.029   3.043  15.386  0.0545 -0.1984  0.0262
14391TIP3    H164664   0.076   2.982  15.443 -0.6837  0.6384  1.6004
14391TIP3    H264665   0.011   2.993  15.306  1.8491 -1.1477  0.1779
14392TIP3   OH264666   5.477   2.092  16.607  0.1628 -0.2995 -0.1924
14392TIP3    H164667   5.438   2.006  16.621 -1.0440  0.4240  1.0933
14392TIP3    H264668   5.403   2.150  16.590  0.6906  0.9524  1.4931
14393TIP3   OH264669   1.641   1.189   3.708 -0.6657 -0.1473 -0.0598
14393TIP3    H164670   1.642   1.278   3.745  2.8858 -0.0678 -0.0185
14393TIP3    H264671   1.628   1.132   3.784 -1.0316  0.2656  0.1925
14394TIP3   OH264672   3.167   0.646   0.840  0.2363  0.1996 -0.5132
14394TIP3    H164673   3.213   0.593   0.905  1.9826  1.4056 -0.6850
14394TIP3    H264674   3.091   0.680   0.886 -0.1233 -1.2465  0.0155
14395TIP3   OH264675   2.194   5.045   5.884 -0.3113  0.4570  0.5874
14395TIP3    H164676   2.101   5.025   5.879 -0.0776 -1.0427  1.6540
14395TIP3    H264677   2.206   5.082   5.972  0.6564 -3.0992  2.1549
14396TIP3   OH264678   6.678   6.499  12.047 -0.0133 -0.5728  0.0537
14396TIP3    H164679   6.760   6.508  12.000 -0.3402  1.5456 -0.1966
14396TIP3    H264680   6.704   6.484  12.138  0.6205 -1.6824 -0.2961
14397TIP3   OH264681   6.240   6.797   0.289 -1.0707 -0.8908 -0.3514
14397TIP3    H164682   6.183   6.724   0.264 -0.4545 -1.4411 -0.1991
14397TIP3    H264683   6.221   6.865   0.225 -3.0430 -0.4539  0.6482
14398TIP3   OH264684   6.217   5.483  15.801  0.0673  0.7244  0.4039
14398TIP3    H164685   6.205   5.472  15.706  2.5921  1.4737 -0.0922
14398TIP3    H264686   6.199   5.576  15.817  0.7986  0.8694  0.4212
14399TIP3   OH264687   6.127   0.556   4.587 -0.0298 -0.6298  0.2164
14399TIP3    H164688   6.036   0.560   4.615 -0.2683 -1.7891 -0.3503
14399TIP3    H264689   6.176   0.596   4.659 -1.0879  1.5473 -0.1720
14400TIP3   OH264690   3.613   3.862  12.448 -0.0224 -0.1342 -0.0791
14400TIP3    H164691   3.692   3.916  12.443 -1.2827  1.7372 -0.8118
14400TIP3    H264692   3.619   3.803  12.373  1.1385 -0.7319  0.4516
14401TIP3   OH264693   4.907   2.288   5.953 -0.0554  1.0076  0.2797
14401TIP3    H164694   4.961   2.232   6.010  0.3783 -0.6282 -1.6317
14401TIP3    H264695   4.932   2.377   5.977 -0.4673  0.4389  3.1505
14402TIP3   OH264696   0.472   6.594  16.043 -0.5174  0.3336 -0.1278
14402TIP3    H164697   0.385   6.570  16.076 -1.1561 -0.1094 -2.0069
14402TIP3    H264698   0.455   6.632  15.957  1.1882 -0.2182 -0.7460
14403TIP3   OH264699   3.590   1.892   5.050 -0.1395 -0.6443  0.0085
14403TIP3    H164700   3.682   1.885   5.074 -0.1862  0.5867  0.6245
14403TIP3    H264701   3.545   1.917   5.132 -0.7253  0.6789 -0.6707
14404TIP3   OH264702   5.845   2.462  13.014  0.4134 -0.2207 -0.1465
14404TIP3    H164703   5.933   2.470  12.978  0.0267 -1.4011 -1.4096
14404TIP3    H264704   5.828   2.548  13.053  2.2592 -0.0942  0.4930
14405TIP3   OH264705   5.544   0.519  15.187  0.3159  0.1241 -0.2005
14405TIP3    H164706   5.546   0.467  15.268  0.9791 -1.0103 -0.9078
14405TIP3    H264707   5.597   0.596  15.206  1.3008 -0.6179  0.1547
14406TIP3   OH264708   0.137   4.754  17.055  0.4343 -0.0066 -0.8444
14406TIP3    H164709   0.147   4.811  16.979 -0.2191 -1.3223 -1.9622
14406TIP3    H264710   0.227   4.734  17.081  0.6738  0.1453 -1.5286
14407TIP3   OH264711   4.554   6.767  15.595 -0.3316  0.0503  0.6396
14407TIP3    H164712   4.484   6.705  15.572 -0.3523  0.9087 -1.8932
14407TIP3    H264713   4.544   6.839  15.533  4.0117 -0.7220 -1.3995
14408TIP3   OH264714   4.364   1.547  14.609  0.0620 -0.2419 -0.2344
14408TIP3    H164715   4.317   1.581  14.533  0.6581  0.6425 -0.2284
14408TIP3    H264716   4.319   1.586  14.684  0.8024  0.6422 -0.2306
14409TIP3   OH264717   0.261   6.499   1.195  0.2236  0.6275 -0.1471
14409TIP3    H164718   0.198   6.523   1.127  1.6549  0.7863 -1.4770
14409TIP3    H264719   0.305   6.581   1.216 -0.7032  0.7269  1.5579
14410TIP3   OH264720   4.054   1.368   4.495  0.0693  0.3064 -0.6314
14410TIP3    H164721   3.993   1.441   4.500  1.2047  1.2545  3.0548
14410TIP3    H264722   4.139   1.409   4.480  0.5611 -0.3494  0.2536
14411TIP3   OH264723   1.938   6.122   3.148 -0.1453  0.1980  0.3418
14411TIP3    H164724   1.946   6.165   3.063 -1.2171  1.0311  0.6381
14411TIP3    H264725   2.012   6.156   3.199 -0.3244  0.8265  0.1986
14412TIP3   OH264726   4.879   1.646  15.225  0.0091  0.4316  0.1624
14412TIP3    H164727   4.959   1.594  15.225 -0.2267  0.0480  1.0923
14412TIP3    H264728   4.817   1.597  15.171  0.8083  1.4210 -1.7350
14413TIP3   OH264729   3.933   2.591   0.621 -0.4721  0.1282 -0.1608
14413TIP3    H164730   3.850   2.542   0.624  0.5227 -1.6364 -0.3612
14413TIP3    H264731   3.970   2.571   0.536  1.4385 -1.3582  0.9527
14414TIP3   OH264732   3.949   2.815   2.551 -0.1894  0.0539 -0.8957
14414TIP3    H164733   3.866   2.799   2.597  1.0833 -0.8855  1.2387
14414TIP3    H264734   3.963   2.737   2.498 -0.2908 -0.1583 -0.6162
14415TIP3   OH264735   0.305   5.904   6.471  0.4534 -0.3072 -0.1876
14415TIP3    H164736   0.390   5.886   6.430  0.2379  1.8096 -1.7677
14415TIP3    H264737   0.254   5.825   6.458  1.3374 -0.6778 -1.6077
14416TIP3   OH264738   0.745   0.249  16.723  0.6868  0.1732 -0.4455
14416TIP3    H164739   0.760   0.237  16.630  1.8491 -0.6270 -0.1795
14416TIP3    H264740   0.833   0.254  16.761  0.2576  2.0493  0.4350
14417TIP3   OH264741   3.911   3.497  12.202 -0.0857 -0.1246 -0.3707
14417TIP3    H164742   3.897   3.480  12.109 -1.8198  1.7019 -0.5118
14417TIP3    H264743   3.895   3.590  12.212  0.8980 -0.1099  1.6528
14418TIP3   OH264744   6.257   4.769  13.716  0.3179  0.6187  0.5483
14418TIP3    H164745   6.318   4.715  13.767  0.2670  2.0646  2.2559
14418TIP3    H264746   6.191   4.708  13.683  1.1561 -0.5743  1.0142
14419TIP3   OH264747   3.337   5.163   1.568 -0.0080  0.5764  0.2330
14419TIP3    H164748   3.312   5.158   1.661 -0.7531 -0.2622 -0.0052
14419TIP3    H264749   3.426   5.127   1.566 -0.3618 -0.3376  0.4852
14420TIP3   OH264750   3.308   2.847   3.105  0.1381 -0.2481 -0.1120
14420TIP3    H164751   3.340   2.760   3.081  2.7548  0.5894 -0.0445
14420TIP3    H264752   3.380   2.906   3.080 -1.1367  1.7781  0.7753
14421TIP3   OH264753   0.835   0.098  14.831  0.4485  0.2645 -0.7304
14421TIP3    H164754   0.907   0.097  14.768 -0.7744  0.9775 -2.2122
14421TIP3    H264755   0.763   0.140  14.784 -1.1187 -0.9231  0.5121
14422TIP3   OH264756   6.255   5.360  12.853  1.0200 -0.4956 -0.4555
14422TIP3    H164757   6.254   5.356  12.949  2.4550  0.2760 -0.3857
14422TIP3    H264758   6.230   5.272  12.825 -0.5017 -0.4426  0.5892
14423TIP3   OH264759   6.433   0.836  11.416 -0.2221 -0.0883  0.6084
14423TIP3    H164760   6.492   0.882  11.357  0.7560  0.6845  2.1015
14423TIP3    H264761   6.489   0.813  11.491 -1.8431  0.8284  2.1579
14424TIP3   OH264762   5.232   1.235  15.236  0.3869 -0.5302 -0.1109
14424TIP3    H164763   5.262   1.214  15.324  0.1982  0.2816  0.1604
14424TIP3    H264764   5.186   1.157  15.206 -2.0763  0.1389  1.6308
14425TIP3   OH264765   3.078   3.508  12.826  0.1350 -0.2228 -0.2331
14425TIP3    H164766   3.029   3.528  12.746 -1.9226 -1.7874  0.5456
14425TIP3    H264767   3.168   3.530  12.805 -0.5542  0.7227 -2.5052
14426TIP3   OH264768   1.650   0.515   3.879 -0.3445 -0.3887 -0.8373
14426TIP3    H164769   1.690   0.598   3.853 -1.2992  0.1348 -0.6783
14426TIP3    H264770   1.690   0.450   3.821  0.7603  0.0936 -0.6517
14427TIP3   OH264771   1.083   2.079  14.031  0.5500  0.1087 -0.2215
14427TIP3    H164772   1.138   2.115  13.961  0.5520  0.0157 -0.2673
14427TIP3    H264773   1.131   2.003  14.063  0.2095 -0.2818 -0.6112
14428TIP3   OH264774   1.551   5.159   1.842 -0.3296 -0.4215 -0.5515
14428TIP3    H164775   1.570   5.068   1.822 -0.3021 -0.2928 -1.1121
14428TIP3    H264776   1.473   5.155   1.898  1.0288 -0.9247  1.4393
14429TIP3   OH264777   4.475   4.040  15.451  0.5083  0.1386  0.1677
14429TIP3    H164778   4.481   3.979  15.378  0.8667  1.3337 -0.8290
14429TIP3    H264779   4.384   4.069  15.450  0.7385  0.8518 -0.3915
14430TIP3   OH264780   4.177   6.452  11.443  0.3372  0.1583  0.3135
14430TIP3    H164781   4.198   6.363  11.471 -0.4147 -0.7217 -1.7322
14430TIP3    H264782   4.227   6.508  11.502  2.6589 -1.6736  0.2497
14431TIP3   OH264783   4.032   5.668  12.598  0.7519  0.1059  0.1697
14431TIP3    H164784   4.127   5.681  12.595  0.7792 -0.2682 -1.1283
14431TIP3    H264785   4.001   5.734  12.661  1.6593  1.6635 -0.9471
14432TIP3   OH264786   4.876   1.433  11.319 -0.0830  0.5755 -0.5018
14432TIP3    H164787   4.890   1.499  11.251 -1.4625  0.6261 -0.7745
14432TIP3    H264788   4.845   1.356  11.271 -3.4901  1.3635  0.1616
14433TIP3   OH264789   3.279   3.974  13.288  0.4672  0.4553 -0.4065
14433TIP3    H164790   3.312   3.901  13.235  0.2838 -0.6076  0.8750
14433TIP3    H264791   3.310   4.052  13.244  0.4395 -0.3814 -1.9897
14434TIP3   OH264792   6.005   2.514   1.029 -0.1990 -0.1237 -0.6776
14434TIP3    H164793   6.088   2.535   1.072 -1.6180  0.2767  2.0803
14434TIP3    H264794   5.952   2.592   1.040 -1.1677 -0.5803 -1.8785
14435TIP3   OH264795   5.254   4.288   3.947  0.2644 -0.1965 -0.3737
14435TIP3    H164796   5.212   4.354   3.891 -1.1876  0.3009  1.2139
14435TIP3    H264797   5.227   4.205   3.909 -0.6086  0.1337 -0.5156
14436TIP3   OH264798   2.443   2.823  10.697  0.9892 -0.9930  0.6109
14436TIP3    H164799   2.493   2.899  10.727  1.8787 -1.5172  0.5130
14436TIP3    H264800   2.354   2.856  10.684  1.4225  0.1025  0.2664
14437TIP3   OH264801   4.361   0.430  11.122  0.0919 -0.5285 -0.2468
14437TIP3    H164802   4.355   0.477  11.039 -3.8610  2.6217  1.4567
14437TIP3    H264803   4.311   0.349  11.107  0.7527 -0.7538 -1.3090
14438TIP3   OH264804   5.739   6.087   6.056  0.1551  0.7819 -0.1675
14438TIP3    H164805   5.829   6.082   6.089  0.1948  1.6511 -0.1025
14438TIP3    H264806   5.692   6.020   6.105  1.1636 -1.0845 -1.6345
14439TIP3   OH264807   4.258   3.539  15.691  0.6025 -0.4998  0.0951
14439TIP3    H164808   4.192   3.610  15.689 -0.4072 -1.4251 -0.9986
14439TIP3    H264809   4.206   3.459  15.699  1.6335 -1.2303 -0.3991
14440TIP3   OH264810   0.337   2.286  16.599 -0.0526  0.0158 -0.3958
14440TIP3    H164811   0.396   2.337  16.544  0.2727  0.2531  0.1616
14440TIP3    H264812   0.300   2.220  16.541  1.8732 -1.0859 -0.4355
14441TIP3   OH264813   4.248   3.630  11.567 -0.2383 -0.4439  0.0402
14441TIP3    H164814   4.213   3.612  11.654  0.6520 -1.8378  0.1513
14441TIP3    H264815   4.343   3.637  11.581 -0.0272 -1.1841 -0.8598
14442TIP3   OH264816   0.005   4.624   5.219 -0.6750 -0.0198 -0.2394
14442TIP3    H164817   0.019   4.530   5.229 -0.7297  0.1130  1.2235
14442TIP3    H264818   0.093   4.662   5.226 -0.6765  0.0613 -0.6331
14443TIP3   OH264819   1.641   3.657   1.566 -0.1439 -0.0230  0.2803
14443TIP3    H164820   1.622   3.698   1.651  0.6015  0.0220  0.4300
14443TIP3    H264821   1.573   3.691   1.508 -0.6225 -0.0011  0.8424
14444TIP3   OH264822   6.517   1.161   5.464 -0.7562 -0.3304 -0.1267
14444TIP3    H164823   6.445   1.147   5.402  0.0482 -2.3535 -0.6775
14444TIP3    H264824   6.584   1.205   5.412 -2.0301  2.9684  0.7583
14445TIP3   OH264825   4.039   1.706   2.838 -0.3178  0.0142 -0.2186
14445TIP3    H164826   4.110   1.707   2.902  0.5384  1.1916 -1.1388
14445TIP3    H264827   3.968   1.657   2.881  0.9037 -0.8680  0.8560
14446TIP3   OH264828   6.139   6.428   2.130  0.0694  0.2581  0.7698
14446TIP3    H164829   6.161   6.349   2.179 -1.3182 -0.0102  1.0046
14446TIP3    H264830   6.194   6.497   2.169  0.7328 -0.4278  1.0698
14447TIP3   OH264831   3.649   3.859   0.315 -0.5020  0.4082 -0.1925
14447TIP3    H164832   3.733   3.896   0.340 -0.7673  1.4854 -0.8109
14447TIP3    H264833   3.671   3.781   0.264  0.1515  1.0100 -0.8543
14448TIP3   OH264834   3.876   4.447   3.522  0.1852  0.0811 -0.2552
14448TIP3    H164835   3.810   4.381   3.543 -0.4079  0.3132 -1.3126
14448TIP3    H264836   3.859   4.470   3.431  0.7954  1.2240 -0.1005
14449TIP3   OH264837   0.312   6.331  11.895  0.1684  0.3681 -0.1726
14449TIP3    H164838   0.327   6.384  11.974 -0.0950 -1.1518  0.9510
14449TIP3    H264839   0.238   6.275  11.918  1.5372 -1.7324 -0.6279
14450TIP3   OH264840   2.821   4.527  11.470 -0.3387  0.2258 -0.3453
14450TIP3    H164841   2.898   4.580  11.489  0.2101 -0.5429 -0.3726
14450TIP3    H264842   2.824   4.457  11.536 -1.4205  0.6051  0.1214
14451TIP3   OH264843   1.813   1.981   4.038 -0.5290  0.2280 -0.2731
14451TIP3    H164844   1.745   1.960   3.974 -0.5260 -1.4560  0.2291
14451TIP3    H264845   1.884   2.020   3.986 -1.9844  2.4669 -0.7503
14452TIP3   OH264846   6.117   1.625   0.392 -0.1669 -0.9256  0.5566
14452TIP3    H164847   6.037   1.609   0.442 -0.3417 -0.2499  0.5048
14452TIP3    H264848   6.175   1.551   0.414  0.0811 -0.2410  2.3908
14453TIP3   OH264849   5.456   0.740  14.689 -0.9041  0.0878  0.3060
14453TIP3    H164850   5.550   0.759  14.680 -0.7105 -1.0313 -0.2757
14453TIP3    H264851   5.441   0.737  14.783 -0.3236  0.1981  0.4092
14454TIP3   OH264852   3.070   2.605  14.773 -0.3470  0.3158  0.1939
14454TIP3    H164853   3.124   2.538  14.815 -0.3656  0.2583  0.1261
14454TIP3    H264854   3.045   2.664  14.844  0.8911  1.0808  0.0363
14455TIP3   OH264855   6.579   2.080  12.333 -0.3578 -0.2906  0.0368
14455TIP3    H164856   6.597   2.173  12.321 -0.1036 -0.3956 -0.3904
14455TIP3    H264857   6.520   2.077  12.408  1.0776  0.0893  1.2326
14456TIP3   OH264858   3.431   1.231  14.673 -0.0300  0.9211 -0.0726
14456TIP3    H164859   3.478   1.149  14.660  1.9657  2.0755 -0.6364
14456TIP3    H264860   3.341   1.212  14.646 -0.1835 -1.6159  1.8013
14457TIP3   OH264861   5.351   2.812  13.000  0.1329 -0.5946  0.4239
14457TIP3    H164862   5.264   2.813  12.960  0.1966  0.5133  0.2838
14457TIP3    H264863   5.410   2.787  12.929  0.2604  1.4659 -0.2516
14458TIP3   OH264864   2.365   4.659  17.035 -0.3079  0.0036 -0.1505
14458TIP3    H164865   2.444   4.668  17.089  0.3887 -1.0088 -0.9659
14458TIP3    H264866   2.325   4.746  17.037  0.5084  0.3823  0.7552
14459TIP3   OH264867   5.904   6.296   5.106  0.6240 -0.1475 -0.0526
14459TIP3    H164868   5.820   6.267   5.069  1.1871  0.9064 -2.3956
14459TIP3    H264869   5.960   6.219   5.101  0.3463 -0.3340 -0.3526
14460TIP3   OH264870   3.216   4.756   5.335 -0.0433 -0.1116  0.1726
14460TIP3    H164871   3.167   4.675   5.350 -0.2285 -0.6131 -2.6107
14460TIP3    H264872   3.265   4.770   5.416 -1.7523 -1.7398  1.5733
14461TIP3   OH264873   5.448   1.507  16.676  0.3910 -0.1207 -0.3002
14461TIP3    H164874   5.425   1.439  16.612 -0.2426 -0.0719 -0.1400
14461TIP3    H264875   5.369   1.561  16.682  0.4204 -0.1631  0.5701
14462TIP3   OH264876   3.017   1.992   2.206  0.5121  0.0378  0.5041
14462TIP3    H164877   2.931   1.977   2.168 -0.5198  0.8016  2.4189
14462TIP3    H264878   3.076   1.935   2.155 -1.3259 -1.6011  0.0831
14463TIP3   OH264879   2.722   1.790   5.150 -0.3962  0.0627 -0.2837
14463TIP3    H164880   2.664   1.860   5.121  0.9569  0.5600 -1.9876
14463TIP3    H264881   2.809   1.830   5.151 -0.0194 -0.6733  2.1503
14464TIP3   OH264882   3.692   2.659  14.803  0.1080 -0.1713 -0.1636
14464TIP3    H164883   3.762   2.691  14.746  1.3232  0.7402  1.7194
14464TIP3    H264884   3.737   2.636  14.885 -2.0378  2.6606  2.0030
14465TIP3   OH264885   2.436   4.170  14.655  0.3033  0.1698 -0.1014
14465TIP3    H164886   2.361   4.120  14.622  0.5921 -1.2922  1.3462
14465TIP3    H264887   2.400   4.257  14.672 -0.3625  0.3227 -2.0812
14466TIP3   OH264888   1.637   6.335   0.441  0.4609  0.3177 -0.0855
14466TIP3    H164889   1.588   6.411   0.408  0.9120  1.3813  1.5740
14466TIP3    H264890   1.725   6.369   0.459  0.4080 -0.3272  1.5984
14467TIP3   OH264891   1.612   6.583  13.190 -0.0752 -0.8801 -0.4531
14467TIP3    H164892   1.622   6.599  13.097  1.4210 -1.0412 -0.3400
14467TIP3    H264893   1.523   6.613  13.210  0.5201  1.7484 -1.3851
14468TIP3   OH264894   3.929   3.311   6.560  0.5088  0.4302 -0.0890
14468TIP3    H164895   3.943   3.331   6.467  1.1531  2.1790  0.3382
14468TIP3    H264896   3.993   3.243   6.580 -0.6195 -1.0205 -1.2416
14469TIP3   OH264897   2.590   6.072  15.083  0.5636 -0.1737 -0.4203
14469TIP3    H164898   2.508   6.087  15.131  1.4557 -0.1904  1.1873
14469TIP3    H264899   2.604   6.153  15.034  1.4527  1.4143  2.2336
14470TIP3   OH264900   4.350   6.662   0.981  0.3580  0.3080 -0.7095
14470TIP3    H164901   4.443   6.647   0.995  0.2095  0.3274  0.4086
14470TIP3    H264902   4.327   6.732   1.042 -0.2031  0.9614 -1.6423
14471TIP3   OH264903   5.700   5.513  16.750  0.1093 -0.3732  0.3567
14471TIP3    H164904   5.777   5.564  16.723  0.5206 -1.6931 -1.1264
14471TIP3    H264905   5.732   5.458  16.821  0.5899 -1.0151 -0.3446
14472TIP3   OH264906   3.327   2.067   3.513 -0.1245  0.3409  0.1571
14472TIP3    H164907   3.402   2.077   3.454 -0.3174 -0.4032 -0.2297
14472TIP3    H264908   3.349   2.120   3.589  0.3221  0.9806 -0.4077
14473TIP3   OH264909   0.148   1.822  13.249  0.6657 -0.7897 -0.3407
14473TIP3    H164910   0.109   1.893  13.300  0.9545 -0.3157 -0.7674
14473TIP3    H264911   0.241   1.846  13.243  1.0803 -1.9870  0.8175
14474TIP3   OH264912   6.376   5.250  15.811 -0.7976 -0.0281  0.4734
14474TIP3    H164913   6.338   5.208  15.734  0.6975  0.8756 -0.8203
14474TIP3    H264914   6.325   5.330  15.821 -1.0715 -0.2042  0.4907
14475TIP3   OH264915   1.818   0.190   5.466 -0.4657  0.6309  0.0220
14475TIP3    H164916   1.861   0.114   5.426  0.9678  0.1012  2.3162
14475TIP3    H264917   1.854   0.266   5.420 -2.0824  0.0112 -2.4619
14476TIP3   OH264918   3.052   1.291  15.878 -0.1422 -0.1223 -0.6519
14476TIP3    H164919   3.043   1.197  15.892  1.6310 -0.1824  0.2340
14476TIP3    H264920   3.109   1.298  15.801  0.4263  0.2198 -0.2029
14477TIP3   OH264921   3.685   2.366  12.673  0.2341  0.8607 -0.9156
14477TIP3    H164922   3.664   2.447  12.626 -0.2698  2.6153  2.0704
14477TIP3    H264923   3.663   2.385  12.764  0.5327 -2.5312 -0.0031
14478TIP3   OH264924   6.372   4.020  10.846  0.0410  0.2773  0.2802
14478TIP3    H164925   6.363   4.048  10.755 -0.8149  0.2267  0.3458
14478TIP3    H264926   6.299   4.063  10.891 -0.1413 -0.5184  0.7422
14479TIP3   OH264927   5.422   2.237  12.308 -0.5412  0.4422  0.2040
14479TIP3    H164928   5.403   2.307  12.371 -2.5802  0.2250 -0.1084
14479TIP3    H264929   5.515   2.248  12.289 -0.7568  3.0460  0.2016
14480TIP3   OH264930   0.506   3.019  14.134 -0.1968 -0.2383  0.5263
14480TIP3    H164931   0.591   3.057  14.156 -0.7534  0.9692  0.6844
14480TIP3    H264932   0.520   2.974  14.051  0.6501 -0.2307  0.6631
14481TIP3   OH264933   5.970   3.616  12.280 -0.1995  0.2549 -0.3373
14481TIP3    H164934   5.906   3.641  12.345 -1.0705 -2.2177 -0.1298
14481TIP3    H264935   6.046   3.672  12.298 -1.2800  1.3201  1.1821
14482TIP3   OH264936   4.082   4.819   3.220  0.0946 -0.0177  0.0407
14482TIP3    H164937   4.063   4.905   3.258 -0.3618 -0.6625  1.3297
14482TIP3    H264938   4.170   4.798   3.250  0.2610  0.0449 -0.3882
14483TIP3   OH264939   4.825   4.509   2.661 -0.2923  0.3051 -0.4578
14483TIP3    H164940   4.736   4.486   2.685 -0.3692  0.3523 -0.6966
14483TIP3    H264941   4.844   4.589   2.711 -0.7292  0.8472 -1.1489
14484TIP3   OH264942   5.604   2.043   2.212  0.2747 -0.8644 -0.4399
14484TIP3    H164943   5.525   2.070   2.258 -0.2603 -1.9408 -0.7079
14484TIP3    H264944   5.645   2.126   2.186 -0.1814 -0.2658  0.6453
14485TIP3   OH264945   5.997   4.063  14.069  0.0964  0.2665 -0.0681
14485TIP3    H164946   5.937   4.106  14.130 -2.2492 -1.2606 -1.1569
14485TIP3    H264947   5.946   4.052  13.989  1.8403 -1.1221 -1.0629
14486TIP3   OH264948   3.355   3.152  14.935 -0.3280 -0.2189  0.5714
14486TIP3    H164949   3.377   3.244  14.919 -1.1462  0.0611  1.0274
14486TIP3    H264950   3.368   3.140  15.029 -1.2582 -0.2784  0.6991
14487TIP3   OH264951   6.451   5.868   1.807 -0.2219  0.2091  0.1092
14487TIP3    H164952   6.364   5.857   1.769  0.2586  0.3427 -1.0717
14487TIP3    H264953   6.507   5.807   1.758  1.0487  2.6034 -1.6643
14488TIP3   OH264954   1.464   6.533  15.435 -0.3995  0.0835 -0.0538
14488TIP3    H164955   1.394   6.586  15.398 -0.3196  0.9477  0.9847
14488TIP3    H264956   1.543   6.561  15.389 -0.4148  0.6181  0.2413
14489TIP3   OH264957   1.727   1.216  11.242 -0.3386  0.2539 -0.4436
14489TIP3    H164958   1.682   1.132  11.256  0.3352 -0.1247 -0.5472
14489TIP3    H264959   1.764   1.209  11.154  0.3812  0.3592 -0.1486
14490TIP3   OH264960   3.090   5.643   4.671 -0.1323 -0.5736  0.3405
14490TIP3    H164961   2.995   5.633   4.662 -0.1814 -0.9107  1.1408
14490TIP3    H264962   3.124   5.627   4.583 -0.7327 -1.5376  0.2692
14491TIP3   OH264963   2.804   4.358   0.568  0.0274 -0.4254 -0.2403
14491TIP3    H164964   2.741   4.286   0.578  0.0594 -0.3534  0.5980
14491TIP3    H264965   2.889   4.315   0.559  0.2734 -0.5238  1.9066
14492TIP3   OH264966   6.679   5.283   6.108  0.0731  0.0863 -0.3839
14492TIP3    H164967   6.613   5.283   6.038 -1.5484 -2.0533  1.0323
14492TIP3    H264968   6.739   5.213   6.084  0.5631  0.5469 -0.5217
14493TIP3   OH264969   0.069   6.565   0.533  0.1341 -0.6683  0.4547
14493TIP3    H164970   0.163   6.577   0.548 -0.0433 -0.4510  1.4517
14493TIP3    H264971   0.062   6.554   0.438  0.9658  1.3225  0.0976
14494TIP3   OH264972   0.131   1.711  16.910 -0.3124  0.8187  0.4326
14494TIP3    H164973   0.068   1.756  16.853  0.4098  1.9707  0.5306
14494TIP3    H264974   0.177   1.781  16.956  2.3119  0.1324 -0.9479
14495TIP3   OH264975   1.395   4.144   3.274 -0.5503  0.0166 -0.7859
14495TIP3    H164976   1.309   4.102   3.281  0.4367 -1.8952  1.2143
14495TIP3    H264977   1.416   4.171   3.364  0.8845  0.5762 -1.2614
14496TIP3   OH264978   4.071   4.387  14.574  0.6777  0.4483 -0.8650
14496TIP3    H164979   4.148   4.336  14.549  2.7096  2.7875  0.1694
14496TIP3    H264980   4.104   4.476  14.587 -1.8828  1.2280  1.2966
14497TIP3   OH264981   4.232   4.196  16.968 -0.3771  0.7297 -0.5285
14497TIP3    H164982   4.219   4.137  16.894 -0.0163 -0.3571  0.2477
14497TIP3    H264983   4.145   4.208  17.006 -0.1649 -1.2483  0.7228
14498TIP3   OH264984   4.809   2.782  12.885  0.1137 -0.1944 -0.4563
14498TIP3    H164985   4.741   2.847  12.899 -0.4069 -0.5459 -1.3081
14498TIP3    H264986   4.891   2.832  12.885 -0.2240  0.3587 -0.4108
14499TIP3   OH264987   1.699   0.397  11.292  0.0771 -0.2622  0.0018
14499TIP3    H164988   1.632   0.386  11.360 -0.4279 -0.9321 -0.5970
14499TIP3    H264989   1.775   0.348  11.324  0.7250  1.4324  1.2314
14500TIP3   OH264990   1.809   5.639   2.588 -0.3588  0.5909  0.1469
14500TIP3    H164991   1.859   5.561   2.566  0.1397  0.7230  0.7759
14500TIP3    H264992   1.850   5.672   2.668  0.2236  2.1780 -0.7563
14501TIP3   OH264993   3.785   2.410  15.722 -0.0926  0.2431  0.1617
14501TIP3    H164994   3.794   2.441  15.632  2.3244 -0.2354  0.1577
14501TIP3    H264995   3.782   2.490  15.775  0.2557  0.5202 -0.2327
14502TIP3   OH264996   3.984   1.033  17.004 -0.1013  0.0894  0.9931
14502TIP3    H164997   3.920   1.097  16.972 -0.5711 -1.0352 -0.3860
14502TIP3    H264998   3.989   1.050  17.098 -1.2619  1.2212  0.8834
14503TIP3   OH264999   0.274   3.755  12.790 -0.0359  0.8264 -1.1352
14503TIP3    H165000   0.253   3.824  12.727  0.4646  0.1839 -2.0421
14503TIP3    H265001   0.347   3.708  12.749 -1.7971 -1.6598 -1.6595
14504TIP3   OH265002   1.946   5.029  13.793  0.1478  0.4393  0.0765
14504TIP3    H165003   1.911   5.117  13.811  0.7972  1.3898 -2.7952
14504TIP3    H265004   2.033   5.045  13.756  0.6283 -1.4878  0.2582
14505TIP3   OH265005   3.271   0.597  15.241 -0.3069 -0.0759 -0.0087
14505TIP3    H165006   3.364   0.587  15.262 -0.0757  0.2109 -0.8505
14505TIP3    H265007   3.226   0.587  15.325  0.2807 -2.7600  0.0924
14506TIP3   OH265008   6.095   5.181   3.746  0.0870  0.3878 -0.5054
14506TIP3    H165009   6.052   5.261   3.774 -1.3477 -0.3549 -0.5125
14506TIP3    H265010   6.044   5.150   3.671  0.8021 -0.3799 -0.7059
14507TIP3   OH265011   3.931   4.991  14.876  0.0232  0.2126  0.0713
14507TIP3    H165012   3.977   5.067  14.911 -1.2682  0.7853  0.5534
14507TIP3    H265013   3.938   5.001  14.781  1.9147 -0.3610  0.0986
14508TIP3   OH265014   2.779   5.813   3.122 -0.0045  0.0958  0.1823
14508TIP3    H165015   2.828   5.760   3.185 -0.8476 -1.3210 -0.3059
14508TIP3    H265016   2.773   5.759   3.044  0.3900  1.5359 -0.8964
14509TIP3   OH265017   3.323   2.163  11.171  0.5745  0.4251  0.7478
14509TIP3    H165018   3.391   2.214  11.128 -0.2128  0.8650  0.0138
14509TIP3    H265019   3.335   2.074  11.137 -0.4045  0.8742 -0.8860
14510TIP3   OH265020   0.013   0.812  11.712 -0.2427 -0.4499 -0.0408
14510TIP3    H165021   0.087   0.831  11.769 -0.5306  0.2420  0.1156
14510TIP3    H265022   0.041   0.737  11.660  0.7620  0.1115 -0.3313
14511TIP3   OH265023   0.375   3.663   5.554 -0.3194 -0.0152 -0.5151
14511TIP3    H165024   0.459   3.630   5.585 -0.0917  1.2039  0.2029
14511TIP3    H265025   0.335   3.588   5.510  0.8876 -0.7698 -0.3614
14512TIP3   OH265026   6.394   1.725  14.129 -0.8150 -0.2255 -0.1074
14512TIP3    H165027   6.414   1.658  14.063  1.9477 -0.1594  0.5518
14512TIP3    H265028   6.435   1.693  14.209  0.3995  2.0682  0.2937
14513TIP3   OH265029   4.817   0.636  15.743 -0.0424 -0.8191 -0.1780
14513TIP3    H165030   4.729   0.650  15.708 -0.2178 -3.2396 -0.8784
14513TIP3    H265031   4.802   0.617  15.836 -0.2185 -0.8289 -0.2073
14514TIP3   OH265032   4.298   6.024  12.604 -0.5147 -0.0809  0.3909
14514TIP3    H165033   4.382   6.059  12.575 -0.6291  0.4283  0.6734
14514TIP3    H265034   4.233   6.086  12.572 -0.6651  0.3395  1.4817
14515TIP3   OH265035   0.690   3.067  16.630 -0.3139 -0.6218 -0.5308
14515TIP3    H165036   0.683   3.157  16.598 -0.4530 -0.8524 -1.1647
14515TIP3    H265037   0.703   3.014  16.552  0.9010 -1.0492 -0.0723
14516TIP3   OH265038   5.418   0.090   3.243 -0.1929  0.0034  0.0868
14516TIP3    H165039   5.327   0.072   3.219  0.4131 -0.3068 -2.1785
14516TIP3    H265040   5.469   0.025   3.196  1.3395  1.4615 -0.3763
14517TIP3   OH265041   0.761   1.603  12.920 -0.0031  0.7481 -0.2390
14517TIP3    H165042   0.735   1.647  13.001  2.0947  2.8995 -0.6266
14517TIP3    H265043   0.840   1.553  12.945  0.7952  1.6170 -0.9559
14518TIP3   OH265044   4.419   2.034  15.022 -0.5016  0.4491  0.1851
14518TIP3    H165045   4.371   1.957  15.054  0.5118  0.5822  2.1877
14518TIP3    H265046   4.511   2.011  15.034 -0.1813  2.1769  1.4415
14519TIP3   OH265047   5.238   1.505   4.231 -0.7055  0.8985 -0.3103
14519TIP3    H165048   5.311   1.478   4.175 -1.1792 -0.5925 -0.2616
14519TIP3    H265049   5.160   1.484   4.180 -1.2140 -2.0251  1.4208
14520TIP3   OH265050   1.592   2.210  15.365 -0.4924  0.3442  0.6240
14520TIP3    H165051   1.496   2.210  15.366 -0.5266  0.2821 -0.9419
14520TIP3    H265052   1.616   2.295  15.328 -0.0159 -0.4263 -0.9339
14521TIP3   OH265053   1.446   0.453  15.319  0.7550 -0.0214 -0.1487
14521TIP3    H165054   1.488   0.433  15.235  0.2175 -0.9778 -0.2126
14521TIP3    H265055   1.367   0.398  15.320  0.8169 -0.1287  1.0297
14522TIP3   OH265056   2.374   3.475   2.406  0.4207  0.3276 -0.1649
14522TIP3    H165057   2.382   3.456   2.500  0.0754  0.0290 -0.1894
14522TIP3    H265058   2.418   3.559   2.394 -0.1196  0.6989  0.3834
14523TIP3   OH265059   3.197   1.549  10.707 -0.4349  0.1443 -0.2902
14523TIP3    H165060   3.255   1.497  10.762  0.5354  1.4164 -0.0488
14523TIP3    H265061   3.109   1.523  10.733  0.0044  0.4288  1.6355
14524TIP3   OH265062   0.490   4.017   1.821 -0.7201  0.5842  0.0874
14524TIP3    H165063   0.532   3.984   1.900  1.1616 -0.4971 -1.2784
14524TIP3    H265064   0.406   3.971   1.818 -0.9264  0.8126  1.5342
14525TIP3   OH265065   1.326   0.261  11.275 -0.0000 -0.1087  0.3535
14525TIP3    H165066   1.287   0.182  11.312  0.6789  0.0849  1.5524
14525TIP3    H265067   1.251   0.313  11.244 -0.5109 -0.8158  0.3883
14526TIP3   OH265068   2.661   0.020  11.390 -0.3055  0.4369  0.1227
14526TIP3    H165069   2.732  -0.010  11.446  0.3297  0.5693 -0.5940
14526TIP3    H265070   2.582  -0.016  11.430  0.2401 -0.4090  0.4764
14527TIP3   OH265071   5.760   3.710  15.898  0.2066  0.0223 -0.6045
14527TIP3    H165072   5.706   3.635  15.873  1.0683  0.0210 -2.7365
14527TIP3    H265073   5.837   3.672  15.939  0.4983 -0.2825 -1.4058
14528TIP3   OH265074   2.609   0.824  13.056 -0.4975 -0.2086  0.3681
14528TIP3    H165075   2.536   0.870  13.015 -0.7528 -0.3974  0.6064
14528TIP3    H265076   2.609   0.738  13.013 -0.2349 -0.1068  0.1630
14529TIP3   OH265077   3.396   2.593   2.967  0.6984 -0.3242 -0.3135
14529TIP3    H165078   3.486   2.574   2.992  1.0663 -0.5689 -1.7133
14529TIP3    H265079   3.402   2.626   2.878 -0.5684  0.0395 -0.2895
14530TIP3   OH265080   6.749   4.214  14.369 -0.0784 -0.0022  0.2213
14530TIP3    H165081   6.674   4.214  14.428 -1.2317  4.7378 -0.8070
14530TIP3    H265082   6.825   4.230  14.425 -0.5789  0.3698  0.7969
14531TIP3   OH265083   5.839   5.545   2.580 -0.5458 -0.3309  0.1090
14531TIP3    H165084   5.835   5.491   2.501 -1.1897  0.1368 -0.1819
14531TIP3    H265085   5.930   5.574   2.585 -0.9550  1.5137 -1.7363
14532TIP3   OH265086   5.144   3.808   3.807 -0.3799 -0.1884  0.5999
14532TIP3    H165087   5.141   3.828   3.713 -0.1507  0.7355  0.7838
14532TIP3    H265088   5.217   3.747   3.816  0.5424  0.8465  0.3658
14533TIP3   OH265089   0.534   4.546   3.423 -0.1016 -0.1777  0.4806
14533TIP3    H165090   0.460   4.534   3.363  1.9646  2.4062 -2.9209
14533TIP3    H265091   0.554   4.457   3.454 -0.6664 -1.9497 -3.5700
14534TIP3   OH265092   0.987   3.466  17.188 -0.0740  0.0208 -0.1897
14534TIP3    H165093   1.003   3.491  17.279 -0.2964 -0.2609 -0.0689
14534TIP3    H265094   1.042   3.389  17.174  0.8586  0.7546 -0.6560
14535TIP3   OH265095   5.849   5.860  10.718 -0.1813 -0.2739  1.0315
14535TIP3    H165096   5.940   5.862  10.690 -0.6702  0.0445 -0.6588
14535TIP3    H265097   5.818   5.773  10.692 -0.7615  0.1827  0.1414
14536TIP3   OH265098   5.720   3.001   4.892 -0.3312  0.4988 -0.0862
14536TIP3    H165099   5.697   2.908   4.904  0.7147  0.3604  0.9529
14536TIP3    H265100   5.807   2.999   4.853  1.0043  1.0208  2.6882
14537TIP3   OH265101   1.587   2.841   4.721 -0.0413  0.3385  0.3097
14537TIP3    H165102   1.586   2.918   4.664  1.9870 -0.0128 -0.2885
14537TIP3    H265103   1.669   2.849   4.770 -0.2206 -0.9933  0.8651
14538TIP3   OH265104   5.555   3.050   0.447  0.2931  0.3612  0.2677
14538TIP3    H165105   5.491   3.030   0.379 -1.3102  1.7847  1.2719
14538TIP3    H265106   5.572   2.966   0.490  1.0793 -0.4919 -1.6179
14539TIP3   OH265107   2.800   6.785  14.916 -0.4663  0.4537 -0.2134
14539TIP3    H165108   2.759   6.852  14.971  2.6661  1.3397  1.2691
14539TIP3    H265109   2.876   6.756  14.966  1.2109 -0.4694 -3.0618
14540TIP3   OH265110   4.126   1.425   3.519  0.5788 -0.2022  0.5956
14540TIP3    H165111   4.219   1.440   3.504  0.7248 -1.1761  0.4312
14540TIP3    H265112   4.085   1.510   3.506  1.4258  0.2016  0.5050
14541TIP3   OH265113   5.351   4.816   2.352  0.0423  0.0745 -0.0285
14541TIP3    H165114   5.306   4.871   2.288  1.2823  1.2103  0.0325
14541TIP3    H265115   5.431   4.864   2.373  1.9349 -2.4042 -1.0474
14542TIP3   OH265116   1.367   6.757  15.263 -0.0438  0.5080  0.3160
14542TIP3    H165117   1.330   6.836  15.224  1.3723  1.8325  1.5559
14542TIP3    H265118   1.413   6.714  15.191 -1.0687  0.6121 -0.4345
14543TIP3   OH265119   2.151   5.261   5.539 -0.2046 -0.1197 -0.0516
14543TIP3    H165120   2.140   5.228   5.450  0.4492 -3.0123  0.8283
14543TIP3    H265121   2.243   5.288   5.544 -0.3529  0.4578 -0.3483
14544TIP3   OH265122   2.258   1.631  16.678 -0.5235  0.6619  0.2717
14544TIP3    H165123   2.340   1.652  16.633  0.1859  1.4557  1.8819
14544TIP3    H265124   2.194   1.690  16.639 -0.3324  0.1029 -0.9313
14545TIP3   OH265125   2.262   5.560  14.570  0.4116 -0.1990  0.2268
14545TIP3    H165126   2.303   5.636  14.612  1.8357 -0.6431 -0.3354
14545TIP3    H265127   2.275   5.574  14.476  0.5802 -1.0772  0.1119
14546TIP3   OH265128   5.196   4.721  16.302 -0.1780 -0.3736 -0.0150
14546TIP3    H165129   5.250   4.798  16.283  0.1053 -1.1654 -2.9829
14546TIP3    H265130   5.184   4.722  16.397  0.4385  2.8660  0.1218
14547TIP3   OH265131   4.338   3.599   3.786 -0.4511 -0.2479 -0.0308
14547TIP3    H165132   4.408   3.613   3.722 -1.4126  1.4674 -0.7710
14547TIP3    H265133   4.322   3.504   3.783 -0.0451 -0.3040 -1.9079
14548TIP3   OH265134   6.489   3.876  12.509  0.4663  0.3078 -0.5819
14548TIP3    H165135   6.540   3.930  12.570  1.4056 -0.6950 -0.4601
14548TIP3    H265136   6.415   3.845  12.562  1.2469 -0.5133  0.0438
14549TIP3   OH265137   3.198   2.470  14.281 -0.1778 -0.0861 -0.2524
14549TIP3    H165138   3.216   2.564  14.284  2.5577 -0.5531  0.6508
14549TIP3    H265139   3.227   2.437  14.366  0.2949 -1.9633 -1.0799
14550TIP3   OH265140   2.710   1.931   4.878  0.0098  0.2965 -0.7951
14550TIP3    H165141   2.618   1.957   4.889 -0.0060 -0.3273  0.9269
14550TIP3    H265142   2.708   1.871   4.803 -1.4190 -1.4415  0.5272
14551TIP3   OH265143   6.482   2.875   4.926  0.1519 -0.0857  0.6270
14551TIP3    H165144   6.409   2.813   4.925 -1.5797  1.8410  0.7320
14551TIP3    H265145   6.443   2.959   4.904  2.3823  1.0349  0.6165
14552TIP3   OH265146   0.958   6.045  13.552  0.1048 -0.2234 -0.5773
14552TIP3    H165147   0.913   5.973  13.596 -0.5650 -0.1220 -1.0813
14552TIP3    H265148   0.921   6.124  13.591 -0.4394 -0.1349 -1.2569
14553TIP3   OH265149   5.841   2.449   3.897  0.0955 -0.1823 -0.3533
14553TIP3    H165150   5.826   2.525   3.842  0.3730 -0.3716 -0.6934
14553TIP3    H265151   5.929   2.420   3.875  0.7259  0.4967  1.0984
14554TIP3   OH265152   4.170   5.005  15.219  0.2037  0.1935 -0.3445
14554TIP3    H165153   4.129   4.924  15.189  0.0982  0.2386 -0.3220
14554TIP3    H265154   4.124   5.074  15.172 -0.2850  0.2946  0.2841
14555TIP3   OH265155   6.690   3.184  16.395  0.3095  0.0935  0.1533
14555TIP3    H165156   6.758   3.252  16.390  0.9829 -0.6298 -0.9417
14555TIP3    H265157   6.732   3.105  16.362 -0.8587 -0.5473  0.1335
14556TIP3   OH265158   2.832   3.566  16.735 -0.1398 -0.0495  0.1209
14556TIP3    H165159   2.848   3.586  16.643 -0.7439  2.0314  0.3922
14556TIP3    H265160   2.903   3.610  16.782 -0.0651 -0.7449  0.6711
14557TIP3   OH265161   5.392   1.929  15.033 -0.4051 -0.4407  0.4705
14557TIP3    H165162   5.418   1.909  15.123 -2.1426 -1.0456  0.8875
14557TIP3    H265163   5.338   1.854  15.006 -0.8670  0.2542 -0.6604
14558TIP3   OH265164   5.497   5.331  11.942 -0.2181 -0.7789  0.4507
14558TIP3    H165165   5.403   5.342  11.926 -0.2498  1.1697  1.6767
14558TIP3    H265166   5.533   5.305  11.857 -1.9443 -2.3283  0.1417
14559TIP3   OH265167   1.116   1.966  11.356  0.0300  0.0312 -0.0049
14559TIP3    H165168   1.131   2.027  11.427 -0.5704 -0.4785  0.5773
14559TIP3    H265169   1.129   2.018  11.276 -0.4894  0.9212  0.4746
14560TIP3   OH265170   4.194   6.059  14.298 -0.4184  0.1032  0.2261
14560TIP3    H165171   4.113   6.024  14.334 -0.5713  0.4631  0.2328
14560TIP3    H265172   4.171   6.083  14.208 -0.4860  0.7828  0.4190
14561TIP3   OH265173   1.335   4.587  15.581  0.1681  0.7314  0.1540
14561TIP3    H165174   1.360   4.669  15.540 -0.1486  1.1965  0.8678
14561TIP3    H265175   1.418   4.538  15.589  0.3431  0.9398 -0.3414
14562TIP3   OH265176   3.633   2.161  14.860  0.0593  0.1698 -1.1122
14562TIP3    H165177   3.541   2.165  14.833 -0.0335  0.7619 -0.7175
14562TIP3    H265178   3.632   2.110  14.941 -0.2988  2.4727  0.4191
14563TIP3   OH265179   4.199   6.131  13.523  0.2699  0.5874 -0.0061
14563TIP3    H165180   4.186   6.167  13.435 -0.3646 -1.0038 -0.5799
14563TIP3    H265181   4.288   6.096  13.521 -0.6769 -1.9428 -0.9677
14564TIP3   OH265182   2.238   2.196   1.928 -0.5811 -0.0385 -0.3564
14564TIP3    H165183   2.301   2.226   1.993  0.6204 -0.5123 -1.2543
14564TIP3    H265184   2.211   2.110   1.959 -0.5154  0.0107 -0.1589
14565TIP3   OH265185   0.706   6.249   2.283  0.1548 -0.3880  0.1742
14565TIP3    H165186   0.644   6.320   2.298 -1.0055 -1.4048  0.4070
14565TIP3    H265187   0.655   6.169   2.300  0.5033 -1.4201 -3.0594
14566TIP3   OH265188   5.103   1.243  13.014 -0.3539 -0.4420  0.4805
14566TIP3    H165189   5.023   1.243  13.067 -0.8130  0.0260 -0.2018
14566TIP3    H265190   5.086   1.178  12.945 -0.8138  0.8282 -0.6344
14567TIP3   OH265191   0.403   3.544   2.025 -0.2589  0.2295 -0.8774
14567TIP3    H165192   0.412   3.636   2.000 -1.0667  0.2601 -1.0584
14567TIP3    H265193   0.329   3.543   2.086  1.4626  0.1235  1.3535
14568TIP3   OH265194   4.158   6.024   5.778 -0.7162 -0.4841 -0.4403
14568TIP3    H165195   4.140   6.117   5.760  0.4614  0.0317  0.8483
14568TIP3    H265196   4.136   5.979   5.697 -0.9532  0.9775 -1.2206
14569TIP3   OH265197   3.415   4.588   3.484 -0.5137  0.1708  0.7491
14569TIP3    H165198   3.337   4.620   3.529 -0.1147 -0.6914  2.1356
14569TIP3    H265199   3.384   4.567   3.395 -1.3436  1.8409  0.5978
14570TIP3   OH265200   6.249   0.818   3.529  0.4726  0.1900 -0.2393
14570TIP3    H165201   6.196   0.747   3.565  0.4260  0.2378 -0.2140
14570TIP3    H265202   6.189   0.893   3.525  0.7891  0.5010  0.6669
14571TIP3   OH265203   4.954   4.454  16.316  0.3106 -0.0414  0.0201
14571TIP3    H165204   5.028   4.467  16.376 -1.7040  0.0605  2.6542
14571TIP3    H265205   4.961   4.363  16.288  0.3828 -0.6279  1.8271
14572TIP3   OH265206   0.917   0.744  17.095  0.3659  0.1537 -0.1742
14572TIP3    H165207   0.837   0.755  17.147 -0.2182 -1.2042 -0.7274
14572TIP3    H265208   0.927   0.826  17.048 -2.0903 -0.4681 -1.9521
14573TIP3   OH265209   2.441   0.236  10.360  0.4839 -0.0729 -0.1209
14573TIP3    H165210   2.503   0.309  10.366  1.4002 -0.8773  0.4366
14573TIP3    H265211   2.355   0.278  10.367  1.0127  0.8893  1.1359
14574TIP3   OH265212   4.982   2.345   3.005  0.3876 -0.3602 -0.3511
14574TIP3    H165213   5.039   2.417   3.033  1.2011 -0.4881 -1.5817
14574TIP3    H265214   5.037   2.292   2.948 -0.5777 -1.2610 -0.4670
14575TIP3   OH265215   3.783   5.436  16.261  0.4531  0.3500  0.6038
14575TIP3    H165216   3.856   5.492  16.236 -0.1971  1.3260  0.8579
14575TIP3    H265217   3.721   5.494  16.305 -0.7324 -0.3442 -0.0883
14576TIP3   OH265218   2.732   3.853   3.734 -0.0268 -0.0215  0.0004
14576TIP3    H165219   2.782   3.925   3.696  2.3990 -1.6060 -0.0333
14576TIP3    H265220   2.715   3.794   3.660 -0.2817 -0.4220  0.3737
14577TIP3   OH265221   6.759   0.595   1.793  0.2056 -0.3107  0.4682
14577TIP3    H165222   6.762   0.644   1.711 -0.4269  0.6681  1.0061
14577TIP3    H265223   6.724   0.510   1.769 -1.1479  0.3768 -0.1143
14578TIP3   OH265224   2.154   2.158   5.977 -0.2113  0.0535 -0.3956
14578TIP3    H165225   2.112   2.229   5.928 -1.3456 -1.3061 -1.4780
14578TIP3    H265226   2.100   2.149   6.056 -0.1185  0.3270 -0.2998
14579TIP3   OH265227   3.798   5.243   4.357  0.1477 -0.2256  0.2552
14579TIP3    H165228   3.831   5.281   4.276  0.6129 -0.3074  0.4002
14579TIP3    H265229   3.838   5.296   4.426 -0.6602  0.1757  0.4248
14580TIP3   OH265230   5.255   3.149  13.308 -0.1909 -0.1084  0.0202
14580TIP3    H165231   5.276   3.198  13.228  1.9989 -1.2532 -0.1709
14580TIP3    H265232   5.292   3.202  13.379  0.1628 -0.3495  0.0197
14581TIP3   OH265233   5.371   4.807   1.193 -0.1971 -0.7977 -0.3058
14581TIP3    H165234   5.417   4.762   1.121 -0.4236 -1.8039  0.1582
14581TIP3    H265235   5.385   4.900   1.175 -1.0556 -0.9835 -2.1980
14582TIP3   OH265236   6.807   0.619  13.422  0.2616 -0.1936 -0.0427
14582TIP3    H165237   6.902   0.608  13.430  0.3094 -0.2805 -0.6214
14582TIP3    H265238   6.793   0.632  13.328 -0.3048 -0.2272  0.0344
14583TIP3   OH265239   6.468   3.356  16.333  0.2943 -0.3852 -0.3680
14583TIP3    H165240   6.414   3.300  16.388  0.4584  0.1908  0.3909
14583TIP3    H265241   6.556   3.321  16.343  0.0542 -1.5978 -1.9453
14584TIP3   OH265242   0.214   1.844  16.633  0.1108 -0.8263  0.1576
14584TIP3    H165243   0.269   1.809  16.703  2.3384 -2.8742 -2.3963
14584TIP3    H265244   0.166   1.767  16.600 -1.9969  0.3470  0.2595
14585TIP3   OH265245   4.438   3.516  10.535 -0.5521  0.3100 -0.1741
14585TIP3    H165246   4.343   3.505  10.543 -0.5422 -1.4036 -1.5727
14585TIP3    H265247   4.463   3.451  10.469  1.9117 -0.8500  1.7538
14586TIP3   OH265248   2.597   4.774  15.138 -0.2080  0.3582 -0.3731
14586TIP3    H165249   2.670   4.836  15.133  1.5297 -1.4435  0.9330
14586TIP3    H265250   2.586   4.758  15.232 -0.8451 -1.0068 -0.6571
14587TIP3   OH265251   1.880   1.129  14.410  0.1615  0.2456  0.3269
14587TIP3    H165252   1.914   1.049  14.449 -0.4027 -0.1004  0.1246
14587TIP3    H265253   1.947   1.195  14.427  0.0747  0.0238  1.5666
14588TIP3   OH265254   6.669   3.098   0.617 -0.6313  0.3867 -0.0065
14588TIP3    H165255   6.664   3.117   0.523 -1.1962 -3.2487 -0.8579
14588TIP3    H265256   6.747   3.145   0.646  0.2759  0.6603 -2.5756
14589TIP3   OH265257   6.788   5.556  14.152  0.0374  0.2238 -0.3373
14589TIP3    H165258   6.790   5.464  14.179 -0.4054  0.4076  0.3461
14589TIP3    H265259   6.843   5.601  14.217 -0.0406  0.4928 -0.4586
14590TIP3   OH265260   2.047   5.462   0.209  0.9579 -0.1124 -0.7781
14590TIP3    H165261   2.115   5.524   0.232  1.0633  0.1256 -1.7368
14590TIP3    H265262   1.967   5.498   0.248  1.2185  0.0312 -0.3713
14591TIP3   OH265263   1.720   5.103   3.134  0.1478 -0.6618 -0.3318
14591TIP3    H165264   1.767   5.155   3.200 -0.5363  0.1018 -0.4239
14591TIP3    H265265   1.629   5.130   3.143 -0.5408 -3.0792  0.7487
14592TIP3   OH265266   5.366   0.292  15.626 -0.3511  0.0898 -0.4049
14592TIP3    H165267   5.279   0.325  15.604 -0.9113 -1.6457 -1.0035
14592TIP3    H265268   5.367   0.288  15.722  0.0427  2.4499 -0.2372
14593TIP3   OH265269   6.143   1.180  11.930 -0.0785 -0.0008 -0.0983
14593TIP3    H165270   6.183   1.117  11.870  0.1729 -1.0502  1.1328
14593TIP3    H265271   6.071   1.218  11.880  0.3667 -0.5574 -1.1963
14594TIP3   OH265272   3.295   3.171   5.848 -0.1291 -0.2814  0.4168
14594TIP3    H165273   3.268   3.109   5.781  0.2078 -0.5975  0.5708
14594TIP3    H265274   3.375   3.134   5.885 -0.1307  0.0535  0.7692
14595TIP3   OH265275   0.796   6.631  12.665 -0.1376 -0.1374 -0.0472
14595TIP3    H165276   0.779   6.721  12.634 -1.3689 -0.8292 -1.5583
14595TIP3    H265277   0.789   6.578  12.586 -0.4177 -1.6851  0.9851
14596TIP3   OH265278   2.561   4.956   6.059  0.0228  0.1773 -0.2600
14596TIP3    H165279   2.536   4.943   6.151  0.7173 -0.7811 -0.1862
14596TIP3    H265280   2.562   4.868   6.022  0.2609  0.5050 -1.0562
14597TIP3   OH265281   0.008   2.934   5.983 -0.0750 -0.1868 -0.1427
14597TIP3    H165282   0.027   3.014   5.933  1.0615  1.0773  2.1751
14597TIP3    H265283   0.094   2.902   6.010 -0.6018 -1.5304 -0.0154
14598TIP3   OH265284   2.501   6.332  13.062 -0.1293  0.1733  0.0373
14598TIP3    H165285   2.419   6.323  13.013 -1.6258 -0.7064  2.4624
14598TIP3    H265286   2.487   6.411  13.116  0.9794  0.4787 -0.0972
14599TIP3   OH265287   0.245   1.958   0.052 -0.5258 -0.2330  0.0759
14599TIP3    H165288   0.255   1.863   0.040 -0.0463  0.0959 -3.0073
14599TIP3    H265289   0.229   1.969   0.145 -0.1211 -3.3054  0.6116
14600TIP3   OH265290   0.182   2.388   1.897  0.4712  0.6712  0.4124
14600TIP3    H165291   0.203   2.310   1.949 -0.1048 -0.2960 -0.7772
14600TIP3    H265292   0.182   2.358   1.807  1.1567  2.2667 -0.1569
14601TIP3   OH265293   6.297   5.698   2.992  0.0867  0.4202 -0.1630
14601TIP3    H165294   6.313   5.661   2.905 -1.1195  1.3266 -0.7993
14601TIP3    H265295   6.204   5.717   2.994  0.3032  1.5365  0.8864
14602TIP3   OH265296   5.588   1.829   0.504 -0.4621 -0.1604  0.4168
14602TIP3    H165297   5.588   1.859   0.413 -1.9373 -0.0261  0.4410
14602TIP3    H265298   5.505   1.862   0.540 -0.4597 -1.2427  1.4610
14603TIP3   OH265299   2.594   3.964  13.651  0.3667 -0.0947 -0.2725
14603TIP3    H165300   2.590   3.893  13.715 -1.1819  0.3256  0.1393
14603TIP3    H265301   2.503   3.979  13.626  0.5127  2.4356  0.4557
14604TIP3   OH265302   1.498   1.499  15.350  0.0344 -0.3982 -0.1698
14604TIP3    H165303   1.576   1.444  15.360  0.3018 -0.0671 -0.4303
14604TIP3    H265304   1.506   1.537  15.263  0.7862  1.4843  0.6754
14605TIP3   OH265305   5.128   5.963   2.348 -0.1389  0.8946 -0.6766
14605TIP3    H165306   5.116   5.971   2.443 -0.1867 -1.3384 -0.4264
14605TIP3    H265307   5.075   5.887   2.325  1.2339  0.3545 -2.1989
14606TIP3   OH265308   6.076   5.074  10.565  0.0875 -0.2656 -0.7509
14606TIP3    H165309   5.986   5.105  10.573 -0.2304 -1.3126 -0.1113
14606TIP3    H265310   6.105   5.105  10.479 -0.3106  1.4866 -0.2923
14607TIP3   OH265311   5.732   4.819  12.266 -0.2373 -0.4899  0.5651
14607TIP3    H165312   5.689   4.846  12.347 -4.1532 -0.1088 -1.3921
14607TIP3    H265313   5.759   4.728  12.283  1.4271  0.3559  3.0290
14608TIP3   OH265314   3.233   2.554   1.002  0.8100  0.0845 -0.1093
14608TIP3    H165315   3.324   2.584   1.006  1.0846 -0.3952 -2.0769
14608TIP3    H265316   3.224   2.516   0.915 -1.1587 -0.3074  0.2319
14609TIP3   OH265317   5.239   0.335   3.151  0.2954 -0.3369  0.5360
14609TIP3    H165318   5.334   0.347   3.151  0.1197  1.3258  0.6303
14609TIP3    H265319   5.224   0.263   3.212  1.5647 -1.5084 -0.4740
14610TIP3   OH265320   4.373   1.557  12.970 -0.0199 -0.7070 -0.6609
14610TIP3    H165321   4.420   1.501  13.032 -0.2915 -1.6868 -1.3201
14610TIP3    H265322   4.287   1.516  12.962 -1.1999  1.3053  0.8827
14611TIP3   OH265323   2.920   4.304  14.694 -0.1533 -0.7399  0.2858
14611TIP3    H165324   2.918   4.209  14.691  0.5627 -0.7509  0.1917
14611TIP3    H265325   3.011   4.327  14.712 -0.4464 -0.0942  1.0295
14612TIP3   OH265326   2.774   2.315  16.956 -0.2980 -0.3919 -0.1619
14612TIP3    H165327   2.862   2.350  16.940 -0.4602  1.2003  1.9568
14612TIP3    H265328   2.725   2.390  16.989 -1.2387 -2.1504  2.7486
14613TIP3   OH265329   6.424   4.892   5.530 -0.0144  0.4385 -0.2190
14613TIP3    H165330   6.345   4.938   5.502  0.3173  0.6539 -0.7974
14613TIP3    H265331   6.420   4.808   5.484 -0.7881 -0.2701  1.0827
14614TIP3   OH265332   1.974   2.438  13.914 -0.0958 -0.1053  0.2693
14614TIP3    H165333   1.967   2.347  13.944 -1.9439 -0.4778 -1.0922
14614TIP3    H265334   1.957   2.433  13.820  3.2770  1.2578 -0.5537
14615TIP3   OH265335   5.443   0.977  14.274  0.1629 -0.2917  0.3033
14615TIP3    H165336   5.399   0.914  14.217 -1.0454 -0.0702  0.9579
14615TIP3    H265337   5.418   1.063  14.239 -1.0330 -0.1390  1.4283
14616TIP3   OH265338   5.464   6.487  16.790  0.2161 -0.5500  0.2809
14616TIP3    H165339   5.371   6.463  16.792  0.7078 -2.8736 -1.0382
14616TIP3    H265340   5.476   6.531  16.706  0.6775 -2.2477 -0.5872
14617TIP3   OH265341   0.740   0.273   1.986  0.4762 -0.3180  0.3345
14617TIP3    H165342   0.675   0.339   1.962  0.0399 -1.2142 -1.1088
14617TIP3    H265343   0.806   0.320   2.037 -1.2358  0.6448  1.7745
14618TIP3   OH265344   2.837   5.884   4.708  0.1061  0.0862 -0.1855
14618TIP3    H165345   2.834   5.803   4.656 -1.0818  0.1394 -0.2271
14618TIP3    H265346   2.913   5.931   4.674  0.6269 -0.8711 -0.3779
14619TIP3   OH265347   3.710   6.448  12.028  0.0242  0.0119 -0.0888
14619TIP3    H165348   3.678   6.394  11.956 -0.5775 -1.4269  1.2010
14619TIP3    H265349   3.659   6.529  12.022 -0.7804 -0.5255 -0.6261
14620TIP3   OH265350   1.432   4.052  16.531  0.1331 -0.4247 -0.2531
14620TIP3    H165351   1.450   3.963  16.562  1.2238 -0.3380 -0.6295
14620TIP3    H265352   1.497   4.107  16.574 -0.7450  0.2599  0.2414
14621TIP3   OH265353   0.326   1.417  15.012 -0.3680 -0.3181  0.1260
14621TIP3    H165354   0.341   1.511  15.001  0.4462 -0.5236 -0.7240
14621TIP3    H265355   0.403   1.386  15.060 -0.0381 -0.7401 -0.6600
14622TIP3   OH265356   1.576   2.421   0.095  0.1229 -0.1765  0.6579
14622TIP3    H165357   1.639   2.486   0.064 -2.2069  1.2281 -1.4256
14622TIP3    H265358   1.559   2.365   0.019  1.2587 -2.6945  2.1011
14623TIP3   OH265359   4.139   4.183   1.929 -0.5481 -0.6369 -0.1505
14623TIP3    H165360   4.218   4.237   1.932 -0.3869 -0.9124  0.8726
14623TIP3    H265361   4.146   4.135   1.847 -0.9073  1.2004 -1.3274
14624TIP3   OH265362   2.486   0.705  12.553  0.7675  0.2765 -0.0277
14624TIP3    H165363   2.426   0.631  12.557  1.7312 -0.6464 -1.8661
14624TIP3    H265364   2.452   0.760  12.482  2.0484 -0.2281 -1.0447
14625TIP3   OH265365   0.576   4.529  16.188 -0.1789  0.0631  0.0727
14625TIP3    H165366   0.636   4.556  16.257 -1.0136  1.1698  0.3875
14625TIP3    H265367   0.611   4.570  16.109  0.4905 -0.7948 -0.1001
14626TIP3   OH265368   6.023   0.412  15.397 -0.0175 -0.4108 -0.3211
14626TIP3    H165369   5.967   0.490  15.403  1.0946  0.4468 -0.8380
14626TIP3    H265370   6.072   0.412  15.478  1.7724  0.8640 -1.3364
14627TIP3   OH265371   4.308   1.009  16.573  0.0188  0.6460 -0.2187
14627TIP3    H165372   4.251   0.937  16.544  1.4595 -0.4670 -0.3790
14627TIP3    H265373   4.259   1.049  16.645 -0.2954 -1.3122  0.7541
14628TIP3   OH265374   3.518   0.013   2.419 -0.6385 -0.6049 -0.5042
14628TIP3    H165375   3.593   0.068   2.396 -0.0525 -1.1292  0.0962
14628TIP3    H265376   3.550  -0.077   2.406 -1.5381 -0.8161 -1.3453
14629TIP3   OH265377   3.833   0.233   4.446 -0.0278 -0.2578 -0.0696
14629TIP3    H165378   3.830   0.328   4.460 -1.5369 -0.2130 -0.5081
14629TIP3    H265379   3.820   0.195   4.533  1.8653 -0.0932  0.3098
14630TIP3   OH265380   5.056   3.718  10.110  0.3113  0.6451 -0.1243
14630TIP3    H165381   5.039   3.772  10.187 -0.2551 -0.4092  0.5063
14630TIP3    H265382   5.071   3.781  10.039  1.3631  1.6428  0.9414
14631TIP3   OH265383   5.388   0.861  11.779  0.2850  0.1195 -0.2106
14631TIP3    H165384   5.473   0.901  11.760  0.1527  0.8290  0.6137
14631TIP3    H265385   5.324   0.927  11.753  0.0837  0.9219  2.0434
14632TIP3   OH265386   4.406   0.680   5.156  0.3901  0.2609  0.0485
14632TIP3    H165387   4.416   0.590   5.187  1.2223  0.5732  0.7062
14632TIP3    H265388   4.463   0.732   5.213 -0.2083  1.2307 -0.2150
14633TIP3   OH265389   2.661   6.800  16.823 -0.0789  0.8055 -0.0237
14633TIP3    H165390   2.752   6.819  16.848  0.1456 -0.2377  0.0115
14633TIP3    H265391   2.669   6.745  16.745 -0.6778  0.4991  0.1279
14634TIP3   OH265392   2.188   5.597   0.943 -0.0263 -0.4088 -0.1199
14634TIP3    H165393   2.226   5.657   0.880  1.1882 -0.6538  0.3412
14634TIP3    H265394   2.248   5.521   0.943 -1.4608 -1.5938 -0.6227
14635TIP3   OH265395   3.346   0.198   3.370  0.8169  0.2098 -0.0625
14635TIP3    H165396   3.279   0.159   3.314  0.1207 -0.8818  1.4653
14635TIP3    H265397   3.414   0.227   3.309 -0.1070 -0.5115 -1.4943
14636TIP3   OH265398   2.158   4.553  14.194 -0.3497 -0.3987  0.1277
14636TIP3    H165399   2.131   4.472  14.238  1.2954 -0.3795  1.2832
14636TIP3    H265400   2.077   4.591  14.161 -1.3011 -1.9101  0.6178
14637TIP3   OH265401   0.609   5.195  14.846 -0.0359 -0.0514 -0.3530
14637TIP3    H165402   0.612   5.184  14.751 -0.8633  0.3741 -0.4348
14637TIP3    H265403   0.665   5.270  14.863  1.0646 -0.8414 -0.3700
14638TIP3   OH265404   6.683   2.197   0.843 -0.3680  0.2586  0.7267
14638TIP3    H165405   6.774   2.209   0.819 -0.5900 -1.4960 -1.2377
14638TIP3    H265406   6.637   2.268   0.799 -0.3704 -1.0853 -1.5534
14639TIP3   OH265407   2.462   3.840   6.038 -0.1239  0.2221  0.1381
14639TIP3    H165408   2.465   3.857   5.944  0.0554 -0.5689 -0.0063
14639TIP3    H265409   2.457   3.927   6.078  0.1867  0.5812 -0.5847
14640TIP3   OH265410   1.553   5.126   5.037 -0.2635 -0.6546  0.0604
14640TIP3    H165411   1.646   5.141   5.056  0.7692 -3.2967 -2.2253
14640TIP3    H265412   1.546   5.138   4.942 -1.7673 -2.4121 -0.1130
14641TIP3   OH265413   5.323   0.606   2.665  0.3541 -0.5618  0.1395
14641TIP3    H165414   5.356   0.541   2.728 -1.7305 -3.5632 -1.5854
14641TIP3    H265415   5.228   0.595   2.668 -0.0101  1.7496 -1.0171
14642TIP3   OH265416   6.085   1.514   3.112  0.4507  0.3585  0.1946
14642TIP3    H165417   6.112   1.590   3.061 -0.2352  0.7877  0.4546
14642TIP3    H265418   6.152   1.448   3.095  0.0613  0.3766 -1.5170
14643TIP3   OH265419   3.519   5.115   3.245 -0.7820 -0.2351 -0.1541
14643TIP3    H165420   3.549   5.050   3.182  0.5520 -0.4704  0.6815
14643TIP3    H265421   3.510   5.067   3.327 -1.5198  0.2800  0.0818
14644TIP3   OH265422   0.220   2.583   5.987 -0.4330 -0.5599 -0.1317
14644TIP3    H165423   0.273   2.662   5.991 -2.6593  1.1254 -1.4472
14644TIP3    H265424   0.283   2.511   5.984  1.6883  1.2197  0.0158
14645TIP3   OH265425   1.892   4.206   2.408 -0.3145 -0.4844  0.6372
14645TIP3    H165426   1.803   4.239   2.420 -0.3017 -0.0439 -0.4361
14645TIP3    H265427   1.883   4.132   2.348 -0.2353 -1.9885  2.3696
14646TIP3   OH265428   5.290   1.397   1.895 -0.3893 -0.6852 -0.3775
14646TIP3    H165429   5.297   1.345   1.815 -0.1292 -0.6526 -0.3777
14646TIP3    H265430   5.237   1.473   1.870 -0.8111 -0.9739 -0.3632
14647TIP3   OH265431   3.749   0.983  15.040 -0.1951 -0.0516 -0.0797
14647TIP3    H165432   3.769   0.900  14.997 -1.4014 -1.3139  1.6868
14647TIP3    H265433   3.657   0.976  15.065  0.0241  1.2850  1.2477
14648TIP3   OH265434   0.472   0.542  14.829  0.0395 -0.2103 -0.5157
14648TIP3    H165435   0.498   0.561  14.738  3.1449 -0.8946  0.1160
14648TIP3    H265436   0.460   0.628  14.869 -0.4520  0.1115 -1.3272
14649TIP3   OH265437   6.242   6.636  13.348 -0.3144  0.5762 -0.3581
14649TIP3    H165438   6.177   6.566  13.342  0.2156 -0.0049  0.5639
14649TIP3    H265439   6.310   6.611  13.286  0.1164  0.0020  0.3337
14650TIP3   OH265440   5.114   0.523  11.206  0.4401  0.5102  0.5259
14650TIP3    H165441   5.059   0.589  11.164 -0.3449 -0.9824 -0.9406
14650TIP3    H265442   5.057   0.483  11.272  0.1554 -0.1732 -0.1171
14651TIP3   OH265443   2.701   1.879   2.507  0.0838  0.1201  0.2297
14651TIP3    H165444   2.787   1.850   2.536 -0.0447  0.1933  0.7037
14651TIP3    H265445   2.715   1.966   2.470  0.4194 -0.3970 -0.9013
14652TIP3   OH265446   0.631   4.312  13.436 -0.3407  0.5043 -0.2387
14652TIP3    H165447   0.598   4.309  13.526  0.4979 -0.4165  0.0528
14652TIP3    H265448   0.580   4.382  13.395 -1.5943  0.1382  0.6089
14653TIP3   OH265449   0.816   5.906   1.094  0.3586 -0.1580  0.0187
14653TIP3    H165450   0.846   5.997   1.101  0.3046 -0.1426  0.0466
14653TIP3    H265451   0.897   5.854   1.089  0.3920 -0.1312  0.2735
14654TIP3   OH265452   1.351   3.174   3.071 -0.2759 -0.3946  0.1566
14654TIP3    H165453   1.416   3.235   3.036  0.4410 -0.4084  1.3875
14654TIP3    H265454   1.322   3.214   3.153 -1.0550 -0.8932  0.1324
14655TIP3   OH265455   0.995   3.272   3.568  1.0049 -0.4662 -0.5589
14655TIP3    H165456   0.910   3.247   3.531  0.3959  0.9938 -0.2389
14655TIP3    H265457   0.991   3.241   3.658 -0.5618  2.3329  0.4477
14656TIP3   OH265458   2.372   0.218   1.687 -0.2400  0.4785 -0.4746
14656TIP3    H165459   2.385   0.127   1.713  1.3393  0.9236  0.4571
14656TIP3    H265460   2.314   0.255   1.754 -0.4174  0.3001 -0.5310
14657TIP3   OH265461   2.057   5.405  17.188  0.2828 -0.2013 -0.0031
14657TIP3    H165462   2.112   5.480  17.213  0.8386 -1.0653  1.4976
14657TIP3    H265463   2.096   5.330  17.233  0.1070 -1.5407 -1.9588
14658TIP3   OH265464   3.228   6.039  15.433  0.3243 -0.2611 -0.1703
14658TIP3    H165465   3.190   6.122  15.458 -0.3929 -0.8047  0.5906
14658TIP3    H265466   3.176   6.011  15.357 -0.3021 -0.6358  0.3911
14659TIP3   OH265467   2.503   4.370  12.810 -0.4801 -0.3210  0.3089
14659TIP3    H165468   2.483   4.430  12.882  0.2440 -0.2330  0.4423
14659TIP3    H265469   2.599   4.367  12.807 -0.4696 -2.3320  1.0371
14660TIP3   OH265470   2.276   2.256  14.108  0.2094  0.3438  0.1512
14660TIP3    H165471   2.304   2.347  14.115  0.9219  0.1199  0.2474
14660TIP3    H265472   2.190   2.255  14.149  0.6614  0.7623  1.1337
14661TIP3   OH265473   4.531   5.286  13.202 -0.4269 -0.4169 -0.2055
14661TIP3    H165474   4.478   5.211  13.229 -0.2653  0.1898  1.9495
14661TIP3    H265475   4.580   5.311  13.280 -0.1516  1.6760 -0.9773
14662TIP3   OH265476   3.539   4.823   0.737  0.5059 -0.1898  1.0244
14662TIP3    H165477   3.605   4.819   0.668  0.4284  0.4212  0.9096
14662TIP3    H265478   3.466   4.869   0.697  0.5687  0.4276  1.6036
14663TIP3   OH265479   6.820   0.689   3.151  0.4014  0.8038 -0.2848
14663TIP3    H165480   6.755   0.645   3.206  0.4330  1.9042  0.6673
14663TIP3    H265481   6.801   0.782   3.161 -0.2435  1.0430 -2.9860
14664TIP3   OH265482   5.962   3.377  14.993 -0.4220 -0.5060  0.2935
14664TIP3    H165483   6.035   3.405  15.049 -1.1150  1.6243  0.2042
14664TIP3    H265484   5.916   3.311  15.045  0.6200 -0.6935  1.0168
14665TIP3   OH265485   6.446   0.833   3.071  1.0248 -0.0522  0.1042
14665TIP3    H165486   6.352   0.822   3.053  0.6398  1.9132  0.6755
14665TIP3    H265487   6.487   0.825   2.985  0.2062  0.1521 -0.3206
14666TIP3   OH265488   0.528   6.675   0.094 -0.1125 -0.2863 -0.0668
14666TIP3    H165489   0.493   6.647   0.178  2.5703  1.0618  1.6266
14666TIP3    H265490   0.559   6.595   0.052 -0.1616 -0.8132  0.9010
14667TIP3   OH265491   1.843   6.646  12.546 -0.2582  0.7645  0.4551
14667TIP3    H165492   1.764   6.613  12.589 -0.3175  0.5269  0.1665
14667TIP3    H265493   1.895   6.568  12.529 -0.8490  0.6895 -1.1392
14668TIP3   OH265494   5.476   5.378  16.920  0.0511 -0.1688  0.8041
14668TIP3    H165495   5.459   5.316  16.991 -1.2797  0.2364  0.8604
14668TIP3    H265496   5.464   5.326  16.840 -1.2668  0.0301  0.8461
14669TIP3   OH265497   0.263   4.945   6.930 -0.1073 -0.0284  0.6441
14669TIP3    H165498   0.259   5.013   6.997  2.4617  2.2019 -1.2747
14669TIP3    H265499   0.183   4.958   6.878  0.4249  1.6979  0.1975
14670TIP3   OH265500   5.913   4.996   6.895  0.7150 -0.1668 -0.3768
14670TIP3    H165501   5.894   4.912   6.938 -1.4882  0.4669 -0.0111
14670TIP3    H265502   5.998   4.982   6.854  1.2109 -2.0122  1.1106
14671TIP3   OH265503   5.521   4.061  14.936 -0.4272  0.7965  0.3586
14671TIP3    H165504   5.449   4.096  14.989 -1.3921  0.7047 -0.8519
14671TIP3    H265505   5.479   4.033  14.855  1.5323  4.5467 -2.1977
14672TIP3   OH265506   6.457   3.570   2.630  0.6945  0.5665 -0.6321
14672TIP3    H165507   6.407   3.603   2.704  0.8900  1.8023 -1.0288
14672TIP3    H265508   6.391   3.541   2.567  0.5219  0.0561 -0.2214
14673TIP3   OH265509   5.661   5.914   5.632  0.2698  0.0414 -0.4926
14673TIP3    H165510   5.739   5.861   5.618 -0.9018 -1.4710 -1.5687
14673TIP3    H265511   5.689   5.981   5.695  1.8175 -1.8580  0.9855
14674TIP3   OH265512   6.783   0.703   4.736 -0.0806 -0.0060  0.3955
14674TIP3    H165513   6.784   0.797   4.719 -0.6072 -0.1689 -0.6413
14674TIP3    H265514   6.839   0.666   4.667 -0.3858 -0.4945  0.4035
14675TIP3   OH265515   1.988   0.302   5.950  0.3952 -0.0508 -0.4221
14675TIP3    H165516   2.063   0.262   5.907  0.0711  0.8962 -1.9369
14675TIP3    H265517   1.916   0.291   5.887 -0.3975  0.3000  0.4051
14676TIP3   OH265518   3.980   1.913   5.391 -0.3769 -0.2050  0.2024
14676TIP3    H165519   3.926   1.929   5.468  1.9036 -0.5194  1.9992
14676TIP3    H265520   4.046   1.982   5.394  0.0590 -0.5315 -1.2022
14677TIP3   OH265521   3.034   4.918  16.179 -0.1619 -0.3151 -0.3840
14677TIP3    H165522   2.951   4.965  16.181  0.8542  1.7104 -2.1469
14677TIP3    H265523   3.090   4.970  16.122  0.7483 -4.2255 -3.5003
14678TIP3   OH265524   3.966   5.107   2.253 -0.2355 -0.1793  0.4672
14678TIP3    H165525   3.955   5.139   2.163  0.5613  0.8898  0.7365
14678TIP3    H265526   3.882   5.125   2.295 -2.3938 -4.7500 -1.1602
14679TIP3   OH265527   2.737   0.132  15.161  0.1850  0.1611 -0.4216
14679TIP3    H165528   2.771   0.166  15.244  1.3105  0.8771 -1.1470
14679TIP3    H265529   2.674   0.065  15.187  0.5300  0.3490  1.0077
14680TIP3   OH265530   6.695   5.535   6.406  0.3889 -0.1167  0.2396
14680TIP3    H165531   6.749   5.527   6.484  1.4070 -2.3576 -0.6007
14680TIP3    H265532   6.617   5.583   6.435  0.8437 -0.6435  2.5406
14681TIP3   OH265533   1.059   0.109  16.416  0.3809  0.8844 -0.0712
14681TIP3    H165534   1.017   0.051  16.479  0.5122 -0.1201 -0.8909
14681TIP3    H265535   0.988   0.156  16.374  0.2042  0.5157 -0.1806
14682TIP3   OH265536   1.696   1.148   1.057 -0.1968  0.6938 -0.1766
14682TIP3    H165537   1.611   1.104   1.060  0.5245 -1.1341 -2.7977
14682TIP3    H265538   1.698   1.191   0.971  1.3725  1.0251 -0.0081
14683TIP3   OH265539   5.140   4.874  15.732 -0.2055 -0.5098  0.0276
14683TIP3    H165540   5.216   4.920  15.768 -1.4411  1.9849 -0.3112
14683TIP3    H265541   5.075   4.876  15.803 -0.2857 -1.8070  0.0092
14684TIP3   OH265542   1.227   2.900  13.997 -0.3167  0.3670 -0.1459
14684TIP3    H165543   1.303   2.884  14.052  0.0523 -0.5333 -0.8867
14684TIP3    H265544   1.261   2.946  13.921 -0.9106  2.0917  0.5932
14685TIP3   OH265545   5.583   1.693  12.531  0.0189 -0.1074  0.3604
14685TIP3    H165546   5.558   1.614  12.580  0.4056 -0.1208  0.5366
14685TIP3    H265547   5.500   1.732  12.506 -0.1968  0.1198  1.3775
14686TIP3   OH265548   5.111   4.548   5.315  0.6887 -0.6792  0.9944
14686TIP3    H165549   5.034   4.504   5.278  0.0132  1.4987 -0.3777
14686TIP3    H265550   5.185   4.502   5.277  0.0068 -0.6102 -0.4816
14687TIP3   OH265551   2.929   6.442   4.239 -0.4130 -0.2602 -0.1426
14687TIP3    H165552   3.022   6.463   4.253 -0.8282  2.1249 -0.6333
14687TIP3    H265553   2.903   6.497   4.166 -1.7430 -2.4293 -1.4170
14688TIP3   OH265554   6.256   5.843   2.132  0.7879 -0.1777 -0.0460
14688TIP3    H165555   6.316   5.845   2.207 -0.6723  0.7064  1.1683
14688TIP3    H265556   6.288   5.912   2.074 -0.4496  2.1422  1.8344
14689TIP3   OH265557   5.372   2.920  16.934  0.5217  0.1886  0.1673
14689TIP3    H165558   5.456   2.946  16.972  1.4854 -1.5035 -0.6738
14689TIP3    H265559   5.392   2.841  16.883 -1.9360 -1.4334  1.5130
14690TIP3   OH265560   1.134   4.586  12.699 -0.2741  0.2206  0.0201
14690TIP3    H165561   1.208   4.591  12.759  1.5914 -0.1446 -2.1131
14690TIP3    H265562   1.169   4.615  12.614 -3.1460  2.1646 -0.6686
14691TIP3   OH265563   4.070   1.776  15.464 -0.5530 -0.3446 -0.4613
14691TIP3    H165564   4.126   1.845  15.428  0.0304 -1.1027 -1.0324
14691TIP3    H265565   4.078   1.703  15.403  1.9055 -2.3657  1.9834
14692TIP3   OH265566   4.455   3.345   0.205  0.9879  0.2127  0.5204
14692TIP3    H165567   4.362   3.322   0.203  0.5156  1.9315  0.7619
14692TIP3    H265568   4.500   3.264   0.230 -0.5763 -0.3065  1.7973
14693TIP3   OH265569   2.628   0.772  15.130 -0.6117 -0.0544  0.3814
14693TIP3    H165570   2.552   0.754  15.074 -0.4612  1.1397 -0.2444
14693TIP3    H265571   2.701   0.731  15.085 -0.6833 -0.1219  0.3255
14694TIP3   OH265572   3.857   4.965  14.467  0.1595  0.4561  0.2300
14694TIP3    H165573   3.913   4.898  14.507  0.2646  0.6162  0.3509
14694TIP3    H265574   3.841   4.932  14.379  1.5348  1.0408 -0.2644
14695TIP3   OH265575   3.123   5.920  11.530 -0.2639  0.3956  0.0093
14695TIP3    H165576   3.208   5.891  11.564 -0.5880  1.7235  2.1443
14695TIP3    H265577   3.143   5.994  11.474  0.0645 -0.0484 -0.4698
14696TIP3   OH265578   3.661   2.617  14.030  0.5762 -0.2989 -0.1831
14696TIP3    H165579   3.574   2.581  14.050 -0.0054  1.1744  0.0609
14696TIP3    H265580   3.699   2.636  14.115 -0.1154  1.8659 -0.3063
14697TIP3   OH265581   3.245   6.120  11.334 -0.1413 -0.0239  0.2848
14697TIP3    H165582   3.157   6.107  11.298  0.2988 -1.3224 -0.3729
14697TIP3    H265583   3.284   6.186  11.278  0.2944 -1.5387 -1.2729
14698TIP3   OH265584   2.560   3.197   1.125 -0.3693 -0.3236 -0.2510
14698TIP3    H165585   2.600   3.110   1.125 -0.9652 -0.6380 -1.9370
14698TIP3    H265586   2.633   3.258   1.136  0.5886 -0.9061 -2.6855
14699TIP3   OH265587   3.113   0.919   5.288 -0.2029 -0.0078  0.0228
14699TIP3    H165588   3.092   0.982   5.357  1.3452 -1.5345  2.0218
14699TIP3    H265589   3.065   0.950   5.211  0.9126  3.9000  0.6889
14700TIP3   OH265590   5.748   0.094   0.930  0.5493 -0.4509  0.3266
14700TIP3    H165591   5.780   0.029   0.993 -1.5384 -1.7249  0.1741
14700TIP3    H265592   5.816   0.098   0.863  1.5030 -1.1848  1.2105
14701TIP3   OH265593   6.220   1.052  16.348 -0.4840  0.1686 -0.1298
14701TIP3    H165594   6.213   0.956  16.346  0.6491  0.0805 -0.4634
14701TIP3    H265595   6.145   1.080  16.401 -1.3960 -0.8334 -0.8330
14702TIP3   OH265596   5.900   5.231   1.921  0.1475 -0.8295 -0.2074
14702TIP3    H165597   5.950   5.277   1.989  1.2194 -2.4267  0.1501
14702TIP3    H265598   5.918   5.279   1.841  0.9844 -0.4343  0.2056
14703TIP3   OH265599   4.860   5.074   1.610 -0.7776 -0.2891 -0.0294
14703TIP3    H165600   4.945   5.070   1.655  0.3466 -0.0677 -2.0332
14703TIP3    H265601   4.801   5.024   1.667  0.8159 -0.9645  1.1178
14704TIP3   OH265602   6.619   5.938  12.352 -0.2083 -0.5514  0.1751
14704TIP3    H165603   6.550   5.928  12.287 -0.2612 -1.5078  0.3756
14704TIP3    H265604   6.622   5.854  12.398  1.6562 -0.8294 -0.3861
14705TIP3   OH265605   3.567   5.455  15.279 -0.0432  0.0633 -0.0542
14705TIP3    H165606   3.622   5.529  15.303 -1.5839  1.2694 -0.1460
14705TIP3    H265607   3.566   5.456  15.183  0.5411 -0.5551 -0.0745
14706TIP3   OH265608   5.570   0.053   2.252  0.7610  0.3849  0.1224
14706TIP3    H165609   5.620   0.112   2.308 -0.2267  0.9515  0.4171
14706TIP3    H265610   5.486   0.042   2.297  0.8378 -1.0732 -0.0330
14707TIP3   OH265611   6.636   6.371  17.052  0.2347  0.2050 -0.5027
14707TIP3    H165612   6.711   6.417  17.088 -0.5368  1.6408 -0.6759
14707TIP3    H265613   6.662   6.351  16.962  1.4083 -1.6888  0.1865
14708TIP3   OH265614   4.226   2.026   5.506  0.0495  0.0099 -0.5112
14708TIP3    H165615   4.312   1.991   5.484 -0.3108 -0.1268 -1.7872
14708TIP3    H265616   4.193   1.967   5.574  0.4935 -0.6154 -0.8262
14709TIP3   OH265617   6.688   3.503  13.600  0.0776  0.3108  0.4423
14709TIP3    H165618   6.770   3.518  13.647  0.2970 -0.2528  0.2467
14709TIP3    H265619   6.681   3.407  13.595  0.9279  0.3258 -2.1854
14710TIP3   OH265620   2.419   0.569  11.221 -0.0845 -0.1912 -0.1642
14710TIP3    H165621   2.365   0.596  11.147  0.1979  0.4532 -0.1374
14710TIP3    H265622   2.494   0.526  11.181  0.0755  0.1704 -0.2561
14711TIP3   OH265623   2.502   4.299  13.651 -0.1132 -0.5286 -0.6395
14711TIP3    H165624   2.569   4.231  13.654 -1.1898 -1.6096 -0.5299
14711TIP3    H265625   2.468   4.296  13.562  1.4119  1.4917 -1.3768
14712TIP3   OH265626   5.506   3.946  12.491 -0.5382 -0.8242  0.1391
14712TIP3    H165627   5.430   3.922  12.438 -1.2829  1.0758  0.2728
14712TIP3    H265628   5.568   3.982  12.428 -1.3603  1.2871  0.4727
14713TIP3   OH265629   0.511   0.795   6.098  0.5819 -0.0549  0.0032
14713TIP3    H165630   0.528   0.701   6.094  1.1079 -0.0029  0.7993
14713TIP3    H265631   0.467   0.809   6.182  1.9938  0.6066  0.6871
14714TIP3   OH265632   1.759   4.758   4.108 -0.4737 -0.0014 -0.5309
14714TIP3    H165633   1.759   4.834   4.167 -2.2567  0.7730 -1.4566
14714TIP3    H265634   1.689   4.701   4.143 -0.3124 -0.3977 -0.8529
14715TIP3   OH265635   3.907   1.590  12.094  0.4247  0.4172 -0.4342
14715TIP3    H165636   3.979   1.594  12.157  0.4661  1.1062 -0.5150
14715TIP3    H265637   3.866   1.677  12.099 -0.1583  0.1648 -0.6719
14716TIP3   OH265638   2.303   1.176  11.173 -0.3579 -0.0637 -0.7051
14716TIP3    H165639   2.279   1.168  11.081 -1.0594 -2.7302 -0.3795
14716TIP3    H265640   2.228   1.219  11.214 -2.5853 -3.6866 -0.5696
14717TIP3   OH265641   1.472   0.058   1.907 -0.9108 -0.1383 -0.5046
14717TIP3    H165642   1.492  -0.031   1.879  0.0887  0.0056 -0.2857
14717TIP3    H265643   1.484   0.111   1.828 -1.2897 -0.1641 -0.5816
14718TIP3   OH265644   5.706   5.670  15.712 -0.0831  0.0311  0.2314
14718TIP3    H165645   5.692   5.618  15.632 -1.7209  2.2701 -1.0623
14718TIP3    H265646   5.756   5.612  15.769  1.8285 -1.4566 -2.6577
14719TIP3   OH265647   2.054   2.869  16.442  0.1180 -0.2688 -0.2584
14719TIP3    H165648   2.061   2.773  16.440  0.8457 -0.2261 -0.1072
14719TIP3    H265649   1.979   2.887  16.498 -0.5366 -0.7714 -0.9690
14720TIP3   OH265650   4.208   0.735  12.045  0.5180  0.2690 -0.0040
14720TIP3    H165651   4.295   0.695  12.040 -0.1149 -1.1576  0.0524
14720TIP3    H265652   4.149   0.664  12.070 -1.1641  0.4527 -2.9037
14721TIP3   OH265653   5.182   0.033  11.606 -0.6808 -0.2754 -0.3295
14721TIP3    H165654   5.223   0.119  11.597 -1.4268 -0.0817 -2.3819
14721TIP3    H265655   5.254  -0.030  11.602 -0.1173  0.2224  1.3211
14722TIP3   OH265656   6.679   0.518  14.963  0.6308  0.1808  0.2671
14722TIP3    H165657   6.656   0.428  14.987  1.5778 -0.6669 -1.7870
14722TIP3    H265658   6.755   0.539  15.018  1.2556 -0.8050 -0.1909
14723TIP3   OH265659   5.729   2.028  14.451 -0.1645 -0.7383  0.1938
14723TIP3    H165660   5.695   2.111  14.484  2.0262 -0.2963  1.5778
14723TIP3    H265661   5.656   1.967  14.461 -2.4344  1.2526 -2.4461
14724TIP3   OH265662   0.805   4.626   1.369  0.3273  0.5719  0.1202
14724TIP3    H165663   0.746   4.702   1.366 -0.0087  0.3225  0.3017
14724TIP3    H265664   0.815   4.600   1.278 -2.5154 -1.3968  0.2364
14725TIP3   OH265665   5.120   5.078  16.410  0.0560  0.0831 -0.0638
14725TIP3    H165666   5.166   5.091  16.327 -0.2680  1.0213 -0.1184
14725TIP3    H265667   5.060   5.006  16.393  1.6657 -1.3507  0.0939
14726TIP3   OH265668   2.960   6.515  15.264  0.3662 -0.5085 -0.2761
14726TIP3    H165669   2.969   6.439  15.321 -0.0784  0.1910  0.7673
14726TIP3    H265670   2.981   6.590  15.320 -1.5672  0.3273 -0.5921
14727TIP3   OH265671   5.312   0.459  14.840 -0.4852  0.5818  0.3724
14727TIP3    H165672   5.377   0.525  14.816  1.5781 -1.5234 -0.1815
14727TIP3    H265673   5.245   0.464  14.771  0.1765  1.3974 -0.2184
14728TIP3   OH265674   1.499   4.456  14.680  0.0151 -0.8406 -0.0315
14728TIP3    H165675   1.480   4.548  14.696  1.5068 -0.6877  1.0708
14728TIP3    H265676   1.455   4.437  14.597 -2.4070  0.1643  0.9350
14729TIP3   OH265677   2.808   3.808  12.781 -0.7860 -0.2048 -0.4612
14729TIP3    H165678   2.757   3.803  12.700 -0.2656 -0.9277 -0.7530
14729TIP3    H265679   2.814   3.718  12.812 -1.7622  0.1646  0.8936
14730TIP3   OH265680   6.109   0.355  15.633 -0.4048 -0.2803  0.1806
14730TIP3    H165681   6.065   0.276  15.664 -1.1002 -0.9614 -2.3093
14730TIP3    H265682   6.173   0.375  15.702  0.6050 -3.6583  0.4220
14731TIP3   OH265683   0.542   0.481  15.609 -0.0726  0.6089  0.3484
14731TIP3    H165684   0.563   0.439  15.693 -0.3037 -0.9573 -0.3550
14731TIP3    H265685   0.456   0.447  15.585  0.0712  0.8890 -0.6104
14732TIP3   OH265686   4.231   3.103  15.321  0.0740  0.0594 -0.5154
14732TIP3    H165687   4.303   3.041  15.336 -1.4248 -1.2033  1.9653
14732TIP3    H265688   4.233   3.160  15.398 -1.7202 -0.1860 -0.2593
14733TIP3   OH265689   4.128   2.627  15.586 -0.4685 -0.0990 -0.0806
14733TIP3    H165690   4.140   2.721  15.600 -0.4842  0.4049 -2.9367
14733TIP3    H265691   4.034   2.617  15.567 -0.4556 -0.7039  0.1294
14734TIP3   OH265692   0.410   5.437  12.571  0.3982 -0.2048 -0.1635
14734TIP3    H165693   0.325   5.394  12.584  0.1124 -0.1918 -1.8459
14734TIP3    H265694   0.388   5.525  12.542  1.0004  0.2151  0.6251
14735TIP3   OH265695   1.214   3.881  12.101  0.2316 -0.5676 -0.0999
14735TIP3    H165696   1.301   3.881  12.140  0.5822 -1.9512 -0.8243
14735TIP3    H265697   1.228   3.853  12.010 -0.6389  1.9608 -1.0856
14736TIP3   OH265698   6.525   6.732  16.257  0.2449 -0.3178 -0.3365
14736TIP3    H165699   6.568   6.649  16.234 -0.5666 -1.2381  1.2192
14736TIP3    H265700   6.437   6.724  16.221  0.5267  0.3987 -1.2029
14737TIP3   OH265701   1.942   5.758  11.154  0.1326 -0.1536  0.1357
14737TIP3    H165702   1.925   5.780  11.062 -0.1798 -0.2033  0.1784
14737TIP3    H265703   1.892   5.823  11.204  1.4150  0.7450  0.2916
14738TIP3   OH265704   2.049   1.914  12.681 -0.0028  0.0971 -0.0887
14738TIP3    H165705   2.047   1.819  12.670  2.0475  0.1388 -1.2250
14738TIP3    H265706   2.050   1.927  12.776  1.3441 -1.1094  0.0930
14739TIP3   OH265707   6.319   0.058   6.301  0.3793  0.2368 -0.0140
14739TIP3    H165708   6.276   0.080   6.218  0.8093 -0.1474 -0.3464
14739TIP3    H265709   6.344   0.143   6.338  2.9704  0.3685 -1.7946
14740TIP3   OH265710   3.836   3.541   5.279  0.2444 -0.6629 -0.2871
14740TIP3    H165711   3.785   3.621   5.291 -0.7373 -1.3453  0.2161
14740TIP3    H265712   3.821   3.491   5.359  0.8238 -1.3740 -0.6081
14741TIP3   OH265713   2.138   4.010   6.048  0.3703  0.1666 -0.2174
14741TIP3    H165714   2.144   3.915   6.061 -0.1050  0.5028  3.7761
14741TIP3    H265715   2.224   4.043   6.071 -0.6438  0.9042  3.0448
14742TIP3   OH265716   4.466   6.089   5.551  0.3849  0.1090 -0.7802
14742TIP3    H165717   4.512   6.066   5.631 -1.9136 -0.4632  0.4833
14742TIP3    H265718   4.407   6.015   5.536 -1.0642  1.3627 -1.5268
14743TIP3   OH265719   6.473   3.561  13.793  0.4489 -0.3094  0.1415
14743TIP3    H165720   6.496   3.651  13.770  1.0954 -0.7084 -0.8175
14743TIP3    H265721   6.494   3.509  13.715 -2.3050 -0.9380 -0.3148
14744TIP3   OH265722   4.754   3.701  12.847 -0.5415 -0.1213  0.4268
14744TIP3    H165723   4.782   3.645  12.775 -1.3167  0.8579 -0.6817
14744TIP3    H265724   4.772   3.790  12.816 -0.0480  0.2792  1.8249
14745TIP3   OH265725   3.148   3.150  14.635  0.3155 -0.3480 -0.1420
14745TIP3    H165726   3.169   3.058  14.620  0.8207 -0.4201  0.9909
14745TIP3    H265727   3.066   3.163  14.586  0.1231 -1.4430 -0.1455
14746TIP3   OH265728   2.581   0.060   5.798  0.3631 -0.1721 -0.3002
14746TIP3    H165729   2.616   0.112   5.726  1.9717  0.1636  0.6701
14746TIP3    H265730   2.527   0.121   5.848 -0.9208 -0.4560 -1.2849
14747TIP3   OH265731   3.517   5.166  14.433  0.0283 -0.0214 -0.0380
14747TIP3    H165732   3.537   5.137  14.344 -1.1115 -0.4696 -0.1582
14747TIP3    H265733   3.541   5.091  14.488  0.8822  0.3146  0.0532
14748TIP3   OH265734   1.526   2.194   3.792  0.3657 -0.2822 -0.8437
14748TIP3    H165735   1.436   2.172   3.766 -0.3003  2.4116 -1.0832
14748TIP3    H265736   1.570   2.217   3.711  0.6916  0.3263 -0.5012
14749TIP3   OH265737   2.477   1.355  11.544 -0.5097  0.4383 -0.4514
14749TIP3    H165738   2.501   1.354  11.451 -0.8270 -0.7649 -0.5366
14749TIP3    H265739   2.398   1.408  11.548 -0.8074  0.0403 -0.9598
14750TIP3   OH265740   6.748   0.452  14.273 -0.4429  0.3689  0.1646
14750TIP3    H165741   6.760   0.498  14.190 -1.2589 -0.5328 -0.4751
14750TIP3    H265742   6.654   0.434  14.277 -0.1891 -0.9416  0.5383
14751TIP3   OH265743   5.355   5.196  16.728  0.3413  1.1106  0.0461
14751TIP3    H165744   5.266   5.215  16.699 -0.3937 -0.8710  0.8816
14751TIP3    H265745   5.391   5.138  16.661  0.6186  1.0039  0.2851
14752TIP3   OH265746   0.252   4.743   5.245 -0.2622 -0.3495  0.1579
14752TIP3    H165747   0.323   4.749   5.308 -1.1879  2.2282  1.0633
14752TIP3    H265748   0.294   4.711   5.165  1.5173 -0.7634  1.1985
14753TIP3   OH265749   3.182   6.357  13.980  0.2210  0.2844 -0.2943
14753TIP3    H165750   3.260   6.327  14.026 -1.1925 -1.3041  1.2277
14753TIP3    H265751   3.116   6.289  13.998 -0.9930  0.5765 -3.0970
14754TIP3   OH265752   2.627   3.670   4.210  0.1140  0.8208 -0.0879
14754TIP3    H165753   2.595   3.589   4.170 -1.4424  1.0064  0.7290
14754TIP3    H265754   2.626   3.734   4.139 -0.4769  0.5887 -0.2937
14755TIP3   OH265755   2.570   2.119  12.294  0.2036 -0.4898 -0.3885
14755TIP3    H165756   2.590   2.066  12.371 -0.6988 -0.5417 -0.1739
14755TIP3    H265757   2.591   2.063  12.219  3.5035  0.4250 -0.2868
14756TIP3   OH265758   0.857   5.325   2.780  0.4026 -0.3031 -0.0640
14756TIP3    H165759   0.930   5.386   2.772  0.2750 -0.3484 -2.1868
14756TIP3    H265760   0.806   5.359   2.854  0.8080  1.6638 -0.6130
14757TIP3   OH265761   3.363   4.387   4.399  0.7627 -0.1205  0.3136
14757TIP3    H165762   3.326   4.407   4.313 -1.4627 -0.3354  1.1499
14757TIP3    H265763   3.457   4.387   4.385  0.5177  1.1848 -1.8296
14758TIP3   OH265764   4.312   4.576  16.094  0.2825 -0.0199 -0.3487
14758TIP3    H165765   4.361   4.503  16.056 -2.0699 -1.3809 -0.9285
14758TIP3    H265766   4.282   4.627  16.019 -0.1521  0.1589 -0.0557
14759TIP3   OH265767   3.686   0.912   2.377 -0.0371 -0.2523 -0.1753
14759TIP3    H165768   3.743   0.958   2.439  0.3994 -1.8647  0.6838
14759TIP3    H265769   3.733   0.831   2.357 -1.6671 -1.2743 -0.0492
14760TIP3   OH265770   0.068   3.723   3.177 -0.7252  0.0383  0.1986
14760TIP3    H165771   0.040   3.809   3.147 -0.2025  0.0252 -0.3532
14760TIP3    H265772  -0.002   3.663   3.150 -1.0478  0.2786  0.5072
14761TIP3   OH265773   2.166   4.017   2.845  0.3144 -0.4003  0.3969
14761TIP3    H165774   2.100   4.027   2.776 -0.2749  1.2420  1.1487
14761TIP3    H265775   2.116   4.014   2.926  1.0990 -0.4250  0.8928
14762TIP3   OH265776   6.237   3.776   6.492 -0.0692 -0.4666 -0.0560
14762TIP3    H165777   6.179   3.808   6.423  1.4025 -1.4235 -1.8060
14762TIP3    H265778   6.177   3.737   6.557 -1.6543  2.6081  0.4908
14763TIP3   OH265779   1.880   2.554   2.258  0.5233 -0.6919  0.0987
14763TIP3    H165780   1.906   2.624   2.198 -0.0831 -0.0487  0.5737
14763TIP3    H265781   1.799   2.585   2.297  0.5210 -1.4390  0.7020
14764TIP3   OH265782   6.475   6.466   5.781  0.0904  0.3500 -0.5383
14764TIP3    H165783   6.535   6.436   5.849  0.2107 -0.4763 -1.0034
14764TIP3    H265784   6.396   6.415   5.794  0.3262 -0.2571 -1.3858
14765TIP3   OH265785   4.293   4.258  14.472  0.1468  0.2439  0.3417
14765TIP3    H165786   4.359   4.315  14.512  0.1048  0.6102 -0.0956
14765TIP3    H265787   4.320   4.170  14.496  0.6661  0.4026  0.3655
14766TIP3   OH265788   3.620   5.369   6.628 -0.2669 -0.6765 -0.1835
14766TIP3    H165789   3.663   5.454   6.627 -0.6306 -0.4901 -1.4202
14766TIP3    H265790   3.611   5.344   6.536 -3.1537 -0.4865 -0.0627
14767TIP3   OH265791   3.503   1.549   4.269 -0.3977 -0.1948 -0.1645
14767TIP3    H165792   3.453   1.561   4.188  0.6171  2.0518 -0.5054
14767TIP3    H265793   3.594   1.551   4.242 -0.0356  0.8533  1.0492
14768TIP3   OH265794   3.193   5.846   0.391 -0.0974 -0.1221 -0.0647
14768TIP3    H165795   3.283   5.870   0.370  0.3566 -1.3517  0.4094
14768TIP3    H265796   3.141   5.888   0.323  1.0409 -1.3482 -1.7768
14769TIP3   OH265797   5.027   0.191   4.229  0.8232  0.0917  0.1627
14769TIP3    H165798   5.115   0.210   4.262  0.2310  0.7204  1.4769
14769TIP3    H265799   5.034   0.200   4.134  2.5444 -1.4557  0.0808
14770TIP3   OH265800   1.220   5.071   2.274 -0.5055  0.4712  0.7220
14770TIP3    H165801   1.260   4.987   2.296 -0.7444  0.2488  0.3136
14770TIP3    H265802   1.129   5.062   2.301 -0.5514  0.5719  0.6003
14771TIP3   OH265803   6.665   6.302   5.461 -0.3345 -0.5060  0.5947
14771TIP3    H165804   6.726   6.333   5.394  2.2173 -0.9923  2.5442
14771TIP3    H265805   6.707   6.224   5.497 -2.5804 -1.3846  1.4532
14772TIP3   OH265806   2.137   4.535   1.594  0.0701 -0.3542 -0.4854
14772TIP3    H165807   2.117   4.606   1.656 -0.5072 -0.9938  0.0784
14772TIP3    H265808   2.200   4.480   1.641 -0.9652 -1.2722 -0.1469
14773TIP3   OH265809   1.438   3.110   2.292  0.2196  0.3271 -0.2480
14773TIP3    H165810   1.461   3.047   2.223  0.9264  1.2548 -0.8775
14773TIP3    H265811   1.512   3.105   2.354 -1.3018 -1.9758  1.5871
14774TIP3   OH265812   5.877   2.045   2.392 -0.2587  0.0823 -0.0130
14774TIP3    H165813   5.837   2.119   2.345  0.5075 -0.2518 -1.2418
14774TIP3    H265814   5.914   1.990   2.323 -1.8043 -2.0744  0.7750
14775TIP3   OH265815   6.716   1.183  12.461 -0.2846 -0.3870  0.1979
14775TIP3    H165816   6.655   1.257  12.458 -0.0343 -0.1811  0.1120
14775TIP3    H265817   6.691   1.134  12.538 -0.3990 -0.1602  0.3060
14776TIP3   OH265818   4.291   6.296  14.692  0.0168 -0.4337 -0.0814
14776TIP3    H165819   4.365   6.357  14.686 -1.1486  1.1554  0.7371
14776TIP3    H265820   4.257   6.290  14.603 -0.1998  0.6097 -0.0822
14777TIP3   OH265821   3.227   3.331  16.251  0.1768 -0.6256  0.0956
14777TIP3    H165822   3.288   3.395  16.288 -0.4168  0.8184 -1.2748
14777TIP3    H265823   3.272   3.298  16.173 -0.9671  0.9648 -1.3242
14778TIP3   OH265824   0.651   4.362  15.267 -0.1637 -0.1258  0.0760
14778TIP3    H165825   0.692   4.376  15.353 -1.0756  2.5463  0.1694
14778TIP3    H265826   0.725   4.347  15.208  0.5877 -0.4398  1.0520
14779TIP3   OH265827   4.171   4.284  13.037 -0.2283  0.4056 -0.5766
14779TIP3    H165828   4.077   4.269  13.046 -0.4788  2.0779  0.0114
14779TIP3    H265829   4.213   4.210  13.082 -1.2376 -0.4603 -1.0261
14780TIP3   OH265830   0.853   0.186  11.838 -0.2429 -0.3848 -0.4748
14780TIP3    H165831   0.940   0.147  11.843  0.1209  0.5452  1.1132
14780TIP3    H265832   0.810   0.139  11.767  0.9867 -2.0000 -0.2116
14781TIP3   OH265833   3.030   2.509   2.614  0.3216 -0.0870 -0.8808
14781TIP3    H165834   3.068   2.493   2.700 -1.5557 -0.0904 -0.0091
14781TIP3    H265835   3.059   2.598   2.592  0.5034  0.0644 -0.0769
14782TIP3   OH265836   2.708   1.850   2.897  0.1501 -0.1927  0.0504
14782TIP3    H165837   2.777   1.823   2.958  0.4548 -2.0196 -1.0324
14782TIP3    H265838   2.710   1.945   2.899  0.4114 -0.1856  2.5700
14783TIP3   OH265839   2.358   2.925   3.392 -0.4337 -1.1557  0.0705
14783TIP3    H165840   2.417   2.957   3.460  0.0922 -1.9251 -0.0127
14783TIP3    H265841   2.272   2.959   3.418  0.0865  0.3139 -0.0290
14784TIP3   OH265842   2.838   6.286   0.333  0.8765  0.0217  0.2182
14784TIP3    H165843   2.859   6.217   0.396 -1.1245 -0.0479  0.8748
14784TIP3    H265844   2.879   6.365   0.369  1.2903 -0.3771  0.6356
14785TIP3   OH265845   6.725   5.918   1.440  0.0627 -0.0857  0.4810
14785TIP3    H165846   6.775   5.867   1.377 -0.1159 -1.4955  1.4198
14785TIP3    H265847   6.634   5.908   1.413  0.0488 -0.0686  0.5197
14786TIP3   OH265848   4.637   0.457   3.725 -0.1665  0.5934 -0.0493
14786TIP3    H165849   4.601   0.466   3.813  0.0024  3.6540 -0.1936
14786TIP3    H265850   4.728   0.485   3.733  0.4676 -1.0753 -0.8643
14787TIP3   OH265851   3.551   2.638   5.966 -0.1462 -0.2927 -0.4074
14787TIP3    H165852   3.500   2.571   6.012  0.0416  0.5831  1.1715
14787TIP3    H265853   3.630   2.647   6.019 -0.0140  0.9124 -0.7832
14788TIP3   OH265854   2.188   5.344   1.243 -0.2013  0.1607 -0.4116
14788TIP3    H165855   2.192   5.263   1.294 -0.6435  0.3095 -0.1246
14788TIP3    H265856   2.172   5.316   1.153 -1.3645 -0.0438 -0.1593
14789TIP3   OH265857   2.934   3.825   2.443  0.2317 -0.0864  0.6369
14789TIP3    H165858   2.982   3.761   2.495 -0.3791 -0.5286  0.6662
14789TIP3    H265859   2.991   3.902   2.441  0.8767 -0.5543  0.7786
14790TIP3   OH265860   0.228   0.714   1.627  0.0344  0.1848 -0.0428
14790TIP3    H165861   0.140   0.721   1.591  0.7300  1.2214 -1.6381
14790TIP3    H265862   0.263   0.633   1.589 -0.0063  0.1194  0.0603
14791TIP3   OH265863   0.406   2.095  14.862 -0.0711  0.1126 -0.2161
14791TIP3    H165864   0.331   2.134  14.906 -0.8366  0.8705 -2.0920
14791TIP3    H265865   0.482   2.141  14.899 -0.5065 -0.5692  1.5965
14792TIP3   OH265866   6.139   4.151   3.542  0.0016 -0.0817  0.1876
14792TIP3    H165867   6.098   4.096   3.608 -3.2701 -0.0366 -1.5432
14792TIP3    H265868   6.108   4.239   3.562 -0.2875  0.0637 -0.8047
14793TIP3   OH265869   6.064   6.422  12.925  0.6663  0.7710 -0.0372
14793TIP3    H165870   5.999   6.492  12.911 -0.5807 -0.5858 -1.4281
14793TIP3    H265871   6.047   6.392  13.014  1.6458  2.6127  0.8206
14794TIP3   OH265872   3.715   3.030  12.406  0.5353  1.1878 -0.1356
14794TIP3    H165873   3.759   3.094  12.351  1.0665  2.5753  1.8065
14794TIP3    H265874   3.624   3.060  12.411  0.8948  2.1199  1.1762
14795TIP3   OH265875   1.708   4.697  14.761  0.5709 -0.2160 -0.3805
14795TIP3    H165876   1.624   4.653  14.778 -0.4449  1.4739 -0.8035
14795TIP3    H265877   1.718   4.759  14.834  2.8263 -2.1925  1.1546
14796TIP3   OH265878   1.479   0.433   4.091  0.1204  0.0370  1.0396
14796TIP3    H165879   1.497   0.442   3.997 -2.6776  1.9038  0.5671
14796TIP3    H265880   1.546   0.487   4.134  1.5935 -1.0414  0.2009
14797TIP3   OH265881   5.352   6.108   1.048  0.5787  0.1064  0.7635
14797TIP3    H165882   5.293   6.032   1.056 -0.1549  0.6363  0.4596
14797TIP3    H265883   5.346   6.151   1.133  2.4798 -1.2123  1.6296
14798TIP3   OH265884   3.892   4.035   6.272 -0.3080  0.3586 -0.3703
14798TIP3    H165885   3.816   4.067   6.321 -0.0493  1.2645 -0.5355
14798TIP3    H265886   3.959   4.102   6.285 -0.5252  1.1321 -2.6790
14799TIP3   OH265887   3.955   3.548   1.367 -0.0047  0.5937  0.3213
14799TIP3    H165888   3.978   3.476   1.308 -0.8584  0.9342 -0.4619
14799TIP3    H265889   4.028   3.553   1.429  0.1607 -0.8050  0.2668
14800TIP3   OH265890   2.267   5.853   4.275  0.1167 -0.0667 -0.9508
14800TIP3    H165891   2.356   5.845   4.242 -0.0643  0.8614 -1.6851
14800TIP3    H265892   2.255   5.774   4.329  1.3750 -0.1896 -0.8157
14801TIP3   OH265893   2.341   0.436   3.437 -0.3401 -0.0173  0.1938
14801TIP3    H165894   2.386   0.480   3.365  0.1270 -1.2187 -0.2765
14801TIP3    H265895   2.388   0.463   3.515 -2.2583  3.1587  0.4072
14802TIP3   OH265896   5.060   2.063   1.935  0.3906  0.1615  0.2386
14802TIP3    H165897   5.065   2.126   2.007 -0.8449 -0.1259  0.6092
14802TIP3    H265898   5.147   2.022   1.933 -0.0315 -1.1260  2.8089
14803TIP3   OH265899   3.577   4.347   1.527  0.2856 -0.0205 -0.3209
14803TIP3    H165900   3.488   4.317   1.511 -0.1813  1.0929  0.0802
14803TIP3    H265901   3.568   4.410   1.598  1.0988  1.6462 -1.6450
14804TIP3   OH265902   0.976   5.831  17.125 -0.5334  0.1055  0.0011
14804TIP3    H165903   1.063   5.832  17.166  0.1895 -0.7317 -1.4064
14804TIP3    H265904   0.956   5.738  17.115 -1.6803  0.2934  0.4573
14805TIP3   OH265905   0.936   3.415   2.431  0.2922  0.2116 -0.5133
14805TIP3    H165906   0.880   3.338   2.433 -1.0716  1.1647  1.6948
14805TIP3    H265907   0.997   3.399   2.358 -0.9781 -2.1630 -1.1459
14806TIP3   OH265908   3.230   2.838  15.689  0.2960 -0.1105  0.4105
14806TIP3    H165909   3.304   2.842  15.751  1.2200 -2.3963 -0.4555
14806TIP3    H265910   3.271   2.842  15.603 -0.8173  0.9798 -0.0869
14807TIP3   OH265911   3.354   0.049   0.505 -0.0162  0.0882  0.3013
14807TIP3    H165912   3.270   0.049   0.460  0.0724 -0.9219  0.1092
14807TIP3    H265913   3.401  -0.025   0.468  0.2925 -0.4033  1.6020
14808TIP3   OH265914   3.626   5.430   4.607 -0.4108  0.7100  0.2562
14808TIP3    H165915   3.700   5.480   4.572 -1.2752  0.6912 -1.6920
14808TIP3    H265916   3.593   5.483   4.680 -0.7306  2.5561 -1.1701
14809TIP3   OH265917   1.794   1.828   1.934  0.4583 -0.0704  0.3816
14809TIP3    H165918   1.807   1.886   2.009  0.4627 -1.5377  1.5611
14809TIP3    H265919   1.709   1.787   1.951  0.9584 -1.2215  0.1524
14810TIP3   OH265920   1.949   5.282  14.782  0.0081  0.0586 -0.2118
14810TIP3    H165921   1.928   5.304  14.692  0.0431  0.7498 -0.0610
14810TIP3    H265922   2.022   5.339  14.805  0.2686 -0.3985  0.1271
14811TIP3   OH265923   4.045   5.442   0.222 -0.3127 -0.1047 -0.6893
14811TIP3    H165924   3.956   5.454   0.188 -0.4824 -0.6028 -0.4272
14811TIP3    H265925   4.061   5.521   0.273  0.0610  0.7936 -2.1552
14812TIP3   OH265926   5.268   6.364  15.162 -0.1858  0.1711  0.0340
14812TIP3    H165927   5.250   6.372  15.069 -0.5384  0.6139  0.1345
14812TIP3    H265928   5.288   6.272  15.176  0.4329  0.2097 -0.5773
14813TIP3   OH265929   4.608   1.466  11.087  0.1247 -0.0457  0.0720
14813TIP3    H165930   4.554   1.450  11.009 -0.0592 -0.5634  0.3008
14813TIP3    H265931   4.645   1.381  11.108  0.0234  0.0544  0.6636
14814TIP3   OH265932   4.803   0.161   3.252  0.7293  0.5814 -0.7206
14814TIP3    H165933   4.777   0.076   3.289 -1.2138  1.5092  0.2187
14814TIP3    H265934   4.871   0.193   3.312  0.1297  0.4968  0.0292
14815TIP3   OH265935   0.830   6.152   5.555  0.7088 -0.1014 -0.0573
14815TIP3    H165936   0.744   6.189   5.533  0.4822  0.0347  1.0342
14815TIP3    H265937   0.891   6.224   5.538  0.3380  0.6097  1.4463
14816TIP3   OH265938   4.064   3.306   4.798  0.2151  0.4661 -0.5553
14816TIP3    H165939   4.098   3.386   4.839  0.5885 -0.4762  1.0524
14816TIP3    H265940   4.140   3.267   4.754  0.5333 -0.0741  0.4543
14817TIP3   OH265941   1.562   4.529   0.566  0.3170 -0.4479 -0.0781
14817TIP3    H165942   1.468   4.514   0.561  0.3957 -1.4663  1.1039
14817TIP3    H265943   1.580   4.543   0.659  1.5013 -1.6314 -0.0921
14818TIP3   OH265944   0.989   4.870   2.323 -0.0311 -0.1620  0.5166
14818TIP3    H165945   1.017   4.841   2.237  2.0194 -0.5453  1.2558
14818TIP3    H265946   0.907   4.917   2.307  0.2837 -0.2345 -1.6201
14819TIP3   OH265947   0.953   1.131  16.738 -0.6320  0.2131  0.1922
14819TIP3    H165948   0.897   1.177  16.677 -0.0833  0.7809  0.1071
14819TIP3    H265949   1.033   1.184  16.743 -0.0538 -0.6310  0.2248
14820TIP3   OH265950   1.941   1.692  15.166  0.1405  0.2489 -0.7482
14820TIP3    H165951   1.964   1.702  15.259  0.6915 -1.4428 -0.6684
14820TIP3    H265952   1.868   1.631  15.166  1.1368 -0.9817 -1.4965
14821TIP3   OH265953   0.284   1.372   2.147 -0.4876  0.4303 -0.5909
14821TIP3    H165954   0.307   1.318   2.071  1.5892  0.3350  0.0423
14821TIP3    H265955   0.352   1.438   2.150 -0.5870  0.4847  1.1354
14822TIP3   OH265956   3.063   2.877  13.155 -0.0723  0.0576  0.1166
14822TIP3    H165957   3.003   2.824  13.206  1.3199 -0.1062  1.6572
14822TIP3    H265958   3.131   2.816  13.127  0.8230  0.7407  0.7537
14823TIP3   OH265959   2.861   5.223  15.551 -0.1765 -0.4360  0.3055
14823TIP3    H165960   2.791   5.233  15.616  1.6743  0.1656  2.3444
14823TIP3    H265961   2.929   5.284  15.580  1.7902 -1.9992 -0.7393
14824TIP3   OH265962   2.232   2.821  15.589  0.0585 -0.0034 -0.1164
14824TIP3    H165963   2.320   2.832  15.551  0.0587 -1.5870 -0.6253
14824TIP3    H265964   2.218   2.902  15.640  1.5367  0.5600 -0.5493
14825TIP3   OH265965   6.620   4.782   6.065  0.2318 -0.2073  0.5185
14825TIP3    H165966   6.620   4.863   6.014  0.6904 -0.3460  0.2880
14825TIP3    H265967   6.639   4.809   6.155 -1.6200  0.1590  0.8460
14826TIP3   OH265968   4.670   2.481  13.762 -0.2705 -0.1692 -0.5012
14826TIP3    H165969   4.752   2.501  13.717  0.4731 -1.9410 -0.0212
14826TIP3    H265970   4.604   2.478  13.693  0.9124 -3.3068 -1.6605
14827TIP3   OH265971   5.698   6.721   2.464 -0.3455 -0.0133 -0.2520
14827TIP3    H165972   5.626   6.663   2.440  0.7464 -1.5983  0.1214
14827TIP3    H265973   5.690   6.795   2.405 -0.6157 -1.4782 -2.1351
14828TIP3   OH265974   4.794   6.776   3.422  0.6573 -0.2686  0.5520
14828TIP3    H165975   4.846   6.722   3.363  0.6780  0.6644 -0.2909
14828TIP3    H265976   4.722   6.718   3.450  1.2140 -1.0331  0.4375
14829TIP3   OH265977   2.992   3.476  12.327  0.2592  0.4386  0.0965
14829TIP3    H165978   2.925   3.409  12.336 -0.0485  0.3423 -2.2353
14829TIP3    H265979   3.075   3.427  12.325  0.1180  0.2114 -0.4850
14830TIP3   OH265980   0.133   3.615   5.755 -0.0316  0.3368  0.3987
14830TIP3    H165981   0.194   3.544   5.738 -1.9138 -1.4215  0.6776
14830TIP3    H265982   0.188   3.688   5.785  2.3044  0.1666 -3.0133
14831TIP3   OH265983   2.495   4.515   6.218 -0.1235 -0.2677  0.1388
14831TIP3    H165984   2.524   4.537   6.306 -0.5381 -1.8700  0.7172
14831TIP3    H265985   2.414   4.466   6.231  0.0831 -0.9943 -1.0921
14832TIP3   OH265986   0.334   4.320   1.048  0.3142 -0.4928  0.1809
14832TIP3    H165987   0.426   4.345   1.053  0.6002 -1.5477  0.5246
14832TIP3    H265988   0.287   4.402   1.031  1.2041  0.2358  1.1417
14833TIP3   OH265989   4.039   3.834   5.401 -0.4474 -0.1321  0.0246
14833TIP3    H165990   4.113   3.890   5.378  0.6975 -1.2670  0.8303
14833TIP3    H265991   3.981   3.892   5.452  0.9649  0.2151  1.2973
14834TIP3   OH265992   3.234   0.413   1.720  0.2106 -0.3735  0.2377
14834TIP3    H165993   3.233   0.433   1.626  1.1337  0.6751  0.4280
14834TIP3    H265994   3.267   0.323   1.725  0.9927 -0.1376 -0.4064
14835TIP3   OH265995   6.336   1.904  13.897  0.1416 -0.1275 -0.1793
14835TIP3    H165996   6.356   1.857  13.977 -0.3384 -0.3589 -0.1967
14835TIP3    H265997   6.395   1.866  13.831 -0.2445 -0.6991 -0.1948
14836TIP3   OH265998   5.005   4.140   1.454 -0.0150  0.2385 -0.2605
14836TIP3    H165999   4.979   4.193   1.530  2.2621 -0.9290  1.4348
14836TIP3    H266000   5.008   4.050   1.487 -0.0981 -0.4905 -2.0882
14837TIP3   OH266001   2.309   5.813   3.641  0.0826 -0.0797 -0.6092
14837TIP3    H166002   2.302   5.718   3.649 -0.7206  0.0627  0.9221
14837TIP3    H266003   2.326   5.829   3.548  1.8997 -1.7770 -0.6219
14838TIP3   OH266004   5.957   1.313   5.846 -0.0893 -0.0075 -0.2146
14838TIP3    H166005   6.029   1.284   5.902 -0.0151 -0.3320 -0.4727
14838TIP3    H266006   5.950   1.407   5.862 -0.4019 -0.1808  0.7166
14839TIP3   OH266007   4.810   6.000   5.082  0.0265  0.1132 -0.0695
14839TIP3    H166008   4.738   6.049   5.123  0.0623  1.1101 -1.1291
14839TIP3    H266009   4.822   5.924   5.138 -1.4777  0.2187  0.4545
14840TIP3   OH266010   0.048   0.309  12.546 -0.4011 -0.4942 -0.4482
14840TIP3    H166011   0.038   0.402  12.566  2.4236 -0.2363  0.1992
14840TIP3    H266012  -0.039   0.281  12.517 -1.9338  1.7818  1.5689
14841TIP3   OH266013   0.468   2.176   5.209 -0.0856  0.1015  0.0729
14841TIP3    H166014   0.414   2.250   5.235 -1.7155 -0.6848 -0.9455
14841TIP3    H266015   0.481   2.186   5.115 -1.9187 -1.8288 -0.4697
14842TIP3   OH266016   1.582   3.745   0.063 -0.3648  0.1112  0.2038
14842TIP3    H166017   1.671   3.737   0.028 -1.3662  0.5104 -2.7236
14842TIP3    H266018   1.540   3.810   0.007 -2.3585  0.3531  1.8639
14843TIP3   OH266019   2.946   1.336  14.418 -0.0490  0.0461 -0.3772
14843TIP3    H166020   2.868   1.389  14.435  0.3494  0.8497 -1.0048
14843TIP3    H266021   3.019   1.392  14.442  0.4401  0.3320 -2.2995
14844TIP3   OH266022   2.737   0.662  12.345  0.0203 -0.1605  0.2599
14844TIP3    H166023   2.745   0.600  12.273 -0.3542  0.6156 -0.4699
14844TIP3    H266024   2.725   0.608  12.423 -2.6732 -0.9982 -0.6352
14845TIP3   OH266025   1.306   3.314  11.669 -0.5331 -0.3167 -0.6543
14845TIP3    H166026   1.368   3.283  11.735  0.9556  0.3778 -1.6652
14845TIP3    H266027   1.306   3.409  11.680  0.3021 -0.1234 -2.0946
14846TIP3   OH266028   3.854   2.862   1.967  0.1778 -0.8146 -0.4732
14846TIP3    H166029   3.769   2.907   1.964  0.2295 -0.7688 -1.6510
14846TIP3    H266030   3.855   2.808   1.888  1.0669 -1.1475 -0.2403
14847TIP3   OH266031   5.339   1.532  12.147  0.2839 -0.2067 -0.0504
14847TIP3    H166032   5.311   1.469  12.214 -0.7967  0.5192  0.2087
14847TIP3    H266033   5.318   1.617  12.184  1.5923  0.3259 -0.4635
14848TIP3   OH266034   5.773   5.528  15.089 -0.0209 -0.1772  0.0347
14848TIP3    H166035   5.737   5.449  15.047 -2.6909  0.4794  0.9363
14848TIP3    H266036   5.846   5.553  15.032 -0.7750 -1.7733 -1.7696
14849TIP3   OH266037   3.381   6.465   1.051 -0.0373 -0.2578 -0.6844
14849TIP3    H166038   3.449   6.481   1.117 -0.9468  0.8701  0.0102
14849TIP3    H266039   3.427   6.418   0.981  1.8902  1.8771 -0.9800
14850TIP3   OH266040   1.880   1.382   2.812 -0.0398  0.1450 -0.1047
14850TIP3    H166041   1.966   1.373   2.853 -0.3545  0.3224  0.6250
14850TIP3    H266042   1.890   1.342   2.726  0.4817 -0.8279  0.3868
14851TIP3   OH266043   1.859   0.476  13.173 -0.7335  0.1569  0.1567
14851TIP3    H166044   1.815   0.490  13.089 -0.5897  2.9878  0.4512
14851TIP3    H266045   1.791   0.441  13.230 -2.0420  2.1790 -0.0606
14852TIP3   OH266046   1.112   3.010   0.922  0.0422 -0.3045  0.4361
14852TIP3    H166047   1.204   2.999   0.944  0.8391  1.0707 -1.8272
14852TIP3    H266048   1.103   3.102   0.898 -1.6896 -0.6135 -0.3276
14853TIP3   OH266049   6.385   5.733   5.589  0.1170 -0.0028  0.4627
14853TIP3    H166050   6.336   5.653   5.607 -1.4140  0.6717 -0.4885
14853TIP3    H266051   6.364   5.791   5.663  1.2061 -0.4389  1.1394
14854TIP3   OH266052   1.236   1.571  16.854  0.1673  0.2820 -0.4514
14854TIP3    H166053   1.277   1.570  16.941 -0.5052  0.1094 -0.1253
14854TIP3    H266054   1.266   1.653  16.815 -1.1986  1.4530  0.8042
14855TIP3   OH266055   6.054   2.784  13.631 -0.8256 -0.2315 -0.1805
14855TIP3    H166056   6.041   2.722  13.703 -0.0321  0.4473  0.5683
14855TIP3    H266057   6.123   2.745  13.578 -0.3956 -0.0524  0.2361
14856TIP3   OH266058   3.818   1.105   2.549  0.2585 -0.4408  0.2862
14856TIP3    H166059   3.789   1.189   2.584  1.0046  0.0146 -0.1553
14856TIP3    H266060   3.880   1.071   2.613  0.3155 -0.4294  0.2375
14857TIP3   OH266061   4.447   3.165  12.717  0.5932 -0.1978 -0.0546
14857TIP3    H166062   4.539   3.190  12.704  0.4739  1.9356  2.5094
14857TIP3    H266063   4.398   3.244  12.694 -0.5351 -0.9644 -0.3226
14858TIP3   OH266064   3.877   0.030   4.942 -0.4946  0.2315  0.1148
14858TIP3    H166065   3.865   0.079   5.024 -0.7979 -1.6607  1.2770
14858TIP3    H266066   3.789  -0.004   4.922 -0.3410  0.3563 -0.7701
14859TIP3   OH266067   2.409   4.036  13.200 -0.1482  0.3685  0.1150
14859TIP3    H166068   2.320   4.032  13.165  0.8309  0.0344 -2.5087
14859TIP3    H266069   2.458   4.088  13.137  1.7183 -0.0663  1.1243
14860TIP3   OH266070   2.032   0.138   6.327  0.3437  0.1408 -0.0834
14860TIP3    H166071   1.968   0.126   6.397  1.1989  1.3092  0.9404
14860TIP3    H266072   1.981   0.129   6.246 -0.6504 -1.2966  0.6638
14861TIP3   OH266073   2.779   5.082  14.389  0.3715 -0.4242 -0.0757
14861TIP3    H166074   2.758   5.091  14.482  2.4554 -1.0421  0.5150
14861TIP3    H266075   2.844   5.150  14.372  1.9751 -1.9453 -0.3613
14862TIP3   OH266076   3.766   0.116   4.689  0.0411  0.6430  0.1252
14862TIP3    H166077   3.728   0.193   4.732 -1.1262 -0.5317  1.2843
14862TIP3    H266078   3.817   0.073   4.757 -1.3927 -0.9617  0.2398
14863TIP3   OH266079   5.928   6.576   4.998 -0.4967 -0.1656 -0.2371
14863TIP3    H166080   5.955   6.567   4.907  0.9137 -0.3398  0.1868
14863TIP3    H266081   5.934   6.488   5.034  0.4107  0.1466  0.4031
14864TIP3   OH266082   1.763   1.343  15.101 -0.3306  0.3388 -0.2050
14864TIP3    H166083   1.764   1.250  15.078 -3.0934  1.0581 -4.5655
14864TIP3    H266084   1.851   1.374  15.081  0.0131 -0.9755 -0.8366
14865TIP3   OH266085   5.066   5.506   0.805 -0.0341  0.4279 -0.5923
14865TIP3    H166086   5.014   5.517   0.884  0.5035 -1.5625  0.0991
14865TIP3    H266087   5.108   5.590   0.791 -2.5154  1.7793 -0.5460
14866TIP3   OH266088   5.579   5.705   3.502 -0.1090  1.0359  0.4874
14866TIP3    H166089   5.630   5.785   3.492 -0.4427  1.4215  1.6951
14866TIP3    H266090   5.519   5.724   3.574  0.3911 -0.5879  1.3775
14867TIP3   OH266091   6.790   0.098   2.863  0.0966 -0.0507 -0.3732
14867TIP3    H166092   6.823   0.183   2.837  0.0135  0.5606  1.4284
14867TIP3    H266093   6.763   0.109   2.954  0.0178 -1.9835 -0.1247
14868TIP3   OH266094   3.637   0.825  14.725 -0.0459 -0.3237 -0.5078
14868TIP3    H166095   3.562   0.880  14.700 -0.6401 -0.7331  0.2907
14868TIP3    H266096   3.600   0.762  14.787  0.8709 -0.8552 -0.4852
14869TIP3   OH266097   3.448   0.478  12.810  0.5924 -0.0046 -0.1858
14869TIP3    H166098   3.424   0.554  12.758 -2.1765  0.0177  0.9744
14869TIP3    H266099   3.412   0.403  12.762  0.0571 -0.2051  0.5098
14870TIP3   OH266100   2.607   5.158   0.810 -0.7719  0.0139 -0.5008
14870TIP3    H166101   2.595   5.065   0.829  1.0677 -0.6335 -2.1099
14870TIP3    H266102   2.684   5.184   0.860 -0.6479  0.3809 -0.8718
14871TIP3   OH266103   2.058   1.337   5.878 -0.3336  0.0326  0.6698
14871TIP3    H166104   1.999   1.295   5.942 -1.1042 -0.4426 -0.3213
14871TIP3    H266105   2.145   1.302   5.899 -0.6249 -0.3554  1.2554
14872TIP3   OH266106   2.943   1.350  11.575  0.7261 -0.1590  0.6037
14872TIP3    H166107   2.868   1.379  11.522 -0.5216 -1.1334  1.7435
14872TIP3    H266108   2.938   1.404  11.654  2.1930  0.8544  0.0259
14873TIP3   OH266109   5.497   0.978  11.194  0.1113  0.1213 -0.0052
14873TIP3    H166110   5.489   1.043  11.124  0.2873 -0.5433 -0.6540
14873TIP3    H266111   5.576   0.928  11.173 -0.7239 -1.1579 -0.2573
14874TIP3   OH266112   1.034   5.686   5.727 -0.2534 -0.4503  0.2713
14874TIP3    H166113   1.076   5.676   5.813 -2.7465 -2.2631  1.3993
14874TIP3    H266114   1.020   5.781   5.719  0.6690 -0.1713  1.5311
14875TIP3   OH266115   4.539   3.519   1.959 -0.4762 -0.3936 -0.4615
14875TIP3    H166116   4.479   3.502   1.887 -1.5395  0.1411  0.2652
14875TIP3    H266117   4.506   3.464   2.030  0.9607 -1.4304 -0.5695
14876TIP3   OH266118   0.845   0.558  14.829 -0.0946  0.0142 -0.4672
14876TIP3    H166119   0.880   0.579  14.916  0.6162 -1.0706 -0.4596
14876TIP3    H266120   0.794   0.478  14.843 -1.1857  0.6305 -0.8016
14877TIP3   OH266121   0.375   1.167  10.499 -0.0895 -0.8157  0.0337
14877TIP3    H166122   0.357   1.165  10.593  0.3837  0.8459  0.2000
14877TIP3    H266123   0.317   1.235  10.465  0.9663 -0.1729 -0.5582
14878TIP3   OH266124   3.509   1.060   2.516 -0.4905  0.3291 -1.0334
14878TIP3    H166125   3.568   1.114   2.463 -1.6457  1.8138 -0.8751
14878TIP3    H266126   3.555   0.977   2.526  1.6181  1.4450 -0.8379
14879TIP3   OH266127   5.977   1.455   4.663  0.1476 -0.3682  0.1638
14879TIP3    H166128   6.008   1.365   4.656 -0.6228 -0.5661 -0.8810
14879TIP3    H266129   6.043   1.506   4.616  0.0789 -0.5099 -0.0882
14880TIP3   OH266130   0.550   3.542  10.985  0.0107  0.4048 -0.3438
14880TIP3    H166131   0.548   3.560  11.079 -0.3782 -0.7189 -0.1162
14880TIP3    H266132   0.530   3.625  10.944 -1.5395  0.5532  0.6166
14881TIP3   OH266133   4.523   3.669   2.673  0.5724  0.4817  0.1350
14881TIP3    H166134   4.473   3.723   2.612 -0.2653 -0.3521  0.0652
14881TIP3    H266135   4.457   3.628   2.728  1.1908 -0.5386  0.1279
14882TIP3   OH266136   2.263   0.935  15.579 -0.3321  0.8313 -0.2722
14882TIP3    H166137   2.288   0.846  15.554 -0.8525  0.5882  0.0683
14882TIP3    H266138   2.167   0.935  15.578 -0.3531  1.7045 -1.4099
14883TIP3   OH266139   0.983   4.246  15.861  0.3127 -0.2413 -0.4576
14883TIP3    H166140   0.951   4.186  15.928 -2.6671  0.8753 -0.7648
14883TIP3    H266141   0.957   4.206  15.778  1.7019 -0.3492 -0.8704
14884TIP3   OH266142   5.044   3.921  13.967 -0.2099  0.2412 -0.7497
14884TIP3    H166143   5.070   3.855  14.030 -0.6566  2.1280  1.5406
14884TIP3    H266144   5.126   3.961  13.938  0.0827 -1.4209 -2.3676
14885TIP3   OH266145   0.771   0.083   2.963 -0.3438 -0.2025 -0.4370
14885TIP3    H166146   0.823   0.018   3.011  0.3854  1.0581  0.5540
14885TIP3    H266147   0.746   0.039   2.882  1.3700 -1.2219 -0.4550
14886TIP3   OH266148   1.680   0.206   0.481 -0.3575 -0.1702  0.3675
14886TIP3    H166149   1.605   0.147   0.485 -0.0684 -0.4647  1.9168
14886TIP3    H266150   1.669   0.265   0.555  0.3711  0.4856 -0.0308
14887TIP3   OH266151   3.289   6.054  14.774 -0.0006 -0.2966  0.1615
14887TIP3    H166152   3.302   6.146  14.751  1.1843 -0.4768  0.0086
14887TIP3    H266153   3.300   6.007  14.691  0.6088 -0.6593  0.4387
14888TIP3   OH266154   2.161   6.766  13.698  0.0905 -0.2598  0.1356
14888TIP3    H166155   2.068   6.747  13.706 -0.4894  0.6167 -3.0197
14888TIP3    H266156   2.166   6.862  13.691  0.7990 -0.4016 -2.6450
14889TIP3   OH266157   3.660   3.645  16.737 -1.0308 -0.4764  0.0695
14889TIP3    H166158   3.653   3.737  16.762  1.5532 -0.3929  0.7177
14889TIP3    H266159   3.692   3.601  16.815 -0.0798 -1.5218 -0.8769
14890TIP3   OH266160   5.958   2.696   2.303 -0.0161 -0.3087  0.4510
14890TIP3    H166161   5.945   2.791   2.303 -0.9172 -0.3796 -1.5338
14890TIP3    H266162   5.869   2.660   2.312 -0.1055 -0.8973 -2.1681
14891TIP3   OH266163   2.329   0.031  16.656  0.0351  0.4327 -0.2610
14891TIP3    H166164   2.241   0.069  16.654 -1.2819 -2.3481 -0.2130
14891TIP3    H266165   2.329  -0.034  16.586  1.9200  0.0543  0.0290
14892TIP3   OH266166   4.076   5.590   0.764 -0.6501  0.5436  0.3267
14892TIP3    H166167   4.089   5.626   0.852  0.3017  0.3754  0.2635
14892TIP3    H266168   4.107   5.500   0.770  0.0023  0.7151 -0.3335
14893TIP3   OH266169   5.800   6.419  15.230 -0.1235 -0.1929 -0.2034
14893TIP3    H166170   5.741   6.363  15.180 -1.4588  0.7966  0.2086
14893TIP3    H266171   5.793   6.387  15.320 -0.4826  0.2629 -0.0599
14894TIP3   OH266172   6.177   2.183   3.662 -0.3854  0.1382  0.4125
14894TIP3    H166173   6.154   2.095   3.633 -0.5465  0.0808  0.7079
14894TIP3    H266174   6.246   2.170   3.727 -0.4591  0.2254  0.5087
14895TIP3   OH266175   6.006   2.950   0.791  0.3937  0.0410 -0.1363
14895TIP3    H166176   6.023   3.012   0.862  0.5534 -0.8610  0.6304
14895TIP3    H266177   5.920   2.976   0.757 -0.3018 -0.3012  1.2639
14896TIP3   OH266178   3.032   6.023  14.974  0.1310 -0.0947 -0.8316
14896TIP3    H166179   2.996   5.945  14.931  1.3520 -0.6100 -0.9764
14896TIP3    H266180   3.124   6.025  14.946  0.1028  1.4570 -0.9044
14897TIP3   OH266181   1.799   1.436  15.420 -0.1893  0.1709 -0.3419
14897TIP3    H166182   1.847   1.467  15.343  0.1462 -1.0593 -0.6490
14897TIP3    H266183   1.868   1.413  15.484 -0.4479  0.6955  0.1340
14898TIP3   OH266184   6.429   6.652   5.419  0.4955  0.3918 -0.4219
14898TIP3    H166185   6.357   6.695   5.372 -1.6198 -1.5753  0.7875
14898TIP3    H266186   6.446   6.573   5.368  1.2657  0.4399 -0.2488
14899TIP3   OH266187   4.523   1.081  11.248  0.7875 -0.2587  0.5307
14899TIP3    H166188   4.511   0.986  11.248 -2.0205  0.0066  0.9832
14899TIP3    H266189   4.461   1.112  11.314 -1.8684  2.1801 -2.7422
14900TIP3   OH266190   4.550   2.915  14.919 -0.3690 -0.0233 -0.3257
14900TIP3    H166191   4.628   2.928  14.973  0.2444 -0.4526 -1.0816
14900TIP3    H266192   4.569   2.962  14.837 -0.2205 -1.4131 -1.1256
14901TIP3   OH266193   2.694   5.004   1.076 -0.3326  0.1602  0.0297
14901TIP3    H166194   2.723   4.914   1.092 -0.5154  0.2474  0.9162
14901TIP3    H266195   2.617   4.995   1.020 -0.8458 -0.2870  0.8013
14902TIP3   OH266196   3.984   4.906  12.808 -0.0956  0.3420 -0.0172
14902TIP3    H166197   3.991   4.847  12.883  0.6201 -0.2755 -0.5717
14902TIP3    H266198   4.037   4.982  12.833 -0.2632  0.3617  0.2980
14903TIP3   OH266199   0.173   6.302   4.530  0.3115 -0.2650  0.5381
14903TIP3    H166200   0.134   6.291   4.443  0.1828 -0.5022  0.6245
14903TIP3    H266201   0.226   6.223   4.543  1.9176  0.6527 -0.1332
14904TIP3   OH266202   5.316   6.482   1.071  0.2439 -0.2809 -0.4161
14904TIP3    H166203   5.279   6.403   1.111  1.4806 -1.0205 -0.6817
14904TIP3    H266204   5.365   6.449   0.996  2.2376  0.5275  0.4722
14905TIP3   OH266205   0.699   0.426  13.140 -0.9373  0.9716  0.7197
14905TIP3    H166206   0.784   0.383  13.129 -0.6645  0.9445  2.6002
14905TIP3    H266207   0.698   0.495  13.073  1.7400  2.6992  2.2639
14906TIP3   OH266208   2.560   3.008  16.656  0.0432 -0.4757 -0.2554
14906TIP3    H166209   2.550   3.056  16.574 -1.2963 -0.6256 -0.2004
14906TIP3    H266210   2.628   2.944  16.638  0.6306  0.2951 -0.8619
14907TIP3   OH266211   4.417   2.622  10.910 -0.4247  0.4493 -0.1740
14907TIP3    H166212   4.462   2.603  10.992 -0.7217 -0.1114 -0.1386
14907TIP3    H266213   4.334   2.575  10.917  1.1873 -3.1818 -2.5449
14908TIP3   OH266214   6.313   0.866  13.993  0.2612 -0.2352 -0.3578
14908TIP3    H166215   6.332   0.959  14.003 -1.3468  0.0971 -0.1361
14908TIP3    H266216   6.294   0.855  13.900 -4.8321  0.8407  0.2852
14909TIP3   OH266217   5.483   4.880  10.214  0.0769 -0.0351 -0.0084
14909TIP3    H166218   5.398   4.922  10.230  0.4619  0.7823 -0.0205
14909TIP3    H266219   5.521   4.930  10.141 -0.7344 -2.3507 -2.1618
14910TIP3   OH266220   5.049   6.013  13.340 -0.2268  0.1211 -0.0175
14910TIP3    H166221   5.069   5.942  13.280  1.0715  0.0805  0.4183
14910TIP3    H266222   5.002   5.971  13.412 -0.7817 -0.0234 -0.4578
14911TIP3   OH266223   1.674   6.447   1.774  0.0689 -0.4569 -0.1452
14911TIP3    H166224   1.690   6.474   1.864  0.0385  0.0623 -0.2954
14911TIP3    H266225   1.661   6.352   1.780 -0.7800 -0.3082  0.5141
14912TIP3   OH266226   1.265   4.709  10.782 -0.4041 -0.7183 -0.5162
14912TIP3    H166227   1.198   4.743  10.842 -1.6932 -1.3123 -1.5752
14912TIP3    H266228   1.325   4.783  10.769  0.1449 -0.6849  1.7754
14913TIP3   OH266229   4.896   6.605  12.047  0.1976 -0.0692 -0.2947
14913TIP3    H166230   4.979   6.575  12.083  0.6786 -0.4933 -1.7230
14913TIP3    H266231   4.840   6.528  12.046 -0.0388  0.0911  0.1413
14914TIP3   OH266232   0.989   4.764   0.890 -1.1130 -0.1131  0.1090
14914TIP3    H166233   0.964   4.713   0.967  0.1348 -0.7202  0.1231
14914TIP3    H266234   1.026   4.700   0.830 -0.0115  0.6929 -0.0956
14915TIP3   OH266235   3.162   6.384  16.816  0.2126  0.2546  0.6202
14915TIP3    H166236   3.206   6.443  16.755  0.9124 -0.6457  0.2076
14915TIP3    H266237   3.119   6.319  16.759  1.9706 -1.3713  1.0362
14916TIP3   OH266238   0.133   4.481   1.803  0.1814 -0.0684  0.6609
14916TIP3    H166239   0.133   4.554   1.741 -1.1793 -1.7552 -1.4958
14916TIP3    H266240   0.147   4.403   1.748  2.0345 -1.4622  2.8903
14917TIP3   OH266241   4.298   1.501   5.503  0.3611  0.2341 -0.0037
14917TIP3    H166242   4.241   1.501   5.426  1.7812 -0.9282 -1.1259
14917TIP3    H266243   4.244   1.467   5.574 -0.6248  0.1524 -0.7858
14918TIP3   OH266244   0.579   5.170   3.708 -0.3512  0.2701 -0.4040
14918TIP3    H166245   0.623   5.112   3.647 -1.6024 -0.3622 -0.7320
14918TIP3    H266246   0.492   5.132   3.720 -0.7080  1.2943  0.4790
14919TIP3   OH266247   3.675   5.072   5.076  0.1401 -0.4947  0.5414
14919TIP3    H166248   3.597   5.125   5.090  1.0776  1.1110 -0.0097
14919TIP3    H266249   3.646   5.002   5.018 -0.7972  0.3788 -0.0870
14920TIP3   OH266250   2.035   0.249  15.131  0.2536  0.3378 -0.0791
14920TIP3    H166251   2.008   0.228  15.042  0.4595  0.1627 -0.1022
14920TIP3    H266252   1.983   0.325  15.155 -1.5098 -0.9997  0.5093
14921TIP3   OH266253   3.594   0.645   2.235  0.2995 -0.3385 -0.1036
14921TIP3    H166254   3.585   0.573   2.172  0.2471  0.2640 -0.7888
14921TIP3    H266255   3.605   0.723   2.181 -1.8711  0.4960  0.5527
14922TIP3   OH266256   0.588   1.154   5.303  0.5754  0.4546  0.0494
14922TIP3    H166257   0.621   1.243   5.295 -0.6291  0.8641 -0.6323
14922TIP3    H266258   0.504   1.163   5.348  0.1111 -0.2540 -0.6402
14923TIP3   OH266259   1.276   0.663  16.361  0.3714  0.0578  0.1263
14923TIP3    H166260   1.187   0.667  16.325 -0.5280 -0.2880  2.1845
14923TIP3    H266261   1.277   0.584  16.415  1.8550  0.2062  0.3487
14924TIP3   OH266262   2.833   5.405  11.947 -0.9778 -0.2784  0.0171
14924TIP3    H166263   2.754   5.441  11.907 -1.0874 -1.7107 -1.1378
14924TIP3    H266264   2.887   5.481  11.966 -1.4503  0.5674 -1.7800
14925TIP3   OH266265   2.031   2.874  14.091 -0.3989 -0.1581  0.1863
14925TIP3    H166266   1.937   2.895  14.091 -0.1423  1.0839  0.7411
14925TIP3    H266267   2.074   2.956  14.115  0.8546 -0.6571 -0.2805
14926TIP3   OH266268   1.208   3.014  16.910 -0.2638 -0.4254  0.2355
14926TIP3    H166269   1.137   2.992  16.971  0.5140 -0.0994  1.2802
14926TIP3    H266270   1.182   2.973  16.827 -1.5842 -0.4504  0.6450
14927TIP3   OH266271   0.542   2.005   0.116  0.5957 -0.1491 -0.7630
14927TIP3    H166272   0.510   2.095   0.108  0.1682 -0.2836 -0.6004
14927TIP3    H266273   0.530   1.967   0.029  1.8787  0.3017 -1.1535
14928TIP3   OH266274   3.686   3.004  10.309  0.0663  0.6671  0.2128
14928TIP3    H166275   3.632   3.032  10.384  0.7977  1.9309  0.2999
14928TIP3    H266276   3.769   3.050  10.321  0.5695  0.0641 -0.8285
14929TIP3   OH266277   2.177   5.610  15.153 -0.4280 -0.0006  0.3525
14929TIP3    H166278   2.200   5.546  15.220 -2.0777  0.8534  1.8172
14929TIP3    H266279   2.082   5.611  15.152 -0.4707  2.7675  0.7432
14930TIP3   OH266280   5.858   2.298  15.839  0.3701  0.0634 -0.7224
14930TIP3    H166281   5.903   2.214  15.831  0.3183 -0.1595  0.9764
14930TIP3    H266282   5.791   2.283  15.906  0.5377  1.5322 -0.1983
14931TIP3   OH266283   5.426   4.249  10.602 -0.3297 -0.5493  0.3042
14931TIP3    H166284   5.459   4.325  10.553 -0.7151  1.1254  2.4940
14931TIP3    H266285   5.336   4.239  10.573  0.4546 -1.9409 -1.9508
14932TIP3   OH266286   2.538   2.461  15.237  0.2125 -0.0973 -0.2852
14932TIP3    H166287   2.541   2.556  15.223 -3.3473  0.2396  0.4425
14932TIP3    H266288   2.545   2.450  15.331  0.0592 -0.5036 -0.3201
14933TIP3   OH266289   5.013   3.937  14.513  0.3286 -0.4980  0.3584
14933TIP3    H166290   4.983   3.996  14.582 -1.4855 -0.9626  0.0162
14933TIP3    H266291   5.050   3.996  14.446 -0.6680  0.1931  0.3992
14934TIP3   OH266292   4.980   6.513   0.670 -0.5119 -0.4342 -0.3164
14934TIP3    H166293   4.968   6.555   0.585 -1.3807  0.5880  0.2793
14934TIP3    H266294   5.031   6.576   0.721 -2.3696  0.2668  0.7961
14935TIP3   OH266295   0.514   2.829   5.202 -0.2010 -0.2185 -0.3972
14935TIP3    H166296   0.606   2.855   5.198 -0.3448  0.5457  0.6821
14935TIP3    H266297   0.503   2.768   5.130  0.6117  1.4060 -1.9949
14936TIP3   OH266298   6.511   0.091   3.631  0.1098 -0.0618  0.2367
14936TIP3    H166299   6.547   0.164   3.681 -0.1200 -0.6666  1.3056
14936TIP3    H266300   6.500   0.126   3.542 -0.5513  1.3750  0.8562
14937TIP3   OH266301   5.049   5.978  15.970 -0.0679 -0.6923 -1.0065
14937TIP3    H166302   5.086   6.029  16.043 -0.4527  1.3472 -2.1578
14937TIP3    H266303   4.978   5.928  16.010 -0.9292  1.1401 -0.0928
14938TIP3   OH266304   6.669   3.367   2.676 -0.1669 -0.0322  0.1650
14938TIP3    H166305   6.761   3.391   2.689  0.0393  0.0875 -1.2986
14938TIP3    H266306   6.623   3.450   2.670 -0.4643 -0.0967  1.4010
14939TIP3   OH266307   6.741   6.681   1.257  0.7068 -0.7259  0.0973
14939TIP3    H166308   6.753   6.775   1.240 -1.0927  0.0204  2.3253
14939TIP3    H266309   6.697   6.648   1.179  0.3290  0.5808 -0.2805
14940TIP3   OH266310   1.758   0.272  13.596 -0.2241  0.3660  0.0070
14940TIP3    H166311   1.843   0.242  13.565 -0.4383 -0.3928  0.1201
14940TIP3    H266312   1.764   0.269  13.691 -0.3852  0.2844  0.0155
14941TIP3   OH266313   1.002   4.887  13.911  0.0891 -0.2611  0.0574
14941TIP3    H166314   0.992   4.796  13.882  1.5281 -0.9571  1.6170
14941TIP3    H266315   1.083   4.917  13.869  0.1302  0.0023  0.3237
14942TIP3   OH266316   3.618   4.437  16.690 -0.0939 -0.1317 -0.4211
14942TIP3    H166317   3.587   4.421  16.779  0.3807  1.0835 -0.0099
14942TIP3    H266318   3.710   4.411  16.691 -0.0583 -0.0103 -0.5274
14943TIP3   OH266319   5.360   0.874   3.462  0.1211  0.6222  1.3081
14943TIP3    H166320   5.395   0.817   3.531  0.7521 -0.0436  0.4681
14943TIP3    H266321   5.438   0.903   3.414 -0.4295 -1.2423 -0.8850
14944TIP3   OH266322   1.640   3.889   5.432  0.1655  0.1643  0.0154
14944TIP3    H166323   1.627   3.957   5.498  3.1802  2.6012 -1.6863
14944TIP3    H266324   1.731   3.863   5.442  0.0969 -0.9376 -1.8100
14945TIP3   OH266325   0.958   4.828  12.075 -0.3990 -0.1591 -0.2886
14945TIP3    H166326   1.007   4.890  12.129 -0.3176 -1.1535  0.8176
14945TIP3    H266327   1.012   4.750  12.073 -0.7060 -0.3571 -1.3104
14946TIP3   OH266328   6.466   6.367   6.250  0.5117  0.1118  0.6612
14946TIP3    H166329   6.444   6.460   6.248  0.7007  0.2375  2.5637
14946TIP3    H266330   6.562   6.365   6.249  0.5371 -0.1981 -1.7010
14947TIP3   OH266331   3.030   3.618   1.184  0.2948  0.4005  0.1284
14947TIP3    H166332   2.942   3.634   1.218  0.4588  1.0470  0.2574
14947TIP3    H266333   3.043   3.685   1.118  1.4534  1.6052  1.5136
14948TIP3   OH266334   1.095   0.277   0.213  0.2966  0.5912 -0.8565
14948TIP3    H166335   1.006   0.268   0.178  0.3383 -1.9393 -0.4799
14948TIP3    H266336   1.101   0.369   0.239 -2.1181  0.8924 -1.1238
14949TIP3   OH266337   2.185   3.320  11.496 -0.1792 -0.6635  0.6707
14949TIP3    H166338   2.163   3.256  11.430  0.0260 -1.9656  1.8170
14949TIP3    H266339   2.101   3.353  11.527 -0.3943 -2.0037  1.5915
14950TIP3   OH266340   6.760   4.206   3.569  0.2776 -0.0465 -0.7969
14950TIP3    H166341   6.854   4.199   3.551  0.3555 -1.9549  0.1098
14950TIP3    H266342   6.721   4.221   3.483  1.1772 -2.4771 -1.7327
14951TIP3   OH266343   4.355   1.686  17.031  0.5946  0.4029  0.8544
14951TIP3    H166344   4.445   1.680  16.999  0.6709 -0.1408  1.1557
14951TIP3    H266345   4.325   1.595  17.033  0.3400  0.4961  1.6151
14952TIP3   OH266346   6.627   2.354   0.589 -0.1808  0.2917  0.1919
14952TIP3    H166347   6.565   2.365   0.661 -0.5957 -0.6837  0.0080
14952TIP3    H266348   6.606   2.424   0.528 -0.8993  0.1681  0.2840
14953TIP3   OH266349   3.555   1.641   0.491 -0.0354  0.3680  0.3672
14953TIP3    H166350   3.629   1.596   0.531  0.4427  0.9215  0.1098
14953TIP3    H266351   3.520   1.696   0.561 -0.0646  0.2860  0.4184
14954TIP3   OH266352   2.584   4.884   5.179 -0.5705  0.0961  0.4889
14954TIP3    H166353   2.571   4.790   5.174 -1.4364  0.2599 -0.9110
14954TIP3    H266354   2.657   4.901   5.119 -0.0319  0.2620  1.1802
14955TIP3   OH266355   6.746   1.076   2.903  0.2574 -0.3785 -0.0920
14955TIP3    H166356   6.651   1.068   2.917  0.6075 -1.5484  2.0755
14955TIP3    H266357   6.782   1.093   2.990  2.0538  0.1034 -0.8797
14956TIP3   OH266358   0.310   5.900  15.927  0.3087  0.3828  0.5118
14956TIP3    H166359   0.349   5.827  15.879  0.6504  0.3180  0.8879
14956TIP3    H266360   0.240   5.860  15.978  1.4117  0.0601  1.8342
14957TIP3   OH266361   3.610   0.227  11.559 -0.4396 -0.0268  0.5645
14957TIP3    H166362   3.648   0.291  11.498 -0.3151 -2.0878 -1.6565
14957TIP3    H266363   3.662   0.148  11.546 -2.5626 -1.5379  0.8641
14958TIP3   OH266364   3.827   5.805  13.891  0.4857  0.1175  0.3282
14958TIP3    H166365   3.834   5.710  13.881  2.3337 -0.0322  2.3028
14958TIP3    H266366   3.786   5.817  13.977  0.0385  1.1354 -0.0021
14959TIP3   OH266367   3.341   1.573  16.794 -0.3185  0.1300  0.5218
14959TIP3    H166368   3.298   1.559  16.878  1.2347  1.2844  1.5827
14959TIP3    H266369   3.430   1.539  16.807 -0.8892 -2.5954 -1.7225
14960TIP3   OH266370   0.178   5.000   3.939 -0.2287  0.1253  0.2429
14960TIP3    H166371   0.168   4.945   4.017  1.0734 -1.4306 -0.6310
14960TIP3    H266372   0.253   5.056   3.959  1.2262 -1.4723 -0.4850
14961TIP3   OH266373   4.080   5.517  10.773  0.0320 -0.1222 -0.0260
14961TIP3    H166374   4.056   5.502  10.682  1.5479 -0.6533 -0.3495
14961TIP3    H266375   4.079   5.612  10.783 -2.0225 -0.0857 -0.0376
14962TIP3   OH266376   4.241   0.450   1.707 -0.2349  0.2106 -0.3133
14962TIP3    H166377   4.188   0.385   1.753 -0.6420  0.6285 -0.1783
14962TIP3    H266378   4.213   0.443   1.615 -0.3665  0.2720 -0.2793
14963TIP3   OH266379   2.499   5.594   4.579  0.6149 -0.0913 -0.3684
14963TIP3    H166380   2.550   5.515   4.564  2.0647  0.7438 -0.0393
14963TIP3    H266381   2.449   5.576   4.659  1.3465 -0.4725  0.0060
14964TIP3   OH266382   0.683   1.939   0.908  0.3645  0.2477 -0.0070
14964TIP3    H166383   0.748   1.884   0.864  1.6873  1.7494 -0.0298
14964TIP3    H266384   0.636   1.879   0.966 -0.4673 -1.5163 -2.3367
14965TIP3   OH266385   5.023   2.349  14.946  0.5056  0.1789  0.8275
14965TIP3    H166386   5.024   2.281  14.878  0.9638  0.8056  0.1894
14965TIP3    H266387   4.942   2.333  14.995 -1.1268  1.1919 -1.3949
14966TIP3   OH266388   4.226   6.161  14.056 -0.3102 -0.3458 -0.2295
14966TIP3    H166389   4.303   6.150  14.000  1.5094  2.1134  1.5758
14966TIP3    H266390   4.180   6.235  14.017 -0.1366  0.0693  0.3398
14967TIP3   OH266391   5.405   0.226   2.029 -0.3083 -0.2445  0.0138
14967TIP3    H166392   5.352   0.267   2.097 -0.1589  0.6992 -0.4289
14967TIP3    H266393   5.450   0.299   1.986  1.0037 -0.9776  0.0814
14968TIP3   OH266394   4.862   3.294   2.043  0.1325  0.7380 -0.1559
14968TIP3    H166395   4.794   3.227   2.042  0.7033  0.0755  1.2927
14968TIP3    H266396   4.818   3.373   2.076 -0.0448  0.4346  0.3511
14969TIP3   OH266397   3.559   2.574  13.332  0.2992  0.9517 -0.0339
14969TIP3    H166398   3.503   2.603  13.259  2.1954 -0.6668 -2.3048
14969TIP3    H266399   3.645   2.612  13.312  1.1848 -0.6309  0.6028
14970TIP3   OH266400   3.028   3.721  13.153 -0.3207  0.0017 -0.2756
14970TIP3    H166401   3.023   3.797  13.094 -0.2455  0.9494  0.8813
14970TIP3    H266402   3.115   3.684  13.138 -0.6820 -0.3839 -1.4678
14971TIP3   OH266403   5.965   3.317   4.606  0.5532 -0.4961  0.2185
14971TIP3    H166404   5.962   3.336   4.700 -2.8110 -0.0732  0.1625
14971TIP3    H266405   5.954   3.402   4.564  0.1152 -0.8897 -0.4903
14972TIP3   OH266406   4.609   3.510  12.619  0.3319 -0.1541  0.4435
14972TIP3    H166407   4.592   3.587  12.564  0.1775 -1.5592 -1.6006
14972TIP3    H266408   4.533   3.504  12.677 -0.4812  0.2725 -0.5550
14973TIP3   OH266409   5.842   3.139   3.202 -0.0579  0.2238 -0.4681
14973TIP3    H166410   5.764   3.121   3.255  0.0691  0.4534 -0.1974
14973TIP3    H266411   5.906   3.073   3.229 -0.1132  0.1177 -0.5953
14974TIP3   OH266412   3.283   1.482   1.135  0.2481  0.2810  0.0844
14974TIP3    H166413   3.318   1.491   1.046 -1.1659 -0.3748 -0.5687
14974TIP3    H266414   3.259   1.571   1.161 -0.1876  0.3569 -0.5598
14975TIP3   OH266415   5.087   3.266   6.701 -0.2289 -0.6579  0.1104
14975TIP3    H166416   5.115   3.354   6.724  0.5765 -0.3888 -1.7311
14975TIP3    H266417   5.168   3.215   6.695 -0.6100 -1.3006  0.2660
14976TIP3   OH266418   3.853   1.984   3.317  0.2185 -0.1849 -0.4397
14976TIP3    H166419   3.926   2.020   3.366 -0.3020 -1.2457  1.1698
14976TIP3    H266420   3.886   1.903   3.279 -0.1628 -0.7864  0.4837
14977TIP3   OH266421   6.170   4.484  13.642 -0.6634  0.2581 -0.3683
14977TIP3    H166422   6.220   4.414  13.601  0.8546  0.6836  0.6715
14977TIP3    H266423   6.084   4.445  13.660  0.4969 -1.7520  1.2262
14978TIP3   OH266424   4.549   5.150  15.280 -0.2673 -0.0487 -0.4478
14978TIP3    H166425   4.507   5.198  15.352  0.3262  1.5718 -1.1368
14978TIP3    H266426   4.613   5.212  15.245  1.1846 -1.6944 -0.8072
14979TIP3   OH266427   4.830   4.207   4.185  0.8828 -0.1025  0.1769
14979TIP3    H166428   4.923   4.197   4.206  0.6975  0.4282  1.2699
14979TIP3    H266429   4.801   4.282   4.236  0.0670  0.3360 -0.8969
14980TIP3   OH266430   5.000   0.375   3.950 -0.6569 -0.0056  0.0086
14980TIP3    H166431   4.977   0.431   3.875  0.6071  0.7109  0.1317
14980TIP3    H266432   4.957   0.292   3.932  1.6676 -0.7356 -2.8575
14981TIP3   OH266433   6.519   1.223   1.804 -0.2798  0.1877  0.3323
14981TIP3    H166434   6.461   1.228   1.880  0.1832  1.3568  0.6332
14981TIP3    H266435   6.605   1.248   1.838 -0.0645  0.7208 -0.5709
14982TIP3   OH266436   2.147   5.741   5.077 -0.1220 -0.6533 -0.3051
14982TIP3    H166437   2.084   5.791   5.025 -0.9813 -1.4511 -0.0671
14982TIP3    H266438   2.176   5.671   5.018  0.0572 -0.6708 -0.1975
14983TIP3   OH266439   1.648   5.567   4.893  0.2193 -0.0552  0.9636
14983TIP3    H166440   1.569   5.512   4.886  1.6955 -2.1249 -2.9695
14983TIP3    H266441   1.622   5.651   4.855 -0.3717 -0.3609  0.6729
14984TIP3   OH266442   5.135   3.240  15.762  0.3370 -0.0821 -0.1090
14984TIP3    H166443   5.097   3.328  15.756 -0.4540 -0.3970  0.1960
14984TIP3    H266444   5.230   3.255  15.757  0.2169  0.8009  0.0369
14985TIP3   OH266445   0.573   2.620   5.952  0.0716  0.4382  0.0249
14985TIP3    H166446   0.660   2.580   5.944 -0.1772 -0.1316  0.1212
14985TIP3    H266447   0.543   2.595   6.039 -1.2336 -1.5168 -0.9271
14986TIP3   OH266448   3.932   3.049   2.383 -0.4558  0.6303  0.0854
14986TIP3    H166449   3.900   2.997   2.309  0.6418  0.1303 -0.0718
14986TIP3    H266450   3.943   2.986   2.454 -1.0464  1.0241  0.5325
14987TIP3   OH266451   1.231   1.568   3.642  0.4623  0.3403 -0.0262
14987TIP3    H166452   1.193   1.530   3.563  1.0714 -0.1326 -0.0934
14987TIP3    H266453   1.186   1.524   3.714  0.0921  0.5885 -0.0971
14988TIP3   OH266454   5.223   2.826  12.414 -0.1736 -0.4537  0.0900
14988TIP3    H166455   5.285   2.884  12.459 -1.3075  0.0289  1.0644
14988TIP3    H266456   5.172   2.786  12.484 -0.3461 -1.5972 -0.6492
14989TIP3   OH266457   2.935   0.661   0.990  0.6926  0.3705 -0.1185
14989TIP3    H166458   2.880   0.652   1.068 -0.0591  0.5668 -0.6192
14989TIP3    H266459   2.891   0.728   0.937  0.4162 -0.7705 -1.3677
14990TIP3   OH266460   0.004   1.508   3.693  0.3480  0.4844 -0.3189
14990TIP3    H166461  -0.026   1.418   3.706 -0.0159  0.6957  0.3682
14990TIP3    H266462   0.048   1.507   3.608  1.4759 -0.6277  0.2476
14991TIP3   OH266463   4.586   5.210   6.251  0.1075 -0.3119  0.5524
14991TIP3    H166464   4.651   5.265   6.295  0.3332 -0.0880 -0.0442
14991TIP3    H266465   4.627   5.123   6.247  1.3143  0.2829 -1.6965
14992TIP3   OH266466   5.103   4.302   3.483  0.4557 -0.0978 -0.1168
14992TIP3    H166467   5.106   4.242   3.557  2.2421 -2.4637 -1.9276
14992TIP3    H266468   5.010   4.321   3.471  0.1521  1.3196  3.3053
14993TIP3   OH266469   1.808   6.269   4.158  0.2565  0.1264 -0.2677
14993TIP3    H166470   1.784   6.352   4.200  0.3644  0.0566 -0.0680
14993TIP3    H266471   1.749   6.204   4.197  1.3526 -0.2078  0.8901
14994TIP3   OH266472   3.690   0.411  10.409  0.2003  0.2585 -0.0711
14994TIP3    H166473   3.750   0.370  10.346  1.5089  3.2163 -0.9170
14994TIP3    H266474   3.603   0.382  10.381  0.8558  0.3186 -2.3662
14995TIP3   OH266475   3.663   4.649   4.300 -0.1770 -0.4767 -0.0905
14995TIP3    H166476   3.581   4.673   4.344 -1.1524 -0.3780 -1.8761
14995TIP3    H266477   3.717   4.611   4.370 -0.3410  2.5993  1.8926
14996TIP3   OH266478   5.708   6.619  15.056  0.3702 -0.5055 -0.5473
14996TIP3    H166479   5.678   6.551  14.996 -1.2465 -0.6656  0.3888
14996TIP3    H266480   5.706   6.578  15.143 -1.9828  1.0604  0.2232
14997TIP3   OH266481   2.695   4.038   1.706  0.0628  0.1602 -0.2489
14997TIP3    H166482   2.698   4.021   1.612 -1.4273 -1.5546 -0.0344
14997TIP3    H266483   2.651   3.961   1.743  3.7144 -0.9325  2.3136
14998TIP3   OH266484   6.639   2.658  11.488  0.5759 -0.0761  0.2008
14998TIP3    H166485   6.687   2.699  11.417  1.5919 -0.5067  0.6171
14998TIP3    H266486   6.675   2.697  11.567 -2.1162  2.1097  0.4945
14999TIP3   OH266487   0.335   0.229  14.541  0.0999 -0.2305 -0.0855
14999TIP3    H166488   0.415   0.177  14.543  0.9423  0.9673  2.6666
14999TIP3    H266489   0.329   0.262  14.451  3.3810  0.6004 -0.0998
15000TIP3   OH266490   4.179   0.398   5.408  0.4953  0.4023 -0.0573
15000TIP3    H166491   4.128   0.474   5.436  0.1358  1.1912 -2.5396
15000TIP3    H266492   4.267   0.414   5.442 -0.0040  0.9937  1.0034
15001TIP3   OH266493   3.433   5.876   3.052  0.5572 -0.2133 -0.3671
15001TIP3    H166494   3.406   5.967   3.039  1.5112  0.0968 -0.2284
15001TIP3    H266495   3.491   5.858   2.978  0.7498 -0.5599 -0.1322
15002TIP3   OH266496   5.251   0.122  14.582  0.3066 -0.5544  0.3772
15002TIP3    H166497   5.195   0.106  14.506  2.3660  0.4067 -1.4597
15002TIP3    H266498   5.299   0.040  14.593 -1.4678 -1.4411  2.0632
15003TIP3   OH266499   6.691   0.241   0.201 -0.0544  0.0331  0.0890
15003TIP3    H166500   6.730   0.328   0.207 -1.0395  0.9631 -4.0596
15003TIP3    H266501   6.603   0.252   0.236  0.2245  0.3474  0.7080
15004TIP3   OH266502   1.171   3.626   4.961  0.5859 -0.1105 -0.3482
15004TIP3    H166503   1.250   3.665   4.923 -0.5927  2.6683 -0.1902
15004TIP3    H266504   1.100   3.653   4.902 -0.5538 -0.4980  0.8004
15005TIP3   OH266505   5.264   6.310  14.053 -0.8154 -0.1795 -0.1501
15005TIP3    H166506   5.293   6.356  14.132 -1.3250  0.0572 -0.0982
15005TIP3    H266507   5.300   6.360  13.981  3.2140 -2.6154 -0.1276
15006TIP3   OH266508   0.892   3.191   3.829 -0.4043 -0.1301  0.3837
15006TIP3    H166509   0.935   3.148   3.903  2.2106  0.9245 -0.4128
15006TIP3    H266510   0.857   3.272   3.866 -0.1259 -0.1527  0.6996
15007TIP3   OH266511   1.338   6.787  11.088  0.1067  0.2536 -0.2982
15007TIP3    H166512   1.271   6.842  11.130  0.7957  0.5721  0.4106
15007TIP3    H266513   1.289   6.711  11.057 -0.9504  1.4528 -1.7274
15008TIP3   OH266514   5.894   0.499  13.946  0.1049  0.4094 -0.6427
15008TIP3    H166515   5.809   0.506  13.904 -0.0733  0.6879 -0.2457
15008TIP3    H266516   5.940   0.430  13.898 -0.4044  0.1488 -0.7544
15009TIP3   OH266517   4.763   6.608   5.695  0.1244  0.1441  0.5053
15009TIP3    H166518   4.749   6.519   5.662  0.1993  0.3743 -0.1647
15009TIP3    H266519   4.678   6.636   5.728  0.2052 -0.3432  1.1466
15010TIP3   OH266520   2.223   4.678  13.460  0.6998 -0.2832 -0.3752
15010TIP3    H166521   2.251   4.708  13.546 -0.2313  0.4613 -0.3215
15010TIP3    H266522   2.299   4.694  13.403  1.3621 -0.9000  0.3140
15011TIP3   OH266523   1.387   2.129   4.605 -0.1927  0.1430 -0.0443
15011TIP3    H166524   1.426   2.215   4.589 -2.4417  1.3570  0.6103
15011TIP3    H266525   1.429   2.098   4.686  0.6694  0.5954 -0.3113
15012TIP3   OH266526   3.076   5.211   0.655  0.0217  0.2986  0.1306
15012TIP3    H166527   3.094   5.196   0.562 -1.8260  2.8778 -0.7551
15012TIP3    H266528   3.124   5.291   0.677 -1.2868  0.9542  0.7399
15013TIP3   OH266529   2.585   2.866   3.268  0.4346 -0.2755 -0.7248
15013TIP3    H166530   2.511   2.902   3.316 -0.6442 -1.5513 -1.3664
15013TIP3    H266531   2.600   2.927   3.196 -1.1156 -0.8562 -1.5766
15014TIP3   OH266532   5.910   3.160  16.671 -0.0611 -0.0497 -0.4219
15014TIP3    H166533   5.848   3.132  16.739  0.0241 -0.4282 -0.5021
15014TIP3    H266534   5.982   3.098  16.676 -0.7649 -1.0358 -1.8985
15015TIP3   OH266535   2.441   0.319   1.379 -0.0107  0.2962 -0.0018
15015TIP3    H166536   2.509   0.386   1.389  0.1525  0.2700 -0.8404
15015TIP3    H266537   2.476   0.243   1.425  0.5433  0.2743 -0.4442
15016TIP3   OH266538   0.360   2.080  16.135 -0.0641 -0.0385  0.3604
15016TIP3    H166539   0.456   2.081  16.130 -0.0279  0.2120  1.0164
15016TIP3    H266540   0.336   2.167  16.166 -0.3450 -0.8271  2.4962
15017TIP3   OH266541   5.992   5.798  15.489 -0.7151 -0.6688 -0.6663
15017TIP3    H166542   5.941   5.824  15.412 -2.7820 -0.0004  0.8196
15017TIP3    H266543   6.002   5.703  15.480 -0.8408 -0.5982 -1.7868
15018TIP3   OH266544   4.122   4.856  10.717 -0.2040 -0.2625 -0.6099
15018TIP3    H166545   4.207   4.895  10.735  0.6594 -2.5656  0.7281
15018TIP3    H266546   4.117   4.852  10.621  0.5329  1.1307 -0.7403
15019TIP3   OH266547   6.335   5.187   0.986  0.1747 -0.0343 -0.3279
15019TIP3    H166548   6.416   5.164   0.942  0.3991 -0.6871  0.3870
15019TIP3    H266549   6.267   5.138   0.939 -0.1082  1.8997 -2.0767
15020TIP3   OH266550   1.013   5.369  14.324  0.2025 -0.2818 -0.3702
15020TIP3    H166551   1.070   5.339  14.253  0.1740  0.8646 -0.8917
15020TIP3    H266552   0.963   5.441  14.287  0.7943  0.9211  1.0441
15021TIP3   OH266553   2.943   4.013  14.630 -0.5938  0.0061  0.0694
15021TIP3    H166554   2.916   3.938  14.683 -0.9746 -1.1364 -1.6650
15021TIP3    H266555   2.983   3.974  14.552 -1.3961  1.5965 -1.1901
15022TIP3   OH266556   5.418   5.279  15.690  0.5230  0.0167 -0.1005
15022TIP3    H166557   5.398   5.194  15.728 -3.0703  0.8523  0.2137
15022TIP3    H266558   5.446   5.332  15.765  0.4649 -0.2330  0.1002
15023TIP3   OH266559   2.169   6.159  12.858  0.1763 -0.1766 -0.5658
15023TIP3    H166560   2.218   6.145  12.939  1.8410 -0.6409 -1.5981
15023TIP3    H266561   2.082   6.123  12.875  0.7295 -0.9377  0.7696
15024TIP3   OH266562   0.734   6.268   0.885  0.6783  0.1679 -0.0753
15024TIP3    H166563   0.814   6.316   0.909  1.2535 -0.9619  0.3424
15024TIP3    H266564   0.739   6.187   0.935 -1.4690  0.6814  1.0826
15025TIP3   OH266565   3.563   3.792  15.716 -0.3905  0.1802 -0.1307
15025TIP3    H166566   3.500   3.777  15.787 -1.0538  0.1536 -0.7147
15025TIP3    H266567   3.639   3.831  15.760 -0.0247 -1.5549  0.8794
15026TIP3   OH266568   3.842   5.549   2.193  0.3452 -0.5429 -0.2977
15026TIP3    H166569   3.841   5.468   2.142  1.0272  0.2337 -1.5979
15026TIP3    H266570   3.900   5.607   2.144 -0.8670  1.0674  0.1138
15027TIP3   OH266571   3.265   3.706  13.598  0.3828 -0.4001  0.3824
15027TIP3    H166572   3.252   3.783  13.543  1.8559 -0.0140  0.5347
15027TIP3    H266573   3.182   3.696  13.645 -0.1067  0.6116 -0.2291
15028TIP3   OH266574   5.943   4.691  11.286 -0.3311  0.0837 -0.2051
15028TIP3    H166575   5.865   4.638  11.268 -0.8589  0.9077 -0.4065
15028TIP3    H266576   5.920   4.779  11.254  0.0527  0.7331  1.2040
15029TIP3   OH266577   0.519   1.713  14.325 -0.8066 -0.7487  0.0340
15029TIP3    H166578   0.538   1.719  14.419  1.4111 -0.6179 -0.3644
15029TIP3    H266579   0.577   1.778  14.285 -2.3175 -0.2049 -1.3858
15030TIP3   OH266580   6.595   0.079  17.014  0.2582 -0.6401 -0.2936
15030TIP3    H166581   6.639   0.110  17.092 -4.0703  2.8836  1.1626
15030TIP3    H266582   6.548   0.000  17.042 -0.3227 -0.0719  0.3513
15031TIP3   OH266583   1.557   6.717   2.892 -1.1054  0.0385  0.5056
15031TIP3    H166584   1.647   6.683   2.894 -0.4062  1.7172 -0.2811
15031TIP3    H266585   1.560   6.795   2.947 -1.4849  1.3737 -1.2790
15032TIP3   OH266586   2.092   0.129   1.666  0.6506  0.6480  0.1434
15032TIP3    H166587   2.098   0.164   1.576  1.2484 -0.1735 -0.1441
15032TIP3    H266588   2.120   0.202   1.721  1.3849  0.7987 -0.4140
15033TIP3   OH266589   3.517   0.012   4.117 -0.4358 -0.0516  0.1654
15033TIP3    H166590   3.565  -0.026   4.043  0.5497 -0.7326  1.1142
15033TIP3    H266591   3.580   0.010   4.189 -1.1902  1.1215  0.8821
15034TIP3   OH266592   6.498   4.750  13.538  0.0991  0.9087  0.1658
15034TIP3    H166593   6.594   4.744  13.533  0.1829  2.1509  0.0524
15034TIP3    H266594   6.477   4.710  13.622  0.8679  2.0231  0.9148
15035TIP3   OH266595   1.329   4.106  14.760 -0.3162 -0.4144  0.6550
15035TIP3    H166596   1.345   4.025  14.712  0.2425  0.3705 -0.5247
15035TIP3    H266597   1.414   4.131  14.796 -0.5986 -0.6388  1.5068
15036TIP3   OH266598   3.626   3.174  13.032  0.1712  0.4077 -0.2736
15036TIP3    H166599   3.552   3.189  12.973 -0.5052 -1.6055 -0.0198
15036TIP3    H266600   3.674   3.102  12.992  1.6356  1.2386 -0.0698
15037TIP3   OH266601   3.121   0.892   0.190 -0.0923 -0.4829  0.4120
15037TIP3    H166602   3.086   0.921   0.106  2.5727 -0.4720 -0.7969
15037TIP3    H266603   3.044   0.867   0.241 -1.8048 -0.5168 -2.0297
15038TIP3   OH266604   0.043   5.026   4.678 -0.0366  0.0614 -0.2857
15038TIP3    H166605   0.105   5.098   4.691  0.8667 -0.6440 -0.5180
15038TIP3    H266606   0.038   5.015   4.583  0.7009 -0.8852 -0.2335
15039TIP3   OH266607   1.184   3.273   1.695  0.1710  0.3602  0.8589
15039TIP3    H166608   1.212   3.233   1.778  1.3185 -1.2722 -0.2521
15039TIP3    H266609   1.093   3.247   1.686  0.2360 -0.0293  1.2907
15040TIP3   OH266610   2.095   0.385  13.034 -0.1143 -0.1225  0.6427
15040TIP3    H166611   2.021   0.422  13.083 -0.5538 -0.1608  0.0249
15040TIP3    H266612   2.171   0.433  13.065 -0.5075  0.4317  0.7582
15041TIP3   OH266613   4.328   6.291  11.800  0.5350  0.2568  0.4398
15041TIP3    H166614   4.241   6.317  11.833  0.3591 -0.0443  0.2231
15041TIP3    H266615   4.352   6.217  11.856  0.1663 -0.3556 -0.1989
15042TIP3   OH266616   5.308   1.151  15.770 -0.0569  0.3594  0.0070
15042TIP3    H166617   5.239   1.088  15.752 -0.9566  0.5839  2.3610
15042TIP3    H266618   5.375   1.101  15.817  0.9126  0.3932 -1.2837
15043TIP3   OH266619   0.220   1.582   5.660 -0.2551 -0.4012  0.3152
15043TIP3    H166620   0.205   1.517   5.728  2.3742 -0.8505  0.5789
15043TIP3    H266621   0.315   1.591   5.656 -0.3743  0.5175 -2.4831
15044TIP3   OH266622   0.742   3.701  13.183 -0.5477 -0.0230 -0.0701
15044TIP3    H166623   0.754   3.699  13.088  1.7309  0.1496  0.1607
15044TIP3    H266624   0.741   3.794  13.205  4.1491  0.1580  0.4845
15045TIP3   OH266625   6.346   1.389   1.690 -0.0051  0.1531 -0.4173
15045TIP3    H166626   6.287   1.414   1.761  0.5353  0.2291  0.0105
15045TIP3    H266627   6.398   1.317   1.726  0.9251  0.8185 -0.4106
15046TIP3   OH266628   2.044   1.129   3.342 -0.5902 -0.2374 -0.1580
15046TIP3    H166629   2.115   1.179   3.382 -0.0038 -1.8944  1.0147
15046TIP3    H266630   2.071   1.117   3.251 -1.1802  2.2632 -0.7144
15047TIP3   OH266631   6.505   6.651  14.527 -1.5559 -0.0379 -1.1448
15047TIP3    H166632   6.548   6.595  14.591 -2.2044  2.1752  1.3810
15047TIP3    H266633   6.469   6.590  14.462 -1.5652 -2.4575  1.0031
15048TIP3   OH266634   1.992   0.982  12.424 -0.2346 -0.0767  0.0127
15048TIP3    H166635   2.007   0.902  12.374 -2.5946  1.0607 -2.7998
15048TIP3    H266636   2.080   1.011  12.450  0.9819 -1.7903 -1.8893
15049TIP3   OH266637   1.901   4.586   5.809 -0.3281  0.3308  0.4936
15049TIP3    H166638   1.853   4.583   5.726  0.6656  1.0125 -0.1214
15049TIP3    H266639   1.987   4.547   5.788  1.0639  3.2257  0.3949
15050TIP3   OH266640   2.831   6.432  15.968 -0.6568 -0.6656  0.5262
15050TIP3    H166641   2.796   6.343  15.965 -1.8616 -0.2045 -2.6434
15050TIP3    H266642   2.917   6.426  15.927 -0.5483 -0.4389  0.7157
15051TIP3   OH266643   1.677   1.486  13.332  0.2317  0.1969 -0.0087
15051TIP3    H166644   1.698   1.555  13.269  3.4091 -0.2743  0.3670
15051TIP3    H266645   1.650   1.411  13.278  1.2015  0.3359 -0.7074
15052TIP3   OH266646   5.489   5.722   5.131 -0.3922 -0.1712  0.1740
15052TIP3    H166647   5.564   5.737   5.189 -1.3636  0.3154  1.3443
15052TIP3    H266648   5.445   5.646   5.168 -1.3574  0.4992  0.4491
15053TIP3   OH266649   5.811   4.227   5.688 -0.2259  0.0700  0.1859
15053TIP3    H166650   5.836   4.135   5.695 -3.7296 -1.0028  0.6778
15053TIP3    H266651   5.854   4.257   5.608  2.1220 -1.5125  0.7300
15054TIP3   OH266652   2.723   0.283   4.855  0.7601 -0.4734  0.0076
15054TIP3    H166653   2.807   0.313   4.890  0.3860  0.9429 -0.2451
15054TIP3    H266654   2.730   0.297   4.761 -0.0064  0.3862  0.0570
15055TIP3   OH266655   4.935   5.841   2.143 -0.2695  0.2048 -0.4191
15055TIP3    H166656   4.901   5.861   2.056  1.4480  0.6839 -1.0285
15055TIP3    H266657   5.020   5.800   2.127  0.8207  1.7540  1.0242
15056TIP3   OH266658   3.006   2.001  13.206 -0.5935  0.1938 -0.1463
15056TIP3    H166659   3.047   1.921  13.173 -0.5600  0.7780 -1.6196
15056TIP3    H266660   2.955   1.973  13.282 -0.5311 -1.2067 -0.5948
15057TIP3   OH266661   2.174   3.818   3.689 -0.0107  0.2095  0.2485
15057TIP3    H166662   2.152   3.889   3.628  1.4970  1.2313  0.8537
15057TIP3    H266663   2.151   3.738   3.641 -0.5559  1.0426 -0.9442
15058TIP3   OH266664   2.448   4.615  14.724 -0.0275 -0.2871 -0.5213
15058TIP3    H166665   2.425   4.684  14.662  4.2310  2.9299  0.9506
15058TIP3    H266666   2.491   4.548  14.671 -1.6854 -0.5181 -1.6433
15059TIP3   OH266667   2.143   3.328   2.058 -0.1877  0.1232 -0.2796
15059TIP3    H166668   2.220   3.324   2.002 -0.8780 -0.0474 -1.2462
15059TIP3    H266669   2.136   3.421   2.081 -0.7520  0.4838 -1.7517
15060TIP3   OH266670   6.490   6.295   1.630  0.1369 -0.1102  0.2042
15060TIP3    H166671   6.435   6.290   1.551  0.8405 -0.4210 -0.2752
15060TIP3    H266672   6.502   6.388   1.645 -0.5725 -0.0361  0.3510
15061TIP3   OH266673   5.183   0.880  11.488 -0.6109  0.0322  0.6786
15061TIP3    H166674   5.118   0.813  11.509 -0.3676 -0.5971 -0.4878
15061TIP3    H266675   5.167   0.949  11.552 -1.4197 -0.7683  1.3804
15062TIP3   OH266676   1.499   4.305  13.358 -0.3779 -0.3868 -0.3484
15062TIP3    H166677   1.434   4.243  13.388  0.4418 -1.3936 -0.6085
15062TIP3    H266678   1.459   4.348  13.283 -2.1310  1.5809  1.5864
15063TIP3   OH266679   2.428   4.881   3.962  0.0845 -0.1011  0.5906
15063TIP3    H166680   2.411   4.788   3.945  1.3571 -0.1922 -0.3816
15063TIP3    H266681   2.465   4.884   4.050 -0.4665 -0.4445  0.8363
15064TIP3   OH266682   4.417   1.671  13.547  0.0767 -0.2310 -0.2562
15064TIP3    H166683   4.348   1.667  13.613 -1.1686  1.5020 -1.3654
15064TIP3    H266684   4.492   1.711  13.593  0.4975 -2.3043  1.0062
15065TIP3   OH266685   3.777   4.820  10.981  0.1075  1.4199 -0.5948
15065TIP3    H166686   3.725   4.781  11.052 -0.1527  1.2610 -0.8707
15065TIP3    H266687   3.725   4.804  10.902  1.3685 -0.2906 -1.1449
15066TIP3   OH266688   6.516   5.709   2.033 -0.5523  0.0194  0.1245
15066TIP3    H166689   6.462   5.718   1.954  0.4725 -1.3687 -0.7906
15066TIP3    H266690   6.472   5.641   2.084 -0.3326 -0.2582 -0.0510
15067TIP3   OH266691   0.720   3.536   0.700 -0.0056  0.3319  0.4388
15067TIP3    H166692   0.746   3.585   0.622  2.4618 -0.2650  0.8093
15067TIP3    H266693   0.729   3.444   0.674 -2.2669  0.0491  0.4892
15068TIP3   OH266694   6.203   3.436  16.549 -0.0109  0.1099  0.1500
15068TIP3    H166695   6.283   3.484  16.572  0.7589 -1.5030  0.9829
15068TIP3    H266696   6.205   3.432  16.454  0.8793  0.1318  0.1530
15069TIP3   OH266697   0.218   0.981  10.972  0.6803 -0.3184  0.7101
15069TIP3    H166698   0.158   0.917  10.935  0.0761  2.1569 -3.1907
15069TIP3    H266699   0.296   0.931  10.993 -0.7441 -2.7478  0.6237
15070TIP3   OH266700   1.378   5.885   3.049  0.2663  0.0093 -0.5940
15070TIP3    H166701   1.386   5.948   2.977 -0.4215 -0.1669 -0.8296
15070TIP3    H266702   1.401   5.936   3.127  1.4359  0.0987 -0.9632
15071TIP3   OH266703   5.808   5.405  11.952  0.1478 -0.5790 -0.5091
15071TIP3    H166704   5.818   5.452  11.869 -1.3119 -0.0248 -0.3904
15071TIP3    H266705   5.715   5.384  11.958  0.4052 -1.5519  0.4962
15072TIP3   OH266706   4.088   5.022   1.755  0.8229 -0.5210 -0.3655
15072TIP3    H166707   4.007   5.057   1.718 -0.0362 -2.3425 -0.2697
15072TIP3    H266708   4.153   5.034   1.685 -0.1281 -1.3633 -1.4260
15073TIP3   OH266709   3.161   4.971  10.603 -0.5201  0.6768 -0.8060
15073TIP3    H166710   3.088   4.933  10.553 -0.3913  0.0908 -0.5445
15073TIP3    H266711   3.236   4.965  10.544 -0.4838  0.4638 -0.7370
15074TIP3   OH266712   5.598   1.924  15.644 -0.5444  0.3252 -0.5060
15074TIP3    H166713   5.623   1.856  15.583  2.7678  2.3065 -1.5644
15074TIP3    H266714   5.606   1.883  15.730  0.9657 -0.7619 -1.1294
15075TIP3   OH266715   2.164   1.371   1.268 -0.5219  0.0168  0.0966
15075TIP3    H166716   2.097   1.406   1.210 -0.4465  2.8477  1.5499
15075TIP3    H266717   2.121   1.365   1.354  0.5417  0.0968  0.6524
15076TIP3   OH266718   0.630   2.726   4.933 -1.0236  0.2649  0.1409
15076TIP3    H166719   0.699   2.673   4.973  1.0939  2.2398 -0.6408
15076TIP3    H266720   0.555   2.667   4.924  0.3990 -1.8499  1.4928
15077TIP3   OH266721   2.781   0.918  15.783 -0.4736  0.1677 -0.0811
15077TIP3    H166722   2.754   1.002  15.820 -0.5883  0.6216 -1.1556
15077TIP3    H266723   2.834   0.878  15.852 -0.5559  1.0435  0.5146
15078TIP3   OH266724   5.639   3.676   4.795  0.0759  0.4448 -0.4815
15078TIP3    H166725   5.710   3.638   4.846 -1.1018  0.4314  1.2282
15078TIP3    H266726   5.580   3.603   4.777 -1.0400  0.9829  0.8171
15079TIP3   OH266727   5.712   4.709  15.492  0.1838 -0.6774 -0.0132
15079TIP3    H166728   5.743   4.691  15.403  0.6135 -1.0673  0.2099
15079TIP3    H266729   5.637   4.766  15.480  1.6677  1.2567 -0.5411
15080TIP3   OH266730   2.973   1.268   4.876  0.2491 -0.2970  0.0802
15080TIP3    H166731   3.055   1.247   4.830 -0.9341 -1.5853 -1.5780
15080TIP3    H266732   2.916   1.305   4.809 -1.1200 -1.0763  0.7573
15081TIP3   OH266733   5.191   5.429   5.433 -0.2955 -0.0057  0.6704
15081TIP3    H166734   5.117   5.488   5.418 -1.2276 -1.3563 -0.3025
15081TIP3    H266735   5.184   5.405   5.525 -0.7127  0.3301  0.7295
15082TIP3   OH266736   6.449   1.759  11.534 -0.4105  0.1665 -0.0333
15082TIP3    H166737   6.367   1.798  11.505  0.1417 -0.4810 -2.6847
15082TIP3    H266738   6.517   1.819  11.502  0.2251 -0.2973  0.4288
15083TIP3   OH266739   1.495   4.878   1.168  0.0927  0.5666  0.1927
15083TIP3    H166740   1.559   4.946   1.148  0.2258  0.3007 -0.2980
15083TIP3    H266741   1.546   4.798   1.177 -0.2041  0.2724 -0.6220
15084TIP3   OH266742   4.645   6.354  16.947 -0.3419 -0.1610  0.0391
15084TIP3    H166743   4.630   6.427  17.006 -0.2172 -0.6000  0.6285
15084TIP3    H266744   4.720   6.381  16.894 -2.0031  1.2894 -1.6919
15085TIP3   OH266745   6.092   5.836   4.265  0.0872  0.2971  0.2028
15085TIP3    H166746   6.165   5.868   4.211 -0.2605 -0.0381 -0.4774
15085TIP3    H266747   6.069   5.911   4.320  2.4488 -0.2761  2.1351
15086TIP3   OH266748   4.944   3.163   4.866 -0.5247  0.2242  1.0162
15086TIP3    H166749   5.009   3.133   4.803  0.5255 -0.6520  2.4591
15086TIP3    H266750   4.917   3.084   4.912 -1.7365  0.7554  1.2487
15087TIP3   OH266751   4.819   5.376   2.047  0.1762 -0.3802  0.0778
15087TIP3    H166752   4.759   5.301   2.037 -0.0352 -0.0290 -1.5423
15087TIP3    H266753   4.786   5.441   1.986  0.7913  0.7834  0.9506
15088TIP3   OH266754   0.268   1.692  14.189  0.1858 -0.4830  0.3796
15088TIP3    H166755   0.322   1.715  14.265 -0.0439 -0.5969  0.5790
15088TIP3    H266756   0.323   1.713  14.113  0.5398 -0.6698  0.5817
15089TIP3   OH266757   0.545   2.828  12.476  0.5304 -1.3730 -0.1634
15089TIP3    H166758   0.565   2.904  12.421  1.7577 -1.0823  0.6368
15089TIP3    H266759   0.500   2.767  12.418  1.1448 -0.7723 -1.2951
15090TIP3   OH266760   3.983   0.287  15.494  0.0313  0.7194  0.0813
15090TIP3    H166761   3.991   0.342  15.572 -2.1665  2.9591 -1.1281
15090TIP3    H266762   4.069   0.247  15.484  0.9372  1.8517  2.5575
15091TIP3   OH266763   5.863   1.611   5.549 -0.1606  0.0069 -0.4094
15091TIP3    H166764   5.885   1.632   5.459  1.4356 -0.2154 -0.1166
15091TIP3    H266765   5.914   1.532   5.568  1.4794  1.4108  1.3945
15092TIP3   OH266766   2.552   3.358   5.278  0.0108 -0.3718  0.4254
15092TIP3    H166767   2.535   3.441   5.324 -0.1409  0.4867 -1.0981
15092TIP3    H266768   2.596   3.385   5.197 -0.6979 -1.7125 -0.4378
15093TIP3   OH266769   4.388   3.176  15.101  0.6696 -0.0148  0.0159
15093TIP3    H166770   4.316   3.137  15.149  0.6074 -0.9919 -0.8339
15093TIP3    H266771   4.444   3.102  15.077  3.0418  0.8801  2.3412
15094TIP3   OH266772   6.630   6.000  16.330 -0.4577 -0.0228 -0.1713
15094TIP3    H166773   6.587   6.020  16.248  0.6632 -2.3633 -1.4185
15094TIP3    H266774   6.599   5.912  16.354 -0.2157  0.3140  1.5370
15095TIP3   OH266775   0.852   3.210   1.349  0.2945  0.1478 -0.3841
15095TIP3    H166776   0.868   3.132   1.297 -2.9045 -0.2247 -0.9886
15095TIP3    H266777   0.757   3.222   1.347  0.3560  2.1888  2.4082
15096TIP3   OH266778   5.949   4.759   5.711  0.6505 -0.1552  0.3475
15096TIP3    H166779   5.853   4.757   5.708  0.4870  2.5247  1.3266
15096TIP3    H266780   5.970   4.841   5.756  3.4413 -0.0141 -1.0130
15097TIP3   OH266781   1.401   5.255   6.225  0.1211 -0.0909 -0.0033
15097TIP3    H166782   1.313   5.224   6.244  0.0690  0.2308  0.2905
15097TIP3    H266783   1.398   5.349   6.242  0.6995 -0.1850  0.7178
15098TIP3   OH266784   0.118   6.562   4.592  0.2698  0.2557 -0.6948
15098TIP3    H166785   0.125   6.471   4.563 -2.0682  0.2635 -1.5530
15098TIP3    H266786   0.027   6.585   4.573  0.6220  2.5607  0.1702
15099TIP3   OH266787   0.821   5.113   3.837  0.0496  0.2176  0.2074
15099TIP3    H166788   0.821   5.017   3.842  1.0335  0.2517  1.2504
15099TIP3    H266789   0.734   5.136   3.804 -0.4854 -0.9988  0.7259
15100TIP3   OH266790   2.546   6.569  15.653 -0.3410 -0.3129  0.5800
15100TIP3    H166791   2.472   6.522  15.614 -1.5713  2.9096 -1.3300
15100TIP3    H266792   2.608   6.580  15.581  0.1601  0.4896  1.1240
15101TIP3   OH266793   6.121   3.588  15.731 -0.0289 -0.2806 -0.1204
15101TIP3    H166794   6.146   3.638  15.654  1.6604  0.4598  0.8532
15101TIP3    H266795   6.200   3.541  15.756 -0.0632  0.6726  1.9967
15102TIP3   OH266796   5.873   6.404   2.179  0.2344  0.1278  0.5563
15102TIP3    H166797   5.870   6.360   2.264 -1.0755 -0.4882  0.2078
15102TIP3    H266798   5.967   6.417   2.162  0.5166  0.3737  2.1340
15103TIP3   OH266799   1.677   5.090  14.403 -0.0770  0.2191  0.2215
15103TIP3    H166800   1.637   5.015  14.360 -0.5593  1.2443 -1.1930
15103TIP3    H266801   1.652   5.165  14.349  1.9036  1.1763  0.5536
15104TIP3   OH266802   0.281   2.130   2.085 -0.1991 -0.2515 -0.0305
15104TIP3    H166803   0.336   2.207   2.070 -0.9278  0.4709  0.9381
15104TIP3    H266804   0.301   2.103   2.175 -0.5125 -0.7401 -0.1036
15105TIP3   OH266805   0.723   2.108  17.008 -0.1568  0.1112  0.0121
15105TIP3    H166806   0.677   2.192  17.012  0.4628  0.5216 -1.0306
15105TIP3    H266807   0.813   2.128  17.033 -0.1003 -0.3284  0.1698
15106TIP3   OH266808   4.944   6.060  14.260 -0.0116 -0.0113  0.5190
15106TIP3    H166809   5.013   6.036  14.198  1.2922  1.0847  1.4827
15106TIP3    H266810   4.991   6.081  14.341 -1.4667  1.0169  1.1357
15107TIP3   OH266811   6.221   4.576   2.107 -0.6427 -0.5254  0.0371
15107TIP3    H166812   6.235   4.612   2.020  0.8082 -0.9951  0.0492
15107TIP3    H266813   6.194   4.651   2.160  0.7396  0.2536 -0.3098
15108TIP3   OH266814   2.578   0.674  14.064  0.1533  0.2482  0.2271
15108TIP3    H166815   2.608   0.758  14.098 -0.7686  1.5603 -1.9632
15108TIP3    H266816   2.493   0.693  14.024 -1.8610 -2.4808  2.7374
15109TIP3   OH266817   4.505   0.273   5.797 -0.5405 -0.0018  0.2245
15109TIP3    H166818   4.598   0.271   5.818 -0.4618  0.7421 -0.0292
15109TIP3    H266819   4.473   0.355   5.834 -0.6981  0.6436 -1.2400
15110TIP3   OH266820   6.488   5.880   2.267  0.0769 -0.1696  0.6221
15110TIP3    H166821   6.508   5.972   2.254  1.7413 -0.5739  0.1541
15110TIP3    H266822   6.530   5.835   2.193 -1.2438 -1.2543  0.4789
15111TIP3   OH266823   1.783   2.352  15.742  0.5909 -0.0259  0.0204
15111TIP3    H166824   1.874   2.323  15.730  1.2734  1.8832  0.0871
15111TIP3    H266825   1.731   2.295  15.686  1.8921 -0.8904 -0.3465
15112TIP3   OH266826   6.303   1.448  12.205  0.2365  0.3189  0.4094
15112TIP3    H166827   6.279   1.492  12.123 -0.0119  0.7836  0.7249
15112TIP3    H266828   6.262   1.362  12.199 -0.6141  0.7131  0.4761
15113TIP3   OH266829   2.606   4.460   1.530  0.1828 -0.2115 -0.2159
15113TIP3    H166830   2.561   4.383   1.496  1.2177 -0.7577 -0.3838
15113TIP3    H266831   2.666   4.486   1.460  0.6271  0.0808  0.2661
15114TIP3   OH266832   0.022   4.875  14.580  0.3899  0.1031  0.0166
15114TIP3    H166833   0.100   4.930  14.582  0.5773 -0.1659  1.1391
15114TIP3    H266834   0.042   4.802  14.640 -0.7864  0.1471  0.4992
15115TIP3   OH266835   5.870   0.116   1.731 -0.3023  0.9782  0.1214
15115TIP3    H166836   5.943   0.152   1.681  1.5176 -1.6369  0.6978
15115TIP3    H266837   5.904   0.035   1.768 -3.8089 -0.9545 -0.4322
15116TIP3   OH266838   1.454   0.212   2.802  0.1103  0.3487 -0.0002
15116TIP3    H166839   1.361   0.199   2.817  0.1165 -0.2379 -0.4854
15116TIP3    H266840   1.479   0.278   2.867 -0.5043  0.0435  0.5573
15117TIP3   OH266841   4.879   4.311   4.765  0.1273  0.1651  0.3498
15117TIP3    H166842   4.947   4.349   4.821 -1.6475  0.7190  2.2497
15117TIP3    H266843   4.813   4.278   4.826 -1.3829 -0.2567 -1.4117
15118TIP3   OH266844   5.668   6.579  12.546  0.0324  0.1684 -0.3198
15118TIP3    H166845   5.623   6.611  12.625 -1.6668 -1.6248 -0.4867
15118TIP3    H266846   5.645   6.643  12.478  0.2732  0.9158  0.2924
15119TIP3   OH266847   1.858   3.397   2.449  0.3637 -0.3189 -0.0402
15119TIP3    H166848   1.896   3.407   2.536 -1.3561 -0.7922  0.8141
15119TIP3    H266849   1.917   3.337   2.403  0.6013 -1.1097  1.2595
15120TIP3   OH266850   5.268   0.315   2.587  0.1044 -0.3445  0.4991
15120TIP3    H166851   5.336   0.365   2.541  0.0031 -1.2985 -0.7573
15120TIP3    H266852   5.195   0.310   2.525  0.2057 -2.2273  0.4576
15121TIP3   OH266853   3.569   4.346  13.213 -0.2478 -0.7959 -0.3561
15121TIP3    H166854   3.536   4.326  13.300  0.2145 -0.9733 -0.2189
15121TIP3    H266855   3.539   4.435  13.196 -0.2102 -0.7057  0.0465
15122TIP3   OH266856   3.799   3.584  12.970 -0.8448  0.0101  0.3017
15122TIP3    H166857   3.788   3.584  12.875 -0.1984 -0.0251  0.2247
15122TIP3    H266858   3.793   3.677  12.995  1.5118  0.3394 -0.0920
15123TIP3   OH266859   0.486   3.412   0.443 -0.1504 -0.0866 -0.1683
15123TIP3    H166860   0.571   3.369   0.442 -1.2249 -2.4917  1.8365
15123TIP3    H266861   0.444   3.384   0.361  0.0968 -0.8910 -0.0298
15124TIP3   OH266862   4.605   2.211   4.443  0.5191 -0.0387 -0.2352
15124TIP3    H166863   4.647   2.203   4.529 -0.9448 -1.1430  0.4138
15124TIP3    H266864   4.517   2.242   4.462  0.0337 -0.7131 -1.2880
15125TIP3   OH266865   0.537   0.676  15.419  0.4549 -0.2416  0.4543
15125TIP3    H166866   0.554   0.599  15.473 -0.4101 -2.8227 -2.6859
15125TIP3    H266867   0.616   0.730  15.429  1.2630 -1.6702  2.4283
15126TIP3   OH266868   1.453   3.924  14.141  0.1638 -0.2560 -0.2103
15126TIP3    H166869   1.436   4.006  14.188  0.4173 -0.9190  1.0672
15126TIP3    H266870   1.547   3.927  14.122  0.6687 -1.2163  1.8251
15127TIP3   OH266871   4.511   5.748   2.144 -0.1771 -0.6950  0.0471
15127TIP3    H166872   4.590   5.717   2.099  0.1419  0.4951 -0.2585
15127TIP3    H266873   4.439   5.717   2.089  0.1897  0.3314 -1.0633
15128TIP3   OH266874   1.080   6.267   3.417  0.1252 -0.4702 -0.6322
15128TIP3    H166875   1.080   6.173   3.398 -1.2680 -0.4173 -1.0236
15128TIP3    H266876   1.131   6.276   3.497 -1.4683 -1.8438  0.6057
15129TIP3   OH266877   3.033   5.701   0.826  0.1253 -0.4338 -0.3815
15129TIP3    H166878   2.976   5.627   0.848  1.6834 -1.2600  1.2428
15129TIP3    H266879   3.056   5.739   0.911  3.7819 -1.6058 -0.6704
15130TIP3   OH266880   6.444   3.070  12.565  0.6898  0.3922  0.0038
15130TIP3    H166881   6.444   2.982  12.526  0.3776 -0.1540  1.1745
15130TIP3    H266882   6.514   3.116  12.520  1.4991 -0.7730  0.0181
15131TIP3   OH266883   0.458   5.438  12.230 -0.0374 -0.5444 -0.2716
15131TIP3    H166884   0.408   5.433  12.149 -2.2692 -0.8606  1.0482
15131TIP3    H266885   0.411   5.501  12.284  2.7846  1.5783 -0.0512
15132TIP3   OH266886   4.424   5.369  11.062  0.2318  0.0504 -0.3739
15132TIP3    H166887   4.358   5.339  10.999 -0.3653 -0.6920  0.5727
15132TIP3    H266888   4.504   5.321  11.038 -0.2460 -0.9676 -0.0019
15133TIP3   OH266889   1.655   1.631   5.304 -0.0627 -0.7773  0.1801
15133TIP3    H166890   1.570   1.587   5.300 -0.7810  0.4921  0.7365
15133TIP3    H266891   1.699   1.592   5.380 -1.4418  0.6742  1.8114
15134TIP3   OH266892   2.948   5.448  14.522 -0.0118  0.6405 -0.2356
15134TIP3    H166893   2.855   5.434  14.506 -0.0411  1.8605 -1.2862
15134TIP3    H266894   2.992   5.405  14.448  0.4036 -1.3920  1.1031
15135TIP3   OH266895   2.519   6.208  13.484 -0.3488 -0.0367  0.1292
15135TIP3    H166896   2.489   6.118  13.475  1.9039 -0.9501  1.1723
15135TIP3    H266897   2.485   6.237  13.569 -1.4518  0.2928 -0.4052
15136TIP3   OH266898   1.438   0.604  12.771 -0.2664 -0.1338  0.2014
15136TIP3    H166899   1.498   0.530  12.766  0.3984  0.1789  2.4628
15136TIP3    H266900   1.432   0.636  12.681 -0.0486 -2.4801 -0.7244
15137TIP3   OH266901   6.819   0.385   5.566 -0.2406 -0.5675 -0.2303
15137TIP3    H166902   6.867   0.339   5.635 -2.7916 -0.9108  1.4255
15137TIP3    H266903   6.833   0.332   5.488  3.1713  0.1236 -0.2710
15138TIP3   OH266904   5.224   4.566   6.054 -0.1564  0.2148 -0.2162
15138TIP3    H166905   5.287   4.632   6.028 -0.7534  0.4995 -0.9769
15138TIP3    H266906   5.218   4.507   5.980 -0.0788 -0.3507  0.2222
15139TIP3   OH266907   1.643   2.119  13.792 -0.3382  0.3761  0.5482
15139TIP3    H166908   1.707   2.054  13.762 -0.8760  0.2594 -0.3863
15139TIP3    H266909   1.672   2.142  13.880  1.1949  0.5806  0.0218
15140TIP3   OH266910   4.952   4.647  11.709  0.1631 -0.8601  0.0984
15140TIP3    H166911   4.942   4.575  11.647 -0.3478  1.4207 -2.6544
15140TIP3    H266912   4.868   4.693  11.706  1.1272  0.9705  0.2753
15141TIP3   OH266913   0.730   1.933   1.929  0.2038 -0.1076 -0.0759
15141TIP3    H166914   0.713   1.886   1.848 -0.2615  2.1783 -1.4030
15141TIP3    H266915   0.793   2.001   1.905 -0.4613  1.0482  1.2941
15142TIP3   OH266916   4.264   4.682  15.677 -0.1740  0.2603  0.5889
15142TIP3    H166917   4.196   4.622  15.647  0.3338 -0.4042  0.7281
15142TIP3    H266918   4.270   4.749  15.609 -0.9286  0.2968  0.5567
15143TIP3   OH266919   2.065   3.856   1.614  0.0717 -0.7732 -0.1424
15143TIP3    H166920   2.139   3.806   1.581 -0.1295 -0.8288 -0.5194
15143TIP3    H266921   2.101   3.943   1.633  0.0953 -0.5997 -0.9603
15144TIP3   OH266922   0.985   1.274   5.379  0.4428 -0.1113 -0.1387
15144TIP3    H166923   0.947   1.281   5.291  2.5684 -2.4399 -1.3842
15144TIP3    H266924   0.921   1.224   5.429 -1.3114  2.1750  0.0978
15145TIP3   OH266925   2.861   4.720  11.283 -0.4468 -0.2871  0.7475
15145TIP3    H166926   2.857   4.792  11.345 -4.1308  0.7365 -0.3990
15145TIP3    H266927   2.838   4.642  11.335  2.1141 -0.5050  1.6850
15146TIP3   OH266928   4.467   6.804  11.508 -0.0316 -0.7125 -0.5080
15146TIP3    H166929   4.460   6.893  11.474  2.6353  0.7148  2.1423
15146TIP3    H266930   4.493   6.816  11.600  2.6325 -4.1761 -0.5879
15147TIP3   OH266931   4.796   2.166  11.829 -0.1718 -0.2649  0.1931
15147TIP3    H166932   4.799   2.116  11.910  0.2352 -1.1302 -0.3386
15147TIP3    H266933   4.759   2.250  11.854 -0.2114 -0.5790  1.2412
15148TIP3   OH266934   1.281   2.504   4.700  0.2530  0.1977  0.5469
15148TIP3    H166935   1.245   2.477   4.616 -1.7836  1.1463  1.0525
15148TIP3    H266936   1.345   2.572   4.678 -0.1790  0.3568 -0.2486
15149TIP3   OH266937   4.236   0.858   4.799  0.1801 -0.2604 -0.3347
15149TIP3    H166938   4.140   0.853   4.800  0.0990  1.0390  0.4131
15149TIP3    H266939   4.264   0.769   4.824 -0.8800 -0.1375  1.5532
15150TIP3   OH266940   2.775   4.579  12.643  0.6609 -0.1949 -0.5426
15150TIP3    H166941   2.835   4.601  12.714  0.3753  0.2045 -0.4197
15150TIP3    H266942   2.776   4.483  12.639 -0.7286 -0.3586  1.2604
15151TIP3   OH266943   3.570   3.034   5.777  0.2653 -0.2984  0.2881
15151TIP3    H166944   3.563   3.050   5.871  2.1080  1.4954  0.1808
15151TIP3    H266945   3.504   3.091   5.737  1.2570  0.9626  0.3872
15152TIP3   OH266946   1.515   0.684   3.612 -0.5373  0.1113 -0.3420
15152TIP3    H166947   1.590   0.717   3.563 -0.7491 -0.4219 -1.0428
15152TIP3    H266948   1.518   0.730   3.696  1.4394 -1.0171  0.2572
15153TIP3   OH266949   4.835   6.283  14.364  0.2321 -0.1133  0.0196
15153TIP3    H166950   4.905   6.348  14.367  0.0068  0.1552 -0.3465
15153TIP3    H266951   4.877   6.203  14.332  0.5311 -0.1815  0.5640
15154TIP3   OH266952   2.293   3.449   4.404  0.5275  0.0388 -0.4511
15154TIP3    H166953   2.374   3.399   4.395 -0.0239 -0.8387 -0.6801
15154TIP3    H266954   2.282   3.460   4.499  0.1331 -1.1787 -0.3357
15155TIP3   OH266955   6.670   2.605  12.221 -0.3668 -0.0535  1.0516
15155TIP3    H166956   6.706   2.689  12.250 -0.3470 -0.2583  1.6322
15155TIP3    H266957   6.591   2.628  12.172  0.7839  0.4400 -0.7043
15156TIP3   OH266958   6.259   3.892  11.623 -0.0431  0.0711 -0.0716
15156TIP3    H166959   6.334   3.930  11.579 -0.7714  0.3063 -1.1460
15156TIP3    H266960   6.206   3.967  11.649 -0.6471 -0.1369 -0.6779
15157TIP3   OH266961   2.579   6.520  12.015 -0.0482  0.0219  0.0740
15157TIP3    H166962   2.643   6.558  12.076 -1.8490  0.5753  1.7054
15157TIP3    H266963   2.556   6.436  12.054 -0.3819 -0.1453 -0.4701
15158TIP3   OH266964   5.671   5.064  16.738 -0.5562 -0.2766  0.3347
15158TIP3    H166965   5.738   5.010  16.695  1.4254  0.7265  1.9538
15158TIP3    H266966   5.624   5.106  16.665  1.3081 -0.1914 -0.9023
15159TIP3   OH266967   5.551   5.440  12.555 -0.4857 -0.6175  0.0594
15159TIP3    H166968   5.544   5.345  12.547 -1.2704 -0.5752  0.1613
15159TIP3    H266969   5.577   5.470  12.468  1.1075 -1.0283  0.3559
15160TIP3   OH266970   1.747   3.434   1.178  0.1226  0.3430  0.7716
15160TIP3    H166971   1.672   3.495   1.180  0.2964  0.5609  0.5966
15160TIP3    H266972   1.801   3.461   1.253 -0.4696 -0.4470  1.5083
15161TIP3   OH266973   3.900   1.656   5.535 -0.2442 -0.0449 -0.3765
15161TIP3    H166974   3.942   1.576   5.566 -0.9319  0.0190  0.8177
15161TIP3    H266975   3.965   1.725   5.550  0.7270 -0.4766 -2.3238
15162TIP3   OH266976   2.030   5.758  15.502  0.0737  0.2290 -0.3653
15162TIP3    H166977   2.019   5.807  15.583 -0.0760  0.4968 -0.5447
15162TIP3    H266978   2.020   5.667  15.527 -0.7778  0.3603 -0.2229
15163TIP3   OH266979   6.428   5.354  10.939  0.2234 -0.6126 -0.7297
15163TIP3    H166980   6.360   5.295  10.973  0.9760 -1.0229  0.1124
15163TIP3    H266981   6.384   5.403  10.869 -0.5262 -1.9254 -1.2268
15164TIP3   OH266982   1.692   5.801   2.249  0.3822  0.0470  0.2423
15164TIP3    H166983   1.743   5.881   2.233  0.4803 -0.3968 -2.1747
15164TIP3    H266984   1.738   5.733   2.199  0.0522 -1.4488  1.8783
15165TIP3   OH266985   4.951   4.945  16.670  0.0841  0.2227  0.0603
15165TIP3    H166986   4.874   4.920  16.721 -0.2071  0.8904 -0.0385
15165TIP3    H266987   4.929   4.923  16.580  0.2389 -0.1126  0.1025
15166TIP3   OH266988   3.003   2.098   0.697  0.5211 -0.4594 -0.4223
15166TIP3    H166989   2.934   2.056   0.748  0.9731 -0.0025  0.5818
15166TIP3    H266990   2.968   2.185   0.675  1.1381  0.1620  0.9446
15167TIP3   OH266991   4.211   4.776   0.200  0.3862  0.3836 -0.1395
15167TIP3    H166992   4.187   4.741   0.286 -0.0465 -2.8316 -1.4307
15167TIP3    H266993   4.306   4.783   0.203  0.3768  0.2826  0.5967
15168TIP3   OH266994   3.188   4.599   4.497  0.3415  0.0506  0.1839
15168TIP3    H166995   3.128   4.575   4.568 -1.8168  0.5972 -1.3332
15168TIP3    H266996   3.220   4.516   4.463 -4.5193 -0.9527 -2.9225
15169TIP3   OH266997   6.269   0.782  13.429 -0.0468 -0.5638  0.0267
15169TIP3    H166998   6.234   0.795  13.341 -0.0243 -0.0274  0.0919
15169TIP3    H266999   6.336   0.851  13.439  0.5015 -1.1084  0.1750
15170TIP3   OH267000   2.074   6.052   0.476 -0.2511  0.3439 -0.0524
15170TIP3    H167001   2.145   6.078   0.535  0.5400 -0.0433 -0.8205
15170TIP3    H267002   2.084   6.108   0.399  0.9177 -1.5274 -1.3359
15171TIP3   OH267003   6.186   4.924   4.630 -0.0178  0.0939  0.5887
15171TIP3    H167004   6.122   4.864   4.591 -0.2119  0.1681  0.7906
15171TIP3    H267005   6.270   4.881   4.617  0.1235  0.9181 -1.4836
15172TIP3   OH267006   6.518   5.545   6.131 -0.1287 -0.0108 -0.4166
15172TIP3    H167007   6.492   5.476   6.070  1.9519 -1.9218  0.7362
15172TIP3    H267008   6.435   5.578   6.166 -1.1938 -1.5712 -1.3462
15173TIP3   OH267009   5.223   1.264   2.331 -0.3602  0.6620 -0.3998
15173TIP3    H167010   5.284   1.254   2.258 -0.8769 -0.4461 -0.7067
15173TIP3    H267011   5.198   1.174   2.353 -0.9487  1.0392  0.5101
15174TIP3   OH267012   3.526   4.144   6.004 -0.0378  0.0877 -0.4098
15174TIP3    H167013   3.549   4.237   6.011 -0.8965  0.1826  2.3665
15174TIP3    H267014   3.431   4.144   5.992 -0.1997 -0.4227  0.7864
15175TIP3   OH267015   1.759   0.961   5.772  0.1046  0.2333  0.4157
15175TIP3    H167016   1.844   0.997   5.746  0.7739  1.1560  3.4240
15175TIP3    H267017   1.704   1.038   5.787 -1.2330 -0.3489 -1.2385
15176TIP3   OH267018   5.947   4.328   2.821  0.0892  0.1382 -0.0249
15176TIP3    H167019   5.974   4.420   2.813 -1.0967  0.3681 -1.8020
15176TIP3    H267020   6.028   4.282   2.843  0.6948  1.5952  0.9884
15177TIP3   OH267021   0.565   4.633  11.463  0.5441  0.1848 -0.2218
15177TIP3    H167022   0.640   4.574  11.469  1.0782  0.6521 -1.7645
15177TIP3    H267023   0.601   4.715  11.428 -0.8386  0.0149 -2.2731
15178TIP3   OH267024   2.765   4.402  12.914  0.3619  0.0385  0.4574
15178TIP3    H167025   2.849   4.377  12.874  0.0356  0.5592 -0.5987
15178TIP3    H267026   2.787   4.423  13.004  1.4634  0.5796  0.0913
15179TIP3   OH267027   0.551   0.522  13.356  0.5634  0.1007 -0.1557
15179TIP3    H167028   0.606   0.478  13.292 -0.3614  0.3590 -1.1579
15179TIP3    H267029   0.611   0.583  13.401  1.3805 -0.6312 -0.2280
15180TIP3   OH267030   3.624   4.960  14.610  0.0301  0.5516  0.1451
15180TIP3    H167031   3.708   4.998  14.584  1.3123 -1.2839  1.3765
15180TIP3    H267032   3.620   4.876  14.566 -2.0382  1.3360 -1.2924
15181TIP3   OH267033   6.209   5.084  12.761 -0.3359 -0.1363  0.8018
15181TIP3    H167034   6.174   5.026  12.828  0.1513 -0.7648  0.5258
15181TIP3    H267035   6.166   5.057  12.680  0.2354 -0.4323  0.5903
15182TIP3   OH267036   6.326   0.317  15.412 -0.4927  0.2425  0.4403
15182TIP3    H167037   6.326   0.412  15.399 -1.7897  0.0362 -1.4934
15182TIP3    H267038   6.244   0.299  15.458 -2.1063 -0.2045 -2.3778
15183TIP3   OH267039   4.981   0.814   2.851  0.5008 -0.5693 -0.3783
15183TIP3    H167040   4.921   0.878   2.813 -0.0937 -0.2483  1.0602
15183TIP3    H267041   5.063   0.862   2.863  0.0773 -0.0919  0.6332
15184TIP3   OH267042   5.832   2.897  13.800 -0.2979 -0.3604  0.1549
15184TIP3    H167043   5.875   2.812  13.802  1.1649  0.3486  1.3088
15184TIP3    H267044   5.767   2.890  13.730  0.2868 -2.1644 -0.2605
15185TIP3   OH267045   4.426   5.028  12.959 -0.2860 -0.0682  0.2633
15185TIP3    H167046   4.446   5.070  12.875  1.6341 -0.9838  0.2045
15185TIP3    H267047   4.457   5.090  13.025 -2.1193  0.8136  0.3782
15186TIP3   OH267048   5.517   3.283   5.400  0.7483  0.0284 -0.8421
15186TIP3    H167049   5.542   3.341   5.472  2.2145  0.3178 -1.5469
15186TIP3    H267050   5.495   3.341   5.328  0.2592 -0.2730 -0.9410
15187TIP3   OH267051   6.774   5.014   0.714  0.1379  0.4016  0.0940
15187TIP3    H167052   6.777   4.928   0.756 -0.0271  0.3314 -0.0416
15187TIP3    H267053   6.775   4.995   0.620  0.6043  0.5625  0.0633
15188TIP3   OH267054   0.191   3.207  12.780  0.2370 -0.0377  0.0723
15188TIP3    H167055   0.210   3.301  12.780  0.7755 -0.1391 -0.4252
15188TIP3    H267056   0.099   3.200  12.806 -0.3188  0.7283 -1.5651
15189TIP3   OH267057   1.255   1.119  13.140  0.4288 -0.4437  0.5184
15189TIP3    H167058   1.275   1.088  13.052  2.5237  1.6512  0.1515
15189TIP3    H267059   1.241   1.213  13.130 -1.8459 -0.5137  2.0995
15190TIP3   OH267060   0.637   0.973  17.033  0.1337 -0.0643 -0.2517
15190TIP3    H167061   0.557   0.992  16.985  0.5744 -0.2135 -1.0510
15190TIP3    H267062   0.610   0.974  17.125 -0.8409 -0.3939 -0.5238
15191TIP3   OH267063   2.039   3.589  16.282 -0.2513  0.4477 -0.0882
15191TIP3    H167064   2.017   3.506  16.239 -0.5699  0.3775  0.2046
15191TIP3    H267065   1.954   3.629  16.302 -0.1230  0.2157  0.9782
15192TIP3   OH267066   6.289   5.425  16.965 -0.4861  0.0542 -0.1273
15192TIP3    H167067   6.277   5.339  16.925 -0.3757  1.2837 -3.1107
15192TIP3    H267068   6.375   5.422  17.005 -0.8513 -1.4713  0.5942
15193TIP3   OH267069   5.020   5.074  16.895 -0.0010  0.7259  0.4489
15193TIP3    H167070   4.927   5.089  16.910  0.0240 -0.7807  2.4030
15193TIP3    H267071   5.023   5.010  16.824 -0.4293  0.9475  0.2283
15194TIP3   OH267072   4.899   4.625  10.278 -0.6319 -0.5056  0.1642
15194TIP3    H167073   4.963   4.589  10.339  0.7498 -0.5295 -1.2448
15194TIP3    H267074   4.884   4.715  10.309  2.0383  0.3896 -0.8693
15195TIP3   OH267075   2.658   5.957  15.312 -0.2836 -0.6486  0.6920
15195TIP3    H167076   2.634   5.997  15.228 -1.3029 -0.2190  1.1700
15195TIP3    H267077   2.587   5.897  15.331 -0.5318 -0.0658  1.6802
15196TIP3   OH267078   5.996   4.315  14.330  0.5307  0.2832 -0.9386
15196TIP3    H167079   6.004   4.389  14.271 -0.4659  0.2459 -1.1326
15196TIP3    H267080   5.942   4.251  14.283 -0.4548  0.3401  0.0681
15197TIP3   OH267081   3.520   0.194   3.721 -0.5773  0.0571  0.3762
15197TIP3    H167082   3.445   0.135   3.708 -1.0209  0.7311 -0.2518
15197TIP3    H267083   3.485   0.264   3.776 -0.6566  0.7993 -0.5954
15198TIP3   OH267084   2.202   2.354   4.854  0.5532 -0.3375  0.0138
15198TIP3    H167085   2.282   2.301   4.851 -0.3274 -1.7251  0.5047
15198TIP3    H267086   2.134   2.298   4.817 -0.0659  1.1441 -1.2425
15199TIP3   OH267087   2.306   5.886   3.369 -0.2195  0.2024  0.5818
15199TIP3    H167088   2.363   5.856   3.298 -1.0195  2.6236 -1.2072
15199TIP3    H267089   2.231   5.826   3.366  1.1433 -1.6922  1.5833
15200TIP3   OH267090   2.610   0.776   1.140 -0.0242 -0.4562 -0.3096
15200TIP3    H167091   2.622   0.686   1.172  0.4011 -0.1758  0.3255
15200TIP3    H267092   2.590   0.765   1.047 -0.0111 -1.2125 -0.2340
15201TIP3   OH267093   4.251   4.137   2.570  0.0284  0.0073  0.2309
15201TIP3    H167094   4.340   4.117   2.542 -0.5150 -0.4589 -1.2432
15201TIP3    H267095   4.243   4.232   2.562 -0.4379 -0.1944 -2.3308
15202TIP3   OH267096   4.186   1.562  11.124  0.4243 -0.2849  0.4395
15202TIP3    H167097   4.217   1.562  11.215 -0.9728  2.0148  0.9931
15202TIP3    H267098   4.090   1.563  11.132  0.2681  1.5216 -0.9966
15203TIP3   OH267099   5.159   4.293  13.220  0.3870  0.5545 -0.3563
15203TIP3    H167100   5.168   4.303  13.315  1.3604 -1.0379 -0.2435
15203TIP3    H267101   5.067   4.268  13.207  0.6946 -1.1869  0.4168
15204TIP3   OH267102   5.699   4.029  13.585  0.0246 -0.3833  0.5790
15204TIP3    H167103   5.649   3.950  13.565 -0.6815 -0.1773  1.4703
15204TIP3    H267104   5.693   4.082  13.505  0.0014 -0.9641  0.1890
15205TIP3   OH267105   2.427   0.606   1.910 -0.2043 -0.5501 -0.5534
15205TIP3    H167106   2.460   0.543   1.846  0.8841 -0.0967 -0.4706
15205TIP3    H267107   2.431   0.690   1.865  1.4725 -0.0814  0.3646
15206TIP3   OH267108   2.824   1.254  15.704  0.7960 -0.2530 -0.0401
15206TIP3    H167109   2.851   1.209  15.784  0.5560  0.6781  0.5750
15206TIP3    H267110   2.850   1.345  15.717 -0.0656  0.0901 -0.6445
15207TIP3   OH267111   3.520   6.289   2.950 -0.6528  0.1133  0.3581
15207TIP3    H167112   3.473   6.261   3.028 -2.0828 -0.6392 -0.7277
15207TIP3    H267113   3.497   6.382   2.940 -1.2097 -0.0271  0.3205
15208TIP3   OH267114   0.529   6.765  11.431 -0.1566 -0.2224  0.0985
15208TIP3    H167115   0.488   6.757  11.345 -0.8115  2.3635  0.0746
15208TIP3    H267116   0.620   6.789  11.412 -0.5609  1.4183  0.0461
15209TIP3   OH267117   0.411   3.816   6.380  0.9502 -0.2659 -0.5918
15209TIP3    H167118   0.334   3.758   6.380 -1.6061  2.7090 -4.1703
15209TIP3    H267119   0.474   3.772   6.323 -0.6179 -0.0178 -2.6049
15210TIP3   OH267120   4.525   5.854  11.836  0.4031 -0.0720 -0.3215
15210TIP3    H167121   4.473   5.780  11.870 -0.3167  0.8153  0.5797
15210TIP3    H267122   4.580   5.880  11.909  0.5562  0.3750 -0.5942
15211TIP3   OH267123   5.985   2.073  15.353  0.2424  0.1681 -0.4925
15211TIP3    H167124   5.908   2.103  15.400  0.1001 -0.5051 -0.2818
15211TIP3    H267125   6.029   2.014  15.414  0.2941 -0.3664 -1.0322
15212TIP3   OH267126   4.669   3.047  12.367 -0.0302 -0.1924  0.0445
15212TIP3    H167127   4.650   3.139  12.388  1.0608  0.1139 -0.2576
15212TIP3    H267128   4.670   3.044  12.272 -2.4070 -1.0404 -0.0119
15213TIP3   OH267129   0.071   4.792   1.714  0.6064 -0.2993 -0.0999
15213TIP3    H167130   0.110   4.832   1.636  1.9461 -0.4721  0.4512
15213TIP3    H267131  -0.023   4.805   1.703  0.7637 -0.2673 -1.7138
15214TIP3   OH267132   5.268   4.858   3.846  0.4134  0.3089  0.4578
15214TIP3    H167133   5.266   4.897   3.759  0.1011 -0.0683  0.2930
15214TIP3    H267134   5.209   4.783   3.840 -0.6373  1.0277  1.3478
15215TIP3   OH267135   2.035   6.643  17.209 -0.4601  0.0179 -0.0540
15215TIP3    H167136   2.005   6.651  17.299  0.4730 -0.2738  0.2948
15215TIP3    H267137   2.121   6.686  17.208 -0.4098 -0.0800 -0.7768
15216TIP3   OH267138   4.482   4.683  13.621 -0.1387  0.0333 -0.4584
15216TIP3    H167139   4.428   4.750  13.578  0.1165  0.3630 -0.2663
15216TIP3    H267140   4.426   4.647  13.689 -0.1570  0.2896 -0.3396
15217TIP3   OH267141   3.052   5.655   2.158  0.1620  0.0301  0.1387
15217TIP3    H167142   3.143   5.652   2.129  0.5652  1.9863  1.1006
15217TIP3    H267143   3.023   5.563   2.153  2.2819 -0.6920  0.1972
15218TIP3   OH267144   3.795   2.744   3.760 -0.1876  0.3865 -0.3472
15218TIP3    H167145   3.841   2.669   3.796 -0.5706  0.4811  0.3617
15218TIP3    H267146   3.726   2.707   3.705  0.2714  0.2364 -0.8211
15219TIP3   OH267147   1.764   1.384  16.415 -0.4464  0.4738 -0.3760
15219TIP3    H167148   1.777   1.447  16.485  1.1240  0.7021 -0.8501
15219TIP3    H267149   1.814   1.418  16.341 -0.6437 -0.6555 -1.0685
15220TIP3   OH267150   2.933   2.705  10.790  0.5015 -0.6169  0.1294
15220TIP3    H167151   2.980   2.782  10.759 -0.9300  0.7068  1.0893
15220TIP3    H267152   2.872   2.684  10.719  0.8876 -0.8657 -0.1303
15221TIP3   OH267153   2.007   0.265   3.597 -0.9531  0.2156  0.2429
15221TIP3    H167154   1.922   0.269   3.554 -0.2158 -0.7016 -1.4248
15221TIP3    H267155   2.047   0.350   3.579 -0.2020 -0.5318 -2.0252
15222TIP3   OH267156   5.785   3.682  12.459 -0.1063 -0.0294  0.0364
15222TIP3    H167157   5.707   3.633  12.484  1.2504 -1.3894  1.8018
15222TIP3    H267158   5.834   3.693  12.540  1.5384  0.8283 -1.0182
15223TIP3   OH267159   4.697   5.311  10.956 -0.2055  0.2587 -0.1662
15223TIP3    H167160   4.704   5.253  11.032 -2.5183 -0.7170 -0.5920
15223TIP3    H267161   4.772   5.289  10.901  0.7121 -0.0323  1.1535
15224TIP3   OH267162   4.369   2.563  16.251  0.2889 -0.2289  0.3163
15224TIP3    H167163   4.297   2.506  16.278  1.6647 -2.0585  0.3567
15224TIP3    H267164   4.338   2.651  16.269 -1.0215 -1.0712  2.5882
15225TIP3   OH267165   4.273   1.824  11.780  0.3886  0.5454 -0.7800
15225TIP3    H167166   4.190   1.803  11.737  0.4650  1.2753 -1.3073
15225TIP3    H267167   4.294   1.913  11.750 -0.0891  1.5440  1.5617
15226TIP3   OH267168   6.746   3.303  11.040  0.4074  0.1153 -0.4716
15226TIP3    H167169   6.800   3.236  11.083  1.6822  0.1125 -1.9581
15226TIP3    H267170   6.789   3.385  11.062 -1.5614  0.6063  1.9369
15227TIP3   OH267171   6.026   5.404   1.660  0.2287 -0.0606  0.2985
15227TIP3    H167172   5.957   5.430   1.599  0.1661  0.2529  0.4985
15227TIP3    H267173   6.084   5.481   1.664  0.2003 -0.0584  0.6747
15228TIP3   OH267174   5.578   3.745   3.472  0.1575  0.2147  0.3034
15228TIP3    H167175   5.522   3.821   3.490 -0.3981 -0.3829  1.2135
15228TIP3    H267176   5.584   3.741   3.376  1.6172  2.3949  0.2447
15229TIP3   OH267177   0.238   2.041  15.888 -0.3145 -0.4406  0.3015
15229TIP3    H167178   0.260   1.954  15.854  0.6391  0.4014 -1.3730
15229TIP3    H267179   0.289   2.049  15.968  0.2478 -1.0918  0.0189
15230TIP3   OH267180   5.095   3.322  14.742  0.1900  0.1923 -0.5030
15230TIP3    H167181   5.110   3.413  14.768 -1.4391  0.1606  0.6664
15230TIP3    H267182   5.000   3.313  14.737  0.3017 -1.5155 -0.3203
15231TIP3   OH267183   5.163   5.842  16.213  0.1568  0.3723 -0.2964
15231TIP3    H167184   5.172   5.935  16.237 -0.4334 -0.3770  3.3724
15231TIP3    H267185   5.246   5.821  16.170 -0.2475  2.8454 -2.5859
15232TIP3   OH267186   2.717   3.071  12.478  0.2357  0.0662  0.1646
15232TIP3    H167187   2.625   3.046  12.481  0.0691  0.3516 -1.3298
15232TIP3    H267188   2.754   3.043  12.562 -1.1855 -0.1358  0.7362
15233TIP3   OH267189   1.494   6.191  16.052 -0.0037  0.4533 -0.1184
15233TIP3    H167190   1.499   6.196  15.956 -1.1332 -0.2172 -0.2320
15233TIP3    H267191   1.466   6.278  16.079 -2.7745 -0.1495 -0.6894
15234TIP3   OH267192   6.115   2.631  15.572 -0.5744 -0.3916 -0.4246
15234TIP3    H167193   6.183   2.695  15.550  0.1897 -1.2216 -0.4935
15234TIP3    H267194   6.096   2.646  15.665  1.4475 -1.7472  0.2601
15235TIP3   OH267195   1.780   0.119   3.443 -0.4355  0.3860  0.3283
15235TIP3    H167196   1.820   0.177   3.378 -0.7134  0.6608  0.3979
15235TIP3    H267197   1.740   0.049   3.392  1.3522 -0.6923  0.3143
15236TIP3   OH267198   6.497   0.848   4.406 -0.1587  0.4326  0.3795
15236TIP3    H167199   6.424   0.861   4.345  0.0199  1.5587  0.3941
15236TIP3    H267200   6.468   0.776   4.462 -1.2762  0.8789  0.4047
15237TIP3   OH267201   0.327   5.886  14.834 -0.2437 -0.0969 -0.2076
15237TIP3    H167202   0.323   5.826  14.759 -1.3722  0.6657 -0.7914
15237TIP3    H267203   0.242   5.875  14.877  0.1626 -0.0758  0.6141
15238TIP3   OH267204   4.075   3.509  13.239 -0.3081  0.0900 -0.0045
15238TIP3    H167205   4.117   3.575  13.184 -1.1593 -0.2315 -1.0865
15238TIP3    H267206   4.140   3.439  13.249  0.2071  0.6008  0.2506
15239TIP3   OH267207   0.120   2.511  13.345 -0.1575  0.0470  0.1409
15239TIP3    H167208   0.212   2.528  13.323  0.0463  1.3752  1.8295
15239TIP3    H267209   0.114   2.531  13.438 -1.9165 -1.1764  0.3320
15240TIP3   OH267210   3.733   0.681  14.519 -0.3937  0.3727 -0.4432
15240TIP3    H167211   3.696   0.732  14.591 -2.3973 -2.7609  0.9836
15240TIP3    H267212   3.793   0.619  14.561 -2.1025 -1.9678 -1.2076
15241TIP3   OH267213   6.418   2.089  12.579  0.2158  0.0887  0.5716
15241TIP3    H167214   6.468   2.031  12.636  1.4105 -0.2501 -0.7650
15241TIP3    H267215   6.466   2.171  12.580  1.5094 -0.5580 -1.5490
15242TIP3   OH267216   6.006   0.360   2.072 -0.4046  0.8880 -0.3314
15242TIP3    H167217   6.080   0.363   2.132 -0.0236  0.8849 -0.7976
15242TIP3    H267218   5.947   0.294   2.109 -0.2014  0.9282  0.0674
15243TIP3   OH267219   2.239   2.906  13.429 -0.2829  0.2373  0.0866
15243TIP3    H167220   2.175   2.840  13.402 -0.2581  0.6607 -1.0253
15243TIP3    H267221   2.321   2.857  13.439 -0.6074 -0.1772  0.8291
15244TIP3   OH267222   5.625   4.602   1.942  0.1213  0.0264 -0.5194
15244TIP3    H167223   5.554   4.584   2.003  0.4366 -3.1768 -0.9020
15244TIP3    H267224   5.582   4.618   1.858 -0.2212  1.5812 -0.0584
15245TIP3   OH267225   3.592   0.965   3.907 -0.4794  0.0485 -0.1925
15245TIP3    H167226   3.514   0.924   3.869  0.5460 -0.0594 -2.2748
15245TIP3    H267227   3.633   0.895   3.958 -0.8244 -0.3733 -0.4899
15246TIP3   OH267228   3.625   2.071   0.147 -0.5532 -1.2850  0.1280
15246TIP3    H167229   3.587   2.143   0.196  2.8663  0.4026  0.5652
15246TIP3    H267230   3.641   2.002   0.212 -3.7322 -2.5666 -0.2765
15247TIP3   OH267231   4.125   6.199   0.816 -0.0853  0.1685 -0.2097
15247TIP3    H167232   4.079   6.129   0.861 -0.6892  0.3787 -0.4891
15247TIP3    H267233   4.206   6.159   0.784  1.0750  0.3471  2.2638
15248TIP3   OH267234   3.633   3.686   3.529 -0.0449  0.3874 -0.0629
15248TIP3    H167235   3.626   3.613   3.591  0.2997 -1.0206 -1.6277
15248TIP3    H267236   3.714   3.670   3.481  0.0008  1.7784 -0.4937
15249TIP3   OH267237   2.864   2.317  10.734 -0.3438 -0.3588 -0.2856
15249TIP3    H167238   2.856   2.222  10.731 -0.8359 -0.3851  1.1300
15249TIP3    H267239   2.858   2.339  10.827  1.3247  0.9350 -0.4298
15250TIP3   OH267240   5.765   3.452   1.045  0.5031 -0.0815  0.9052
15250TIP3    H167241   5.712   3.380   1.012  1.6458 -1.0023  0.9904
15250TIP3    H267242   5.725   3.475   1.129  0.6759 -1.2922  1.3429
15251TIP3   OH267243   0.802   6.817  15.096  0.0221  0.4128  0.9389
15251TIP3    H167244   0.715   6.776  15.092  0.7687 -1.2395  0.8997
15251TIP3    H267245   0.817   6.848  15.006  0.2561 -1.0347  0.4543
15252TIP3   OH267246   4.188   5.498   3.000 -0.2822  0.0676  0.3080
15252TIP3    H167247   4.238   5.453   2.933  0.0922  0.7542  0.1136
15252TIP3    H267248   4.234   5.581   3.013 -0.0466 -0.2500  1.7705
15253TIP3   OH267249   1.540   0.515  16.221  0.2611  0.5395  0.0585
15253TIP3    H167250   1.626   0.480  16.200 -1.0742 -2.0249 -1.5961
15253TIP3    H267251   1.552   0.610  16.220  2.5157  0.3486 -2.8035
15254TIP3   OH267252   2.316   2.723  11.333  0.0171  0.0898 -0.2787
15254TIP3    H167253   2.247   2.677  11.285 -0.1827  0.4479 -0.3386
15254TIP3    H267254   2.295   2.816  11.322  1.3657  0.2830 -1.6059
15255TIP3   OH267255   2.412   5.962  15.840 -0.0098  0.4030  0.3713
15255TIP3    H167256   2.437   5.929  15.753 -0.9571 -1.4000  0.7279
15255TIP3    H267257   2.367   6.045  15.822  1.2095  0.8647 -0.7005
15256TIP3   OH267258   6.211   4.010   2.371  0.3461  0.2376  0.1254
15256TIP3    H167259   6.206   4.105   2.360  1.3314  0.3486  0.4665
15256TIP3    H267260   6.259   3.998   2.453 -1.3587 -0.5570  1.0574
15257TIP3   OH267261   3.921   3.153  16.935 -0.0616 -0.1541 -0.0416
15257TIP3    H167262   3.906   3.084  16.871 -0.1461  0.5008 -0.7387
15257TIP3    H267263   3.930   3.106  17.018 -0.2695 -0.9912 -0.4731
15258TIP3   OH267264   3.406   4.219   2.992 -0.2548  0.6153 -0.1553
15258TIP3    H167265   3.442   4.136   3.023  0.8234  1.0635 -0.1771
15258TIP3    H267266   3.482   4.269   2.963 -0.9466  1.3983 -0.6668
15259TIP3   OH267267   2.033   0.003   4.968  0.8751 -0.2713 -0.0755
15259TIP3    H167268   2.048   0.027   4.876 -1.3527 -1.3092 -0.7746
15259TIP3    H267269   2.088   0.064   5.018 -0.7917  3.0307 -1.9426
15260TIP3   OH267270   5.688   3.991  15.213 -0.4726  0.6167  0.2465
15260TIP3    H167271   5.669   4.085  15.212  1.4588  1.0734  1.3177
15260TIP3    H267272   5.765   3.982  15.157 -1.2663 -0.5233 -0.7094
15261TIP3   OH267273   0.300   2.637  11.933 -0.1029 -0.5246  0.0820
15261TIP3    H167274   0.209   2.664  11.943  0.4174  0.9748  1.0906
15261TIP3    H267275   0.299   2.543  11.953 -1.2505 -0.2976  1.2433
15262TIP3   OH267276   2.932   3.607  15.991  0.1118 -0.4391 -0.5472
15262TIP3    H167277   2.941   3.517  16.023 -1.4128 -0.4016  0.0452
15262TIP3    H267278   2.843   3.632  16.014  0.1417  0.8427 -1.7011
15263TIP3   OH267279   5.467   5.020   5.824 -0.5181  0.3315 -0.4398
15263TIP3    H167280   5.385   4.999   5.779 -1.1982 -0.1378  0.9401
15263TIP3    H267281   5.447   5.100   5.873 -0.5424 -0.3850  0.7786
15264TIP3   OH267282   0.683   5.897   3.790  0.6315  0.0813  0.3484
15264TIP3    H167283   0.589   5.916   3.790  0.4394 -0.7575  1.4616
15264TIP3    H267284   0.694   5.832   3.860  1.8761 -0.6469 -0.4922
15265TIP3   OH267285   3.824   4.699  10.606 -0.0702  0.3064 -0.1981
15265TIP3    H167286   3.749   4.714  10.663 -0.0072 -1.8913  0.5653
15265TIP3    H267287   3.859   4.786  10.590 -2.4683  1.3676 -0.1882
15266TIP3   OH267288   5.153   5.292  16.566  0.2089 -0.1226 -0.0603
15266TIP3    H167289   5.102   5.364  16.530  1.0858  0.5044 -0.0849
15266TIP3    H267290   5.142   5.220  16.503  0.5243  0.4801 -0.8195
15267TIP3   OH267291   0.980   5.249  15.706 -0.2332  0.2374 -0.0435
15267TIP3    H167292   1.015   5.329  15.669  0.2306 -0.8972 -2.2317
15267TIP3    H267293   1.054   5.210  15.753 -0.1309  0.5317  0.0378
15268TIP3   OH267294   2.545   0.094  15.565 -0.0746 -0.2423  0.7103
15268TIP3    H167295   2.501   0.029  15.511 -0.1590  0.4609 -0.0928
15268TIP3    H267296   2.517   0.074  15.654 -3.4782  1.2242  0.1056
15269TIP3   OH267297   5.015   0.075   2.816  0.2909 -0.3462 -0.0268
15269TIP3    H167298   5.098   0.121   2.809 -0.1572  0.3053 -1.5067
15269TIP3    H267299   5.031   0.005   2.879  1.7901  0.1001  0.1150
15270TIP3   OH267300   4.941   1.180  16.388 -0.2028  0.6373 -0.0842
15270TIP3    H167301   5.017   1.199  16.333 -0.3576  0.1721 -0.4620
15270TIP3    H267302   4.974   1.120  16.455 -0.0712  1.0121  0.1926
15271TIP3   OH267303   3.959   4.415   2.351  0.0193  0.1857  0.2649
15271TIP3    H167304   4.008   4.468   2.289 -0.1503 -0.3167 -0.3091
15271TIP3    H267305   3.868   4.434   2.332 -0.1353 -1.9077 -1.4447
15272TIP3   OH267306   4.676   2.619   2.212  0.0257 -0.9480  0.1017
15272TIP3    H167307   4.743   2.596   2.276  2.0054  0.8290 -1.1831
15272TIP3    H267308   4.718   2.604   2.127 -1.6898 -1.0256 -0.7731
15273TIP3   OH267309   2.122   0.129   3.801  0.4932  0.7622  0.2304
15273TIP3    H167310   2.079   0.182   3.734 -2.6980  0.4254  1.8481
15273TIP3    H267311   2.114   0.039   3.769  0.0663  0.7065  0.4931
15274TIP3   OH267312   4.572   1.978   3.689  0.8440  0.0152  0.1386
15274TIP3    H167313   4.623   2.035   3.746 -1.9781  2.3924  0.5240
15274TIP3    H267314   4.517   2.038   3.638 -2.1097 -2.2624  0.3391
15275TIP3   OH267315   4.910   5.295   0.719 -0.4628 -0.1404 -0.0537
15275TIP3    H167316   4.956   5.371   0.755 -0.4216  1.3014 -2.8661
15275TIP3    H267317   4.963   5.270   0.643 -3.0869  0.2529 -2.1625
15276TIP3   OH267318   2.964   1.886  10.652 -0.2950  0.0631 -0.6401
15276TIP3    H167319   3.000   1.915  10.736 -0.9824  1.0163 -0.6593
15276TIP3    H267320   2.962   1.790  10.659  1.6310 -0.0136 -0.4097
15277TIP3   OH267321   5.305   6.387   4.534 -0.0083 -0.1970 -0.1065
15277TIP3    H167322   5.276   6.356   4.620  2.3901 -2.2996  0.0576
15277TIP3    H267323   5.289   6.313   4.475 -1.4841  1.1565 -1.5249
15278TIP3   OH267324   1.258   1.941   6.242  0.1313 -0.6205 -0.6356
15278TIP3    H167325   1.334   1.918   6.295  0.1377  0.3223 -0.2244
15278TIP3    H267326   1.254   2.036   6.245 -1.0870 -0.6575 -0.6236
15279TIP3   OH267327   4.693   1.063  15.142  0.3455  0.3333 -0.2760
15279TIP3    H167328   4.731   1.090  15.059  0.8975 -1.8835 -0.7992
15279TIP3    H267329   4.648   1.141  15.175  0.2364  1.2951 -2.5708
15280TIP3   OH267330   6.622   6.127  17.146 -0.5180  0.8261  0.1702
15280TIP3    H167331   6.566   6.109  17.221 -1.0158  0.7458 -0.2137
15280TIP3    H267332   6.599   6.216  17.119  0.4517  1.2803  0.7853
15281TIP3   OH267333   2.546   1.185  14.885 -0.2503  0.0987  0.3420
15281TIP3    H167334   2.465   1.235  14.879 -1.3849 -1.6963  0.1587
15281TIP3    H267335   2.556   1.167  14.978 -0.0331  0.3327  0.3669
15282TIP3   OH267336   3.028   2.117   5.364 -0.2053 -0.4102  0.1844
15282TIP3    H167337   2.960   2.184   5.366 -0.7743 -0.9472 -0.5827
15282TIP3    H267338   2.992   2.045   5.415 -0.7808 -1.1946 -1.2691
15283TIP3   OH267339   6.615   5.104   4.104 -0.4015  0.5223 -0.3825
15283TIP3    H167340   6.695   5.155   4.116  0.0536 -0.6489  2.4253
15283TIP3    H267341   6.546   5.156   4.145 -0.4977  0.2188 -0.1499
15284TIP3   OH267342   0.436   0.309   0.795  0.1413 -0.1126 -0.1998
15284TIP3    H167343   0.507   0.363   0.830  1.2493 -0.3903 -1.8723
15284TIP3    H267344   0.481   0.243   0.741 -1.3437 -0.8494 -0.5873
15285TIP3   OH267345   6.208   6.729  15.137  0.0341  0.4490  1.1838
15285TIP3    H167346   6.208   6.634  15.146 -0.7106  0.5976  3.3304
15285TIP3    H267347   6.118   6.752  15.115 -0.1283  0.7279  2.0786
15286TIP3   OH267348   4.379   2.889   1.082 -0.1665  0.0422  0.0530
15286TIP3    H167349   4.467   2.864   1.110  0.4026 -1.8405 -2.9588
15286TIP3    H267350   4.361   2.832   1.007 -3.6044  1.0213 -0.0155
15287TIP3   OH267351   6.081   5.053  14.101 -0.2539  0.3046 -0.0793
15287TIP3    H167352   6.008   5.038  14.161 -1.4418  3.1881 -0.6545
15287TIP3    H267353   6.040   5.083  14.020  1.5288  2.1774 -0.3633
15288TIP3   OH267354   2.850   4.510   3.257 -0.1683  0.1314 -0.0578
15288TIP3    H167355   2.758   4.486   3.272  0.3733 -2.0483  0.0591
15288TIP3    H267356   2.884   4.528   3.345 -0.6949  1.9874 -0.1859
15289TIP3   OH267357   0.944   3.844   1.268 -0.4149  0.4495  0.0539
15289TIP3    H167358   1.029   3.849   1.311 -1.6212 -0.0001  2.7138
15289TIP3    H267359   0.952   3.770   1.207  1.1525  0.5813  0.0633
15290TIP3   OH267360   0.689   4.071   1.628 -0.0076  0.0218  0.5035
15290TIP3    H167361   0.605   4.078   1.673  0.4819  0.6763  1.3457
15290TIP3    H267362   0.667   4.075   1.535 -0.8957  0.2948  0.7202
15291TIP3   OH267363   0.956   6.009  15.152 -0.2157 -0.1057 -0.3966
15291TIP3    H167364   0.947   6.093  15.108 -0.7716  0.0151 -0.0557
15291TIP3    H267365   0.867   5.980  15.170 -0.1199 -1.5543 -1.9610
15292TIP3   OH267366   1.097   3.148  16.154 -0.4025 -0.4002 -0.0131
15292TIP3    H167367   1.110   3.188  16.068 -1.2449  0.5166  0.2597
15292TIP3    H267368   1.184   3.121  16.183  0.0023  0.1054 -0.7620
15293TIP3   OH267369   6.318   5.663   1.379  0.1983  0.4545  0.0912
15293TIP3    H167370   6.253   5.617   1.326 -1.0323  0.2127  1.6889
15293TIP3    H267371   6.356   5.595   1.435  0.5668  0.8797  0.3674
15294TIP3   OH267372   6.680   0.446   1.305 -0.1388  0.1545 -0.0942
15294TIP3    H167373   6.696   0.471   1.214 -0.4558  1.4560  0.1819
15294TIP3    H267374   6.609   0.382   1.301  0.1538 -0.1334 -0.7828
15295TIP3   OH267375   6.281   4.505  14.560  0.0082 -0.3620 -0.3039
15295TIP3    H167376   6.284   4.423  14.512  0.9776 -1.7742  2.0176
15295TIP3    H267377   6.223   4.488  14.634  0.0798  1.1036  0.1306
15296TIP3   OH267378   5.075   5.055  11.054 -0.3879 -0.0656  0.6379
15296TIP3    H167379   5.099   5.108  11.130 -0.9661 -0.4048  1.0684
15296TIP3    H267380   5.147   5.066  10.992 -0.3668  0.9906  0.8395
15297TIP3   OH267381   1.569   0.115   3.109 -0.2174 -0.1826 -0.3454
15297TIP3    H167382   1.639   0.158   3.060  0.2962 -1.0756 -0.4206
15297TIP3    H267383   1.615   0.055   3.168 -0.8383  0.5994  0.9733
15298TIP3   OH267384   0.240   6.610   3.125 -0.1788  0.0468  0.4712
15298TIP3    H167385   0.248   6.686   3.182  1.3073  0.7282 -0.5620
15298TIP3    H267386   0.303   6.547   3.160 -1.3188 -0.6914  1.2524
15299TIP3   OH267387   2.983   5.610   5.106 -0.1338 -0.0531  0.5595
15299TIP3    H167388   3.067   5.642   5.139  0.0915  1.4351 -1.3045
15299TIP3    H267389   2.927   5.687   5.104 -0.7042 -0.4816 -0.7252
15300TIP3   OH267390   1.888   2.942   0.400  0.4880 -0.6998  0.5999
15300TIP3    H167391   1.819   2.881   0.427  0.2315 -1.3895 -1.4487
15300TIP3    H267392   1.847   2.998   0.333  0.7385  1.7418  2.3368
15301TIP3   OH267393   2.724   2.330  14.186  0.3128  0.8496  0.6951
15301TIP3    H167394   2.724   2.243  14.227  0.3741  0.6009  0.1756
15301TIP3    H267395   2.817   2.350  14.174  0.3102  1.1601  1.1671
15302TIP3   OH267396   5.067   0.610   1.261 -0.9280 -0.2905  0.1769
15302TIP3    H167397   5.136   0.676   1.269 -1.5125  0.3213  0.2665
15302TIP3    H267398   5.105   0.542   1.204 -0.5995  0.5149 -0.5925
15303TIP3   OH267399   3.682   5.120   3.768  0.0215 -0.4325  1.0171
15303TIP3    H167400   3.710   5.030   3.779 -1.0218 -0.6531  2.1338
15303TIP3    H267401   3.713   5.165   3.847  0.6503  0.2311  0.4120
15304TIP3   OH267402   6.044   6.653  14.836 -0.1128 -0.3047 -0.7130
15304TIP3    H167403   6.123   6.703  14.814 -0.5732  1.3313  1.1496
15304TIP3    H267404   5.972   6.714  14.823 -0.6593 -0.2694  1.9988
15305TIP3   OH267405   4.311   1.858  15.929 -0.6933 -0.1437  0.0931
15305TIP3    H167406   4.293   1.928  15.866 -2.2004  0.0578  0.7069
15305TIP3    H267407   4.263   1.883  16.007 -0.5020 -1.4124  0.6418
15306TIP3   OH267408   2.701   0.616   2.313  0.5693  0.0779  0.3853
15306TIP3    H167409   2.796   0.612   2.306  0.4808  0.8053 -1.9126
15306TIP3    H267410   2.669   0.565   2.239 -0.7952  1.8067 -0.2951
15307TIP3   OH267411   1.908   1.004  14.810  0.0313  0.0400 -0.2079
15307TIP3    H167412   1.959   1.014  14.730  0.0891  0.3461 -0.1350
15307TIP3    H267413   1.969   0.968  14.874 -0.2190 -0.9615 -0.5154
15308TIP3   OH267414   2.817   3.312   0.077 -0.5499  0.2766  0.4806
15308TIP3    H167415   2.732   3.269   0.089 -0.3402 -0.2808 -0.0001
15308TIP3    H267416   2.874   3.271   0.143 -1.0341  1.7563  1.8834
15309TIP3   OH267417   5.334   2.507  13.969  0.4984  0.0118 -0.1793
15309TIP3    H167418   5.389   2.456  14.028 -0.5655 -1.0878 -0.0921
15309TIP3    H267419   5.381   2.504  13.885  2.3984  2.2174  0.6973
15310TIP3   OH267420   0.537   1.347   0.581  0.0841  0.0841 -0.8031
15310TIP3    H167421   0.590   1.384   0.511 -0.8293  2.4951 -0.3155
15310TIP3    H267422   0.551   1.405   0.656 -1.5929 -0.4058 -0.0463
15311TIP3   OH267423   0.103   2.017  15.186  0.6938  0.2572 -0.2032
15311TIP3    H167424   0.064   2.055  15.265  0.2983  0.5285 -0.5261
15311TIP3    H267425   0.032   2.017  15.122  0.8988 -0.3481 -0.4311
15312TIP3   OH267426   3.100   6.512   1.034 -0.7841 -0.5228 -0.4942
15312TIP3    H167427   3.143   6.539   1.115 -0.1011  2.2202 -1.6455
15312TIP3    H267428   3.171   6.475   0.981 -0.5056  0.7134 -1.0297
15313TIP3   OH267429   4.485   3.804   2.135 -0.6070 -0.1851  0.3217
15313TIP3    H167430   4.501   3.887   2.181  0.9808  0.0241 -0.5654
15313TIP3    H267431   4.393   3.810   2.107 -0.6353  1.0888  0.6114
15314TIP3   OH267432   5.665   2.841  14.076 -0.1547  0.2035  0.5514
15314TIP3    H167433   5.755   2.845  14.107 -0.3736 -0.3831  1.2825
15314TIP3    H267434   5.651   2.925  14.033  0.7173  0.3274  0.4948
15315TIP3   OH267435   5.557   1.030   2.166 -0.7889  0.1760 -0.1051
15315TIP3    H167436   5.649   1.059   2.171 -0.8178  0.1904  0.3967
15315TIP3    H267437   5.526   1.036   2.256 -1.9286  2.3006 -0.5595
15316TIP3   OH267438   5.018   1.718   4.332  0.2000 -0.0783 -0.1132
15316TIP3    H167439   5.088   1.754   4.278 -0.7018 -0.0888 -1.3474
15316TIP3    H267440   4.990   1.639   4.285 -1.2487  0.4301 -0.1771
15317TIP3   OH267441   3.811   5.628   2.479 -0.1039  0.1457 -0.1490
15317TIP3    H167442   3.797   5.723   2.478 -2.1880 -0.1014 -1.4200
15317TIP3    H267443   3.835   5.607   2.389  2.2600 -0.3513  0.5386
15318TIP3   OH267444   5.093   3.184   0.211 -0.3079  0.3701  0.0711
15318TIP3    H167445   5.039   3.153   0.284 -0.8265 -0.0770 -0.4862
15318TIP3    H267446   5.057   3.271   0.191 -1.3507 -0.2440 -0.7964
15319TIP3   OH267447   0.891   4.128   5.147 -0.2685 -0.1938  0.0983
15319TIP3    H167448   0.859   4.054   5.198  0.7944 -1.1498 -0.5795
15319TIP3    H267449   0.943   4.179   5.208 -0.7085 -0.1870  0.4747
15320TIP3   OH267450   5.368   2.584  15.918  0.1237 -0.2688 -0.0029
15320TIP3    H167451   5.291   2.635  15.944 -0.8105 -0.9554 -1.3200
15320TIP3    H267452   5.421   2.646  15.868  1.4239  0.7557  2.4515
15321TIP3   OH267453   5.363   1.354  15.014 -0.5025  0.1723 -0.3126
15321TIP3    H167454   5.420   1.297  14.962 -1.7122 -0.5843 -0.8509
15321TIP3    H267455   5.335   1.299  15.087  0.5300  0.9728  0.7104
15322TIP3   OH267456   2.809   3.401   4.241  0.2957 -0.3068 -0.1581
15322TIP3    H167457   2.873   3.343   4.283  0.7598  1.0042  1.0093
15322TIP3    H267458   2.845   3.417   4.154  3.1951  2.6506  1.3576
15323TIP3   OH267459   2.488   3.219  12.198 -0.6775 -0.1926  0.1973
15323TIP3    H167460   2.445   3.216  12.283 -1.4459  0.2983 -0.1696
15323TIP3    H267461   2.451   3.295  12.155 -0.3064 -0.4508 -0.5922
15324TIP3   OH267462   2.079   5.030  15.123  0.4333  0.2736 -0.1643
15324TIP3    H167463   2.056   5.026  15.031 -4.8216  2.6811  0.6960
15324TIP3    H267464   2.111   5.119  15.136 -0.0520  0.3559  0.5201
15325TIP3   OH267465   4.803   5.676   0.448 -0.1366 -0.4702  0.0842
15325TIP3    H167466   4.787   5.757   0.401  0.3795  0.2168  1.0657
15325TIP3    H267467   4.801   5.608   0.381  1.6760  0.5831 -1.1066
15326TIP3   OH267468   2.849   0.028   1.976  0.1649 -0.3919  0.0955
15326TIP3    H167469   2.870   0.117   2.005 -0.2134  1.3090 -4.1742
15326TIP3    H267470   2.934  -0.013   1.963  0.5341  0.8434 -1.7463
15327TIP3   OH267471   2.410   5.932  16.705 -0.3396 -0.0983 -0.4161
15327TIP3    H167472   2.355   5.873  16.654 -0.2014 -2.6821  2.1637
15327TIP3    H267473   2.391   5.911  16.796  2.7923  0.9239  0.6255
15328TIP3   OH267474   3.199   0.318   2.234  0.1332  0.0875  0.0619
15328TIP3    H167475   3.200   0.376   2.157  0.6519 -0.1842 -0.1451
15328TIP3    H267476   3.133   0.253   2.214 -1.1753  1.1707  0.7340
15329TIP3   OH267477   3.999   4.356  11.808 -0.0403 -0.1999  0.1119
15329TIP3    H167478   4.085   4.376  11.771  0.0895  2.4581  1.6405
15329TIP3    H267479   4.008   4.376  11.901 -2.6128  1.3435  0.1099
15330TIP3   OH267480   4.927   1.290   5.889 -0.1219  0.0417  0.1240
15330TIP3    H167481   4.951   1.325   5.803  0.9046 -0.2422  0.2870
15330TIP3    H267482   4.906   1.198   5.873 -0.9360  0.2338  0.0202
15331TIP3   OH267483   2.574   1.057   1.922 -0.2615 -0.2434 -0.4250
15331TIP3    H167484   2.580   1.110   2.001  0.9200 -0.7588 -0.1550
15331TIP3    H267485   2.514   1.106   1.865 -2.0195 -0.4013  1.1881
15332TIP3   OH267486   3.472   3.295   2.617 -0.3110  0.1797 -0.4511
15332TIP3    H167487   3.461   3.305   2.522  0.5319 -0.1224 -0.5947
15332TIP3    H267488   3.558   3.254   2.626  0.3753  1.7295  0.5094
15333TIP3   OH267489   6.492   6.199   2.579 -0.2471  0.8493  0.3314
15333TIP3    H167490   6.414   6.236   2.539 -1.9524 -0.7805  1.9116
15333TIP3    H267491   6.502   6.247   2.661 -1.4503 -0.8310  1.5572
15334TIP3   OH267492   0.487   0.939  11.193  0.1112  0.5974  0.1113
15334TIP3    H167493   0.562   0.996  11.207 -1.5453  3.0831 -0.4926
15334TIP3    H267494   0.433   0.952  11.271 -1.5723  2.0976 -1.2129
15335TIP3   OH267495   2.355   3.663   1.093  0.3454 -0.2881 -0.5275
15335TIP3    H167496   2.260   3.666   1.084  0.4178 -0.2998 -1.3935
15335TIP3    H267497   2.385   3.616   1.015  0.9453 -1.8016  0.5699
15336TIP3   OH267498   0.461   2.366   2.065  0.1655  0.1022  0.4178
15336TIP3    H167499   0.520   2.437   2.091 -0.6793  1.0163 -0.0467
15336TIP3    H267500   0.435   2.389   1.975 -1.1364 -0.0830  0.7245
15337TIP3   OH267501   1.509   6.579  14.446  0.3788  0.1864 -0.0069
15337TIP3    H167502   1.477   6.581  14.356 -0.6231 -1.1284  0.2941
15337TIP3    H267503   1.486   6.666  14.481 -2.7521 -0.5687  0.0978
15338TIP3   OH267504   0.707   6.590   3.829  0.0380  0.3187  0.1327
15338TIP3    H167505   0.636   6.528   3.814 -0.7109  0.7636  1.6303
15338TIP3    H267506   0.767   6.577   3.755 -1.7289  0.1234 -1.3299
15339TIP3   OH267507   4.960   1.660   3.936  0.4013 -0.1439  0.1369
15339TIP3    H167508   4.956   1.610   4.017  0.6135 -0.8136 -0.2624
15339TIP3    H267509   4.869   1.665   3.906  0.5213 -1.5009 -0.5390
15340TIP3   OH267510   0.026   2.076  12.708 -0.5581  0.5773  0.5947
15340TIP3    H167511   0.003   2.149  12.766 -0.3985  1.9771 -1.0291
15340TIP3    H267512   0.114   2.097  12.677 -0.9785  0.3260 -0.8352
15341TIP3   OH267513   4.604   1.249  11.743 -0.5386  0.2500 -0.0259
15341TIP3    H167514   4.650   1.294  11.814 -2.5163  2.3447  0.0373
15341TIP3    H267515   4.634   1.293  11.664 -0.3622 -0.2734 -0.2554
15342TIP3   OH267516   5.681   5.016  11.577 -0.7821 -0.0151 -0.5046
15342TIP3    H167517   5.773   4.995  11.562 -0.8752 -1.1286  0.4334
15342TIP3    H267518   5.661   4.980  11.663 -2.0104  0.5231 -0.5414
15343TIP3   OH267519   1.297   3.753   1.690  0.1651  0.1760 -0.2636
15343TIP3    H167520   1.358   3.684   1.715  0.4648  0.8318  0.8862
15343TIP3    H267521   1.217   3.706   1.664  0.5124 -0.6182  0.0803
15344TIP3   OH267522   3.396   4.154  12.355 -0.2998  0.3943  0.0191
15344TIP3    H167523   3.415   4.137  12.263  1.8839  0.2127  0.4498
15344TIP3    H267524   3.300   4.154  12.360 -0.4956 -1.7783 -1.8530
15345TIP3   OH267525   4.631   6.193  13.042  0.1912  0.0447 -0.2301
15345TIP3    H167526   4.665   6.255  13.106  1.0393  1.1718 -1.6942
15345TIP3    H267527   4.537   6.214  13.036  0.3183  0.6677 -0.1263
15346TIP3   OH267528   5.925   5.751   5.966 -0.5739 -0.1873 -0.4766
15346TIP3    H167529   6.018   5.734   5.952 -0.6478 -0.9669 -0.0893
15346TIP3    H267530   5.922   5.809   6.042 -0.3767  0.5031 -0.9835
15347TIP3   OH267531   3.650   6.055  13.223  0.0622  0.1331 -0.1399
15347TIP3    H167532   3.688   6.138  13.249 -0.4537  1.1102 -2.2707
15347TIP3    H267533   3.726   5.998  13.205  0.4263  0.4870  0.2579
15348TIP3   OH267534   6.538   1.630   0.313  0.4719 -0.3211  0.1239
15348TIP3    H167535   6.450   1.593   0.314  0.4316 -0.2841 -0.8665
15348TIP3    H267536   6.526   1.722   0.291  0.5064  0.5552  3.3872
15349TIP3   OH267537   2.125   5.673  13.639 -0.4362 -0.3244  0.4041
15349TIP3    H167538   2.156   5.708  13.555 -2.8343  0.5504 -0.2065
15349TIP3    H267539   2.200   5.680  13.697  2.2552 -3.5154 -2.2609
15350TIP3   OH267540   0.636   6.678  13.241  0.6304 -0.6605  0.3205
15350TIP3    H167541   0.731   6.678  13.234  0.8189  1.8456  1.9082
15350TIP3    H267542   0.605   6.704  13.154  1.4763  0.0864  0.2348
15351TIP3   OH267543   3.121   3.016   1.002  0.6593  0.3912 -0.2767
15351TIP3    H167544   3.056   3.084   0.986 -1.1150 -1.1284  0.2167
15351TIP3    H267545   3.105   2.988   1.092 -1.6873 -3.6654 -1.7239
15352TIP3   OH267546   3.299   2.349  11.368  0.0389  0.0295 -0.1452
15352TIP3    H167547   3.296   2.278  11.305  2.3037 -0.9167  0.7355
15352TIP3    H267548   3.390   2.377  11.370 -0.5972  2.3482  0.2472
15353TIP3   OH267549   3.624   3.626  12.284  0.0796 -0.0556 -0.3001
15353TIP3    H167550   3.554   3.639  12.219 -0.3948  1.1783  0.4315
15353TIP3    H267551   3.704   3.647  12.236 -0.4371  3.4311  0.0857
15354TIP3   OH267552   3.850   2.569   0.082 -0.4164 -0.6057  0.5552
15354TIP3    H167553   3.921   2.591   0.142  0.4228 -0.2630 -0.5381
15354TIP3    H267554   3.854   2.474   0.074 -0.1036 -0.5890  0.5184
15355TIP3   OH267555   1.841   2.656   2.585 -0.3022 -0.1463 -1.0283
15355TIP3    H167556   1.751   2.634   2.561 -0.9744  0.2904  0.8930
15355TIP3    H267557   1.860   2.736   2.536 -2.2513  1.7336  1.0521
15356TIP3   OH267558   1.604   2.782  15.494  0.4490 -0.3416 -0.0343
15356TIP3    H167559   1.652   2.863  15.509  0.3878 -0.6482  2.2747
15356TIP3    H267560   1.667   2.713  15.515  0.1499 -0.8622 -0.8160
15357TIP3   OH267561   5.519   2.405  16.121 -0.2719  0.6216 -0.0738
15357TIP3    H167562   5.589   2.470  16.112 -0.3761  0.5274 -1.8541
15357TIP3    H267563   5.446   2.442  16.072 -0.0840 -1.1519 -1.8151
15358TIP3   OH267564   3.521   0.653  12.574 -0.1863 -0.5035  0.1421
15358TIP3    H167565   3.479   0.739  12.564 -1.0026 -0.6110  2.1738
15358TIP3    H267566   3.603   0.661  12.526 -0.0157  1.5940  0.6651
15359TIP3   OH267567   4.507   2.829  12.467 -0.3434  0.1544 -0.4647
15359TIP3    H167568   4.535   2.911  12.427  0.3248  0.3329  0.3318
15359TIP3    H267569   4.588   2.777  12.475 -0.5486 -0.0826  0.1545
15360TIP3   OH267570   3.595   2.738   4.982 -0.3631 -0.4113 -0.1550
15360TIP3    H167571   3.562   2.800   5.047  1.0413 -1.2977  1.5141
15360TIP3    H267572   3.522   2.679   4.966 -0.6229 -0.4130  0.9420
15361TIP3   OH267573   5.891   3.031  12.176 -0.2892 -0.2918  0.5220
15361TIP3    H167574   5.839   3.083  12.115 -2.0496 -2.7836 -0.2296
15361TIP3    H267575   5.980   3.065  12.167 -1.1597  1.8773 -0.6162
15362TIP3   OH267576   3.474   4.765  14.444 -0.4440  0.8758 -0.4136
15362TIP3    H167577   3.421   4.801  14.515 -2.7827 -2.4811 -0.2541
15362TIP3    H267578   3.430   4.793  14.364 -0.0325  1.4515 -0.4498
15363TIP3   OH267579   0.626   2.116   5.432 -0.1633 -0.1221  0.5847
15363TIP3    H167580   0.580   2.112   5.348 -1.5389  2.0622  1.1610
15363TIP3    H267581   0.611   2.030   5.472  0.2485 -1.0793 -1.2114
15364TIP3   OH267582   2.732   4.730   3.952  0.1593  0.7737  0.0406
15364TIP3    H167583   2.678   4.807   3.971  0.3152  1.1026 -0.8146
15364TIP3    H267584   2.671   4.665   3.920  0.1208  0.7854  0.0908
15365TIP3   OH267585   0.936   5.353  12.569  0.1146  0.3714  0.2965
15365TIP3    H167586   0.959   5.282  12.630  0.2093  1.3663  1.4509
15365TIP3    H267587   0.846   5.375  12.591  0.0016  0.4408 -0.2309
15366TIP3   OH267588   0.874   0.972   2.652 -0.2839 -0.0795  0.2031
15366TIP3    H167589   0.930   0.895   2.661  0.1871  0.3353  0.9411
15366TIP3    H267590   0.919   1.027   2.588 -1.9638 -1.5595 -2.4249
15367TIP3   OH267591   4.145   4.226   3.855  0.3572 -0.1194  0.1051
15367TIP3    H167592   4.175   4.195   3.769 -2.7109 -2.0878 -0.3757
15367TIP3    H267593   4.150   4.322   3.848  0.9072 -0.2464 -1.9789
15368TIP3   OH267594   3.704   1.313   0.471  0.1299 -0.3479 -0.5277
15368TIP3    H167595   3.666   1.252   0.534  0.2901 -1.0308 -1.0825
15368TIP3    H267596   3.732   1.388   0.524 -1.6805  0.0472 -0.0641
15369TIP3   OH267597   6.620   3.640   3.074  0.1451  0.0639  0.3488
15369TIP3    H167598   6.573   3.562   3.048  1.1512 -0.2910 -0.4582
15369TIP3    H267599   6.582   3.711   3.022 -0.2947 -0.0065  0.5753
15370TIP3   OH267600   0.850   2.513   1.666 -0.8130 -0.4052  0.0681
15370TIP3    H167601   0.899   2.533   1.587  0.3343 -0.3080  0.7697
15370TIP3    H267602   0.821   2.598   1.699 -0.8203 -0.3941  0.0325
15371TIP3   OH267603   4.735   2.298   3.130  0.7321  0.1594  0.1781
15371TIP3    H167604   4.673   2.293   3.057  0.1172 -2.1252  0.7852
15371TIP3    H267605   4.821   2.294   3.088  0.3871 -1.4976 -0.4453
15372TIP3   OH267606   5.902   2.700  11.253 -0.0133  0.3414 -0.3514
15372TIP3    H167607   5.858   2.672  11.173 -1.9175 -0.0904  0.7674
15372TIP3    H267608   5.925   2.618  11.298 -1.0503  0.5265  0.5762
15373TIP3   OH267609   6.095   1.291  17.234  0.3470  0.0988  0.0057
15373TIP3    H167610   6.056   1.220  17.184  0.4133  0.6436 -0.8368
15373TIP3    H267611   6.171   1.252  17.278  1.3661  0.0228 -1.7558
15374TIP3   OH267612   4.655   1.452   0.452 -0.3586  0.1705  0.1282
15374TIP3    H167613   4.594   1.492   0.390  1.0394 -0.1989 -1.5878
15374TIP3    H267614   4.616   1.368   0.474 -1.0227  0.4324 -0.0350
15375TIP3   OH267615   0.809   3.506   1.253  0.2393 -0.0191 -0.2477
15375TIP3    H167616   0.830   3.435   1.314 -0.6755  0.0240  0.1424
15375TIP3    H267617   0.796   3.463   1.169 -0.0740 -0.2962 -0.0619
15376TIP3   OH267618   0.638   4.252  12.930 -0.2167 -0.4018 -0.5655
15376TIP3    H167619   0.642   4.157  12.943 -1.2803 -0.0516  3.4602
15376TIP3    H267620   0.553   4.266  12.888  0.8796 -1.2672 -3.2960
15377TIP3   OH267621   2.613   0.480   5.562  0.1415 -0.3553  0.5327
15377TIP3    H167622   2.621   0.504   5.469  0.1074  0.1504  0.6597
15377TIP3    H267623   2.546   0.412   5.563 -0.4226  0.1900  0.2813
15378TIP3   OH267624   1.159   3.875  13.598  0.4803  0.5021  0.1530
15378TIP3    H167625   1.095   3.839  13.536  0.7452  1.9810 -1.0317
15378TIP3    H267626   1.131   3.965  13.612 -0.7145 -0.2659  3.7857
15379TIP3   OH267627   1.810   4.209  12.652  0.4138 -0.1894 -0.1434
15379TIP3    H167628   1.796   4.206  12.558 -1.2898 -0.2463  0.0798
15379TIP3    H267629   1.734   4.164  12.689  2.4018 -2.7217  1.1833
15380TIP3   OH267630   0.635   6.283  17.055  0.3700 -0.5137 -0.3459
15380TIP3    H167631   0.684   6.201  17.043 -2.8206 -3.1792  2.5311
15380TIP3    H267632   0.580   6.289  16.977  1.2146 -0.6145 -0.9681
15381TIP3   OH267633   0.311   2.070   6.008 -0.3930  0.0271 -0.2428
15381TIP3    H167634   0.387   2.057   5.951 -0.9562  0.2316 -1.0603
15381TIP3    H267635   0.330   2.152   6.054  1.4717 -1.6415  2.2034
15382TIP3   OH267636   1.827   0.942  12.889 -0.3263  0.2491  0.2380
15382TIP3    H167637   1.746   0.897  12.863  0.5969 -0.7280 -1.0561
15382TIP3    H267638   1.847   0.999  12.814 -0.0294  0.8079  0.7377
15383TIP3   OH267639   3.977   3.210   5.470 -0.3512  0.0767 -0.0355
15383TIP3    H167640   3.906   3.147   5.481 -0.2003 -0.2369 -0.7945
15383TIP3    H267641   3.957   3.280   5.531 -0.4380 -0.7842  0.9455
15384TIP3   OH267642   2.687   0.878   5.480  0.1249 -0.5137  0.3612
15384TIP3    H167643   2.761   0.930   5.450 -0.8180  0.4294 -0.3843
15384TIP3    H267644   2.716   0.844   5.565  1.8114 -1.0632 -0.3830
15385TIP3   OH267645   4.384   6.291   0.316  0.4305  0.4073 -0.6791
15385TIP3    H167646   4.298   6.268   0.281  0.2001 -1.8303  1.1651
15385TIP3    H267647   4.444   6.271   0.244 -0.3930  0.2586 -1.3488
15386TIP3   OH267648   5.648   5.426  13.315  0.6734  0.5008 -0.1726
15386TIP3    H167649   5.683   5.494  13.257  1.7748  1.2877  1.3374
15386TIP3    H267650   5.562   5.458  13.341 -0.2105 -0.2675 -1.9826
15387TIP3   OH267651   3.529   3.436   5.649  0.1475  0.2719  0.4889
15387TIP3    H167652   3.506   3.344   5.654  1.4847 -0.2719 -1.6390
15387TIP3    H267653   3.487   3.477   5.724  0.8025 -2.3366  2.3961
15388TIP3   OH267654   6.550   5.527  16.114  0.4752 -0.8272 -0.3406
15388TIP3    H167655   6.597   5.576  16.047 -1.0742  0.3820 -0.6117
15388TIP3    H267656   6.476   5.584  16.138 -0.2134 -2.1482  0.8591
15389TIP3   OH267657   1.788   5.881   4.359  0.0530  0.1911  0.0060
15389TIP3    H167658   1.750   5.866   4.272 -0.0999  3.0828 -0.5201
15389TIP3    H267659   1.713   5.894   4.416  0.1791 -0.4739  0.3303
15390TIP3   OH267660   6.496   3.449   1.345  0.1475  0.0768 -0.4364
15390TIP3    H167661   6.469   3.456   1.254 -1.2030  2.1144  0.0552
15390TIP3    H267662   6.439   3.510   1.392 -1.4943 -3.2597  2.3227
15391TIP3   OH267663   5.040   4.732  12.055  0.4074 -0.0411  0.1516
15391TIP3    H167664   4.950   4.720  12.085  0.8231  0.5387  1.7239
15391TIP3    H267665   5.053   4.827  12.055  1.1347 -0.1333  0.3184
15392TIP3   OH267666   0.045   4.805   0.169  0.3653  0.4919 -0.8706
15392TIP3    H167667  -0.021   4.812   0.100  0.2299 -0.1113 -0.8111
15392TIP3    H267668   0.107   4.740   0.137  1.8759  2.2266 -1.6704
15393TIP3   OH267669   6.592   3.836   0.504 -0.1689 -0.4081  0.7980
15393TIP3    H167670   6.660   3.769   0.497  0.3585  0.1268  0.6688
15393TIP3    H267671   6.589   3.858   0.597 -0.0785 -0.3525  0.7885
15394TIP3   OH267672   2.896   3.611  10.868 -0.5783 -0.0189  0.2574
15394TIP3    H167673   2.967   3.668  10.838 -1.2581  0.0949 -1.2370
15394TIP3    H267674   2.855   3.580  10.787 -1.7313 -0.7107  1.0811
15395TIP3   OH267675   6.238   6.135   3.543 -0.2813  0.2441  0.4009
15395TIP3    H167676   6.254   6.187   3.464  2.4659 -1.8837 -0.5831
15395TIP3    H267677   6.307   6.160   3.603  0.0910 -1.0324  0.5390
15396TIP3   OH267678   2.605   5.602  15.742 -0.2011  0.0202  0.1430
15396TIP3    H167679   2.696   5.600  15.772  0.0480  0.1883 -0.5786
15396TIP3    H267680   2.556   5.639  15.815  0.2545 -0.4092  0.6738
15397TIP3   OH267681   2.224   2.085  13.117  0.1693 -0.1439  0.5796
15397TIP3    H167682   2.209   2.085  13.212 -0.3526 -0.4185  0.4996
15397TIP3    H267683   2.231   2.178  13.094 -0.4685 -0.0484  0.7675
15398TIP3   OH267684   2.950   6.266  13.174 -0.5535  0.1194  0.2188
15398TIP3    H167685   2.907   6.221  13.247 -1.2603 -2.1453 -1.4821
15398TIP3    H267686   2.878   6.312  13.130 -0.3383  0.4521  0.2113
15399TIP3   OH267687   5.527   4.448  15.434  0.4493  0.3888  0.0173
15399TIP3    H167688   5.509   4.467  15.526  1.0046 -0.5629  0.3302
15399TIP3    H267689   5.536   4.534  15.394 -2.0747  0.8871  0.3677
15400TIP3   OH267690   0.739   6.095   2.535 -0.0030 -0.1249 -0.0960
15400TIP3    H167691   0.753   6.183   2.499 -0.9056  0.1590  0.2160
15400TIP3    H267692   0.793   6.093   2.614  0.0672  0.1229 -0.1347
15401TIP3   OH267693   0.683   4.046  15.231  0.1695 -0.0723  0.1982
15401TIP3    H167694   0.648   4.050  15.320  1.8211 -0.8923  0.9248
15401TIP3    H267695   0.777   4.058  15.242  0.6250 -1.9147 -1.2505
15402TIP3   OH267696   5.017   2.431   2.686 -0.1881 -0.1797 -0.0645
15402TIP3    H167697   4.972   2.353   2.717 -3.1188  0.8628 -1.3833
15402TIP3    H267698   5.012   2.426   2.590  0.1277  1.3132 -0.1910
15403TIP3   OH267699   5.783   2.925  15.362  0.4137 -0.3136  0.1316
15403TIP3    H167700   5.793   2.832  15.342 -0.2278 -0.6538  1.3256
15403TIP3    H267701   5.842   2.941  15.436 -1.3784 -0.3845  1.6206
15404TIP3   OH267702   5.948   2.619   0.098  0.4798 -0.6366  0.0980
15404TIP3    H167703   5.862   2.588   0.126  0.0690 -1.3286 -1.8430
15404TIP3    H267704   5.941   2.715   0.101 -0.2964 -0.6905  0.0961
15405TIP3   OH267705   1.353   5.755   2.634 -0.0020  0.0268 -1.5157
15405TIP3    H167706   1.435   5.750   2.584  0.1998 -0.2463 -1.1616
15405TIP3    H267707   1.348   5.845   2.664  1.2754 -0.4515  0.2915
15406TIP3   OH267708   0.215   5.839  11.309  0.0169  0.2437  0.0375
15406TIP3    H167709   0.206   5.901  11.382 -0.2751  1.5522 -1.0559
15406TIP3    H267710   0.218   5.753  11.350  0.6457  0.9893  1.6377
15407TIP3   OH267711   3.443   4.709  11.070 -0.3637  0.1060  0.2152
15407TIP3    H167712   3.369   4.717  11.131 -0.5590  0.3421 -0.0503
15407TIP3    H267713   3.449   4.796  11.029 -0.7445 -0.2939 -0.7003
15408TIP3   OH267714   4.899   6.510  16.246  0.3367 -0.0635 -0.5640
15408TIP3    H167715   4.831   6.493  16.312  0.8885  0.4344  0.1489
15408TIP3    H267716   4.865   6.469  16.166  0.2379 -1.8393  0.3224
15409TIP3   OH267717   6.748   6.772   2.636 -0.1570 -0.3537  0.5883
15409TIP3    H167718   6.777   6.830   2.565  1.1037 -1.8357 -0.1566
15409TIP3    H267719   6.802   6.797   2.711 -0.2437  0.0265  0.5262
15410TIP3   OH267720   0.164   2.567   0.228  0.7321 -0.4429 -0.0901
15410TIP3    H167721   0.143   2.651   0.267 -0.0328 -1.4033  1.6627
15410TIP3    H267722   0.141   2.577   0.135 -0.9482  0.7546  0.4172
15411TIP3   OH267723   3.022   4.358  16.257 -0.7600  0.5253 -0.0941
15411TIP3    H167724   3.080   4.283  16.267 -1.6885 -0.0034  1.8423
15411TIP3    H267725   3.077   4.434  16.278 -0.7592  0.0038  2.0583
15412TIP3   OH267726   1.303   6.291   5.124  0.2752 -0.2736 -0.1652
15412TIP3    H167727   1.371   6.318   5.186  1.8468 -2.4278 -0.8275
15412TIP3    H267728   1.262   6.215   5.165  0.2249 -0.7254 -1.0361
15413TIP3   OH267729   1.941   6.476   6.526 -0.6959 -0.3138  0.4058
15413TIP3    H167730   1.979   6.408   6.471 -1.0247  0.0137 -0.2381
15413TIP3    H267731   2.014   6.508   6.579 -0.6390 -1.4888  1.0718
15414TIP3   OH267732   2.278   4.519   4.577  0.2029  0.4062 -0.6495
15414TIP3    H167733   2.343   4.486   4.639  0.5346  0.6306 -0.8732
15414TIP3    H267734   2.194   4.509   4.623  0.4267  0.4242 -0.2259
15415TIP3   OH267735   4.666   5.309   5.635 -0.1001 -0.1253  0.4174
15415TIP3    H167736   4.599   5.325   5.701 -1.8282 -0.3982 -1.1778
15415TIP3    H267737   4.675   5.393   5.590  0.6542 -0.0881  0.6267
15416TIP3   OH267738   3.849   5.585  14.928 -0.1705  0.0983 -0.0731
15416TIP3    H167739   3.878   5.522  14.863 -0.2112 -0.5274  0.5108
15416TIP3    H267740   3.910   5.575  15.001 -1.0156 -0.2775  0.6061
15417TIP3   OH267741   1.815   3.986  15.498  0.1817  0.0936  0.6589
15417TIP3    H167742   1.909   3.979  15.485  0.0341 -0.3696 -0.1840
15417TIP3    H267743   1.792   4.074  15.467 -0.2047 -1.0643 -2.6760
15418TIP3   OH267744   6.734   5.893   5.081  0.0981 -0.8023 -0.3686
15418TIP3    H167745   6.673   5.966   5.094  0.6129 -0.5824  0.9790
15418TIP3    H267746   6.777   5.912   4.997  0.7774  0.8759  0.3168
15419TIP3   OH267747   1.593   3.331  13.291 -0.4213 -0.3426 -0.3425
15419TIP3    H167748   1.569   3.285  13.372  1.8773  0.2381  0.7358
15419TIP3    H267749   1.562   3.420  13.304  0.1312 -0.1977 -0.0022
15420TIP3   OH267750   1.233   3.815  14.986 -0.4809 -0.2734 -0.2401
15420TIP3    H167751   1.268   3.889  15.035 -0.8547  0.9932 -1.8275
15420TIP3    H267752   1.138   3.823  14.996 -0.5271 -0.4653 -0.5180
15421TIP3   OH267753   0.592   3.181   0.657 -0.3623  0.6050  0.3114
15421TIP3    H167754   0.637   3.152   0.736 -2.1105 -0.3425  1.0141
15421TIP3    H267755   0.593   3.104   0.599 -1.5347  0.3574  0.5792
15422TIP3   OH267756   5.998   6.190   5.585  0.1702  0.0182  0.3229
15422TIP3    H167757   5.938   6.261   5.607  1.7978  2.2756 -1.9730
15422TIP3    H267758   5.964   6.154   5.503  1.1591  0.4212 -0.2822
15423TIP3   OH267759   6.154   0.518   4.918  0.0531 -0.4630 -0.9475
15423TIP3    H167760   6.077   0.551   4.962  0.5912  0.8622 -0.9732
15423TIP3    H267761   6.216   0.499   4.988 -0.9711 -3.5778 -0.7210
15424TIP3   OH267762   1.799   3.555  13.098 -0.6690 -0.1102  0.4637
15424TIP3    H167763   1.706   3.553  13.077 -0.9681  0.9870  1.5247
15424TIP3    H267764   1.832   3.470  13.071 -2.6739 -1.8628  3.0151
15425TIP3   OH267765   5.733   3.461  17.166 -0.2230 -0.4513 -0.6831
15425TIP3    H167766   5.773   3.542  17.196  0.8093 -0.4386 -1.9777
15425TIP3    H267767   5.695   3.422  17.245 -1.6542  1.7474 -0.1982
15426TIP3   OH267768   2.828   5.281  15.874 -0.6537 -0.3049 -0.0217
15426TIP3    H167769   2.775   5.283  15.954  0.2440  1.1690  0.5743
15426TIP3    H267770   2.827   5.371  15.843  1.9198 -0.1038  0.3151
15427TIP3   OH267771   4.767   6.545  16.687 -0.1882  0.4811  0.1841
15427TIP3    H167772   4.684   6.499  16.690  0.2251 -0.3243 -0.3517
15427TIP3    H267773   4.756   6.611  16.619 -0.3706  0.3457  0.0833
15428TIP3   OH267774   1.456   4.858  12.759  0.6955 -0.2824 -0.1323
15428TIP3    H167775   1.550   4.860  12.773  0.5275 -0.8149  1.1722
15428TIP3    H267776   1.420   4.915  12.828 -0.0117 -1.1594  0.2503
15429TIP3   OH267777   5.024   3.043   1.733  0.4256 -0.2745 -0.0421
15429TIP3    H167778   5.091   3.095   1.778  0.5054  0.9648 -1.5177
15429TIP3    H267779   4.959   3.024   1.801  0.9449  0.8246  0.7919
15430TIP3   OH267780   4.514   2.323  13.051 -0.2152  0.2907 -0.1910
15430TIP3    H167781   4.539   2.249  12.995  0.5512 -0.8767  1.5869
15430TIP3    H267782   4.478   2.282  13.129 -2.8320  1.8876 -0.4503
15431TIP3   OH267783   2.688   1.405  17.082  0.6134  0.1818 -0.7974
15431TIP3    H167784   2.634   1.479  17.110 -0.8841 -0.7132 -1.1921
15431TIP3    H267785   2.773   1.420  17.124  0.1999  1.8499 -0.4737
15432TIP3   OH267786   1.287   4.561   4.340 -0.2985  0.0033 -0.6601
15432TIP3    H167787   1.214   4.564   4.278 -0.4594  1.1544 -0.4255
15432TIP3    H267788   1.252   4.597   4.421  0.8689  1.9199 -0.9355
15433TIP3   OH267789   4.360   3.145  12.370  0.0386 -0.0503 -0.3346
15433TIP3    H167790   4.346   3.107  12.456  1.6453 -2.6439 -1.0993
15433TIP3    H267791   4.451   3.174  12.371  0.0567 -0.0556 -1.1387
15434TIP3   OH267792   5.364   3.864  13.231  0.2336  0.6333 -0.6979
15434TIP3    H167793   5.381   3.772  13.210 -1.3241  0.5443 -1.6972
15434TIP3    H267794   5.386   3.911  13.151 -1.9606  0.7421 -1.2984
15435TIP3   OH267795   4.770   2.177   1.314  0.3575 -0.2307  0.0600
15435TIP3    H167796   4.863   2.164   1.332  0.1867 -1.9229 -0.1173
15435TIP3    H267797   4.748   2.258   1.361  1.4644 -0.8497  1.7338
15436TIP3   OH267798   2.065   0.573   3.835 -0.5353 -0.0927  0.3713
15436TIP3    H167799   2.148   0.534   3.810 -0.0526  0.7069  0.6874
15436TIP3    H267800   2.062   0.565   3.931 -1.2368 -0.9289  0.2834
15437TIP3   OH267801   6.515   6.695  11.421 -0.5421 -0.0149  0.3499
15437TIP3    H167802   6.602   6.706  11.383 -0.1058 -3.6042 -0.0214
15437TIP3    H267803   6.464   6.654  11.351 -1.7135 -0.5322  1.4847
15438TIP3   OH267804   3.635   1.529   6.077 -0.5358  0.3101 -0.1357
15438TIP3    H167805   3.730   1.532   6.090 -0.7799  1.2231  1.8594
15438TIP3    H267806   3.605   1.617   6.100 -1.9243 -0.1099 -0.2478
15439TIP3   OH267807   3.146   0.709   4.024 -0.3159  0.0149 -0.0325
15439TIP3    H167808   3.071   0.723   3.967 -0.1477 -0.9671 -0.5127
15439TIP3    H267809   3.195   0.637   3.983  0.9323  0.6886  0.2248
15440TIP3   OH267810   6.624   5.623   5.480  0.1260 -0.0253 -0.6235
15440TIP3    H167811   6.557   5.677   5.522  0.8994 -0.7900  1.7877
15440TIP3    H267812   6.640   5.665   5.396 -1.3538  1.7953 -0.0645
15441TIP3   OH267813   3.068   6.561  15.560  0.4862 -0.0940  0.4397
15441TIP3    H167814   3.143   6.572  15.618 -0.0946  1.7938  0.8992
15441TIP3    H267815   3.096   6.600  15.477  0.3205 -0.1850  0.3403
15442TIP3   OH267816   0.784   6.569   2.183 -0.0389  0.3991  0.1379
15442TIP3    H167817   0.761   6.487   2.138 -3.6216  0.5050  1.4557
15442TIP3    H267818   0.807   6.629   2.112 -0.5172 -0.8452 -1.1267
15443TIP3   OH267819   4.833   3.468   1.671  0.4156 -0.2368 -0.0981
15443TIP3    H167820   4.749   3.424   1.684  0.5686 -0.0210  1.8711
15443TIP3    H267821   4.883   3.408   1.615 -1.1050 -0.2524 -1.5173
15444TIP3   OH267822   4.518   3.489  13.157 -0.0677 -0.0821 -0.0692
15444TIP3    H167823   4.552   3.442  13.234 -0.5860  0.3595  0.4401
15444TIP3    H267824   4.427   3.462  13.151 -0.1479  0.2253 -0.2591
15445TIP3   OH267825   2.060   4.062   6.297 -0.4022  0.0800  0.0480
15445TIP3    H167826   2.054   4.064   6.202 -1.6966  0.3334  0.1167
15445TIP3    H267827   2.145   4.021   6.315 -0.1461  0.0213 -1.2027
15446TIP3   OH267828   0.906   1.993  16.303 -0.4326 -0.1274 -0.2382
15446TIP3    H167829   0.885   1.931  16.373  0.3948 -0.0601  0.0855
15446TIP3    H267830   0.887   1.947  16.222 -1.1107 -0.3173  0.0268
15447TIP3   OH267831   0.754   1.474   1.280 -0.3405 -0.0051 -0.3872
15447TIP3    H167832   0.743   1.427   1.197 -0.0466 -0.4850 -0.1560
15447TIP3    H267833   0.670   1.519   1.293  0.5162  2.3105 -2.3064
15448TIP3   OH267834   3.935   2.415   2.203 -0.2989 -0.2340  0.4575
15448TIP3    H167835   3.898   2.447   2.121 -4.1099  1.7947  2.6738
15448TIP3    H267836   3.876   2.345   2.230  0.6175 -0.5687  1.6790
15449TIP3   OH267837   1.842   2.268  13.447 -0.0503 -0.5760  0.0964
15449TIP3    H167838   1.763   2.314  13.475  0.1504  0.2720 -0.6816
15449TIP3    H267839   1.906   2.287  13.514 -0.4384 -1.0861  0.6204
15450TIP3   OH267840   3.602   1.731   2.346  0.3061 -0.6545  0.1220
15450TIP3    H167841   3.649   1.798   2.396  0.6240 -1.2685  0.6690
15450TIP3    H267842   3.515   1.767   2.333 -0.0525 -0.8057  1.8432
15451TIP3   OH267843   0.688   5.351   4.626 -0.1796 -0.6087  0.5487
15451TIP3    H167844   0.782   5.333   4.621 -0.2810 -1.2317  0.8881
15451TIP3    H267845   0.675   5.383   4.715 -0.6336 -2.6119  1.2567
15452TIP3   OH267846   2.577   4.605  17.233 -1.0077  0.8047 -0.1692
15452TIP3    H167847   2.548   4.522  17.271 -0.3756 -0.1256 -1.5957
15452TIP3    H267848   2.657   4.627  17.281 -0.4502 -0.1307 -0.6264
15453TIP3   OH267849   1.701   1.335  12.480 -0.5368  0.4025 -0.5665
15453TIP3    H167850   1.662   1.247  12.482  1.1381 -0.3816  0.0817
15453TIP3    H267851   1.795   1.319  12.475 -0.2531  2.2001 -1.8722
15454TIP3   OH267852   2.607   3.822  14.417 -0.0731  0.5938  0.1337
15454TIP3    H167853   2.615   3.917  14.411 -0.7145  0.6235 -0.3948
15454TIP3    H267854   2.568   3.796  14.334 -0.6505 -0.0392  0.5852
15455TIP3   OH267855   1.784   1.307   4.795  0.1085 -0.4124 -0.2753
15455TIP3    H167856   1.730   1.285   4.719  2.0725 -1.3709 -1.5110
15455TIP3    H267857   1.859   1.248   4.788  0.2288 -0.7368  2.6273
15456TIP3   OH267858   1.714   6.390  12.418 -0.1302  0.0048  0.2027
15456TIP3    H167859   1.635   6.438  12.393 -0.7829 -0.5034  1.2143
15456TIP3    H267860   1.782   6.424  12.360 -0.6910  1.7169  0.4793
15457TIP3   OH267861   6.299   1.111   5.308  0.2143  0.4894 -0.2221
15457TIP3    H167862   6.255   1.196   5.314  1.0753  0.9446 -0.1017
15457TIP3    H267863   6.249   1.063   5.242  0.3333  1.4922 -1.0693
15458TIP3   OH267864   2.182   4.119  15.702 -0.3291  0.5019  0.2736
15458TIP3    H167865   2.112   4.095  15.763 -1.5010  3.2953  0.1723
15458TIP3    H267866   2.224   4.194  15.742 -0.4727  1.7928 -1.8209
15459TIP3   OH267867   1.775   4.914   0.429 -0.4502  0.0781 -0.2921
15459TIP3    H167868   1.869   4.898   0.423 -0.6365 -1.7095  0.9016
15459TIP3    H267869   1.766   4.970   0.507 -0.2721  1.8057 -1.4436
15460TIP3   OH267870   2.753   3.961  16.650 -0.5120 -0.6398 -0.2093
15460TIP3    H167871   2.728   4.029  16.587  0.1700 -0.6438 -0.4939
15460TIP3    H267872   2.670   3.927  16.683 -0.8761  1.7049  1.4770
15461TIP3   OH267873   4.257   0.995  15.788 -0.6487 -0.4245  0.3081
15461TIP3    H167874   4.189   1.048  15.748  0.5317 -0.5836 -2.1303
15461TIP3    H267875   4.299   1.052  15.851 -2.2293  0.0475  0.9795
15462TIP3   OH267876   0.803   4.192  14.546 -0.0596  0.0994  0.6583
15462TIP3    H167877   0.727   4.196  14.604 -2.4086 -0.2487 -2.1194
15462TIP3    H267878   0.839   4.281  14.547 -1.9488  0.9156  0.3790
15463TIP3   OH267879   4.083   3.182   3.780 -0.8093  0.0142  0.2124
15463TIP3    H167880   4.052   3.192   3.870 -1.1234 -2.6111  0.4791
15463TIP3    H267881   4.009   3.210   3.726 -0.6134  1.6264  0.7372
15464TIP3   OH267882   5.403   1.741   5.355 -0.1409 -0.1483  0.1561
15464TIP3    H167883   5.361   1.680   5.295  0.8107  0.6761 -1.3913
15464TIP3    H267884   5.496   1.737   5.333 -0.0897  2.1596 -0.2965
15465TIP3   OH267885   1.869   6.391  11.851  0.1902 -0.0159  0.4447
15465TIP3    H167886   1.851   6.417  11.941  0.9010  0.7860  0.3762
15465TIP3    H267887   1.950   6.340  11.856  1.8562  2.3836  0.0018
15466TIP3   OH267888   6.440   3.201  14.739  0.1333 -0.2238 -0.7504
15466TIP3    H167889   6.438   3.157  14.824  1.1677 -0.7329 -0.9783
15466TIP3    H267890   6.461   3.292  14.760 -1.0747 -0.0051 -0.3602
15467TIP3   OH267891   3.391   4.053  12.613  0.6029  0.2728  0.0345
15467TIP3    H167892   3.421   4.071  12.524 -0.0120  0.2026 -0.1866
15467TIP3    H267893   3.469   4.018  12.657  0.4869 -1.3689 -0.9640
15468TIP3   OH267894   6.431   4.111  11.521 -0.6571  0.3940  0.1582
15468TIP3    H167895   6.382   4.191  11.505 -1.0697  0.3583  1.2277
15468TIP3    H267896   6.503   4.115  11.458 -0.1994  1.9932  0.7416
15469TIP3   OH267897   1.835   3.530  11.446 -0.2760 -0.2974 -0.7836
15469TIP3    H167898   1.852   3.494  11.359  1.1050  1.1819 -1.1809
15469TIP3    H267899   1.877   3.616  11.444 -2.1123  0.6903  0.6273
15470TIP3   OH267900   3.242   2.261   3.127 -0.0055  0.0115 -0.4954
15470TIP3    H167901   3.311   2.319   3.161  0.8721 -1.3322  0.1389
15470TIP3    H267902   3.178   2.320   3.088  0.1647  1.5054  1.3169
15471TIP3   OH267903   0.538   6.469   4.131  0.9606 -0.3138 -0.0948
15471TIP3    H167904   0.541   6.375   4.112 -0.4335 -0.0471 -1.8992
15471TIP3    H267905   0.449   6.496   4.107  0.8552  1.2245  1.7685
15472TIP3   OH267906   4.711   1.016  15.469  0.6586  0.6042  0.2415
15472TIP3    H167907   4.639   0.957  15.490  1.3918 -0.4438 -0.0717
15472TIP3    H267908   4.762   1.022  15.550  0.8414  0.4249  0.1406
15473TIP3   OH267909   6.755   4.884   1.398  0.1285 -0.1347  0.1961
15473TIP3    H167910   6.738   4.892   1.304 -0.2706 -1.1424  0.1742
15473TIP3    H267911   6.848   4.905   1.407  0.0465  0.4970 -0.3505
15474TIP3   OH267912   6.387   2.837  11.660  0.1191 -0.3182  0.3335
15474TIP3    H167913   6.373   2.761  11.716  0.0381 -0.8019 -0.3388
15474TIP3    H267914   6.331   2.822  11.584  1.0469 -0.2014 -0.3923
15475TIP3   OH267915   5.694   0.793   3.552 -0.1054 -0.1553  0.1301
15475TIP3    H167916   5.770   0.825   3.504  0.2360  3.1033  2.5716
15475TIP3    H267917   5.730   0.760   3.635 -1.2780  2.5402  1.8399
15476TIP3   OH267918   1.760   2.104  15.560  0.2828 -0.1054 -0.3294
15476TIP3    H167919   1.694   2.135  15.498 -0.0481  0.7672  0.4349
15476TIP3    H267920   1.769   2.011  15.541 -0.1644  0.0489 -1.3617
15477TIP3   OH267921   1.006   0.476   2.396  0.3567  0.5108  0.2880
15477TIP3    H167922   1.035   0.423   2.321  1.0902 -0.1937  1.0469
15477TIP3    H267923   1.021   0.566   2.369 -0.5481  0.3421 -0.8875
15478TIP3   OH267924   1.376   0.229   1.014 -0.4467  0.2492  0.8619
15478TIP3    H167925   1.371   0.136   0.993  1.9656  0.4848 -1.2851
15478TIP3    H267926   1.397   0.232   1.107  1.0160 -1.4610  0.6409
15479TIP3   OH267927   6.168   3.150  12.034  0.5294 -0.1326 -0.5203
15479TIP3    H167928   6.208   3.103  11.961  0.0018 -0.2085 -0.7639
15479TIP3    H267929   6.174   3.242  12.009 -0.6565 -0.2131 -1.1941
15480TIP3   OH267930   3.587   1.392   3.597 -0.4539  0.0125 -0.1754
15480TIP3    H167931   3.540   1.309   3.590  1.6284 -1.2762 -0.0567
15480TIP3    H267932   3.626   1.390   3.685 -0.2239  1.0287 -0.2433
15481TIP3   OH267933   6.030   5.931   5.156 -0.1891 -0.0152 -0.3709
15481TIP3    H167934   5.963   5.972   5.211 -0.3700 -0.0859 -0.5356
15481TIP3    H267935   6.013   5.966   5.068  0.5561  0.6660 -0.2581
15482TIP3   OH267936   0.868   3.837   0.910 -0.2777 -0.6420 -0.4716
15482TIP3    H167937   0.905   3.867   0.827  0.5317  0.9170  0.4107
15482TIP3    H267938   0.938   3.785   0.949  0.3071  0.6977  0.3256
15483TIP3   OH267939   6.749   1.171   1.525 -0.0167  0.5409 -0.3253
15483TIP3    H167940   6.725   1.262   1.502 -0.9699  0.3415 -0.1832
15483TIP3    H267941   6.668   1.134   1.559  0.6088 -0.0957  0.4884
15484TIP3   OH267942   2.577   2.220   3.236  0.0870 -0.1914 -0.1465
15484TIP3    H167943   2.590   2.148   3.174 -0.5650 -0.8423  0.4651
15484TIP3    H267944   2.486   2.212   3.264  0.5318 -0.3003  1.3726
15485TIP3   OH267945   6.690   0.307  14.576 -0.3658 -0.5629  0.0647
15485TIP3    H167946   6.622   0.365  14.541  2.5487  1.5987 -2.6757
15485TIP3    H267947   6.762   0.366  14.597  1.7498 -2.9349 -0.0718
15486TIP3   OH267948   5.259   1.950   3.105  0.2820  0.2166  0.4503
15486TIP3    H167949   5.315   2.024   3.077 -0.2505  0.0470 -1.1955
15486TIP3    H267950   5.295   1.875   3.059  0.9142 -0.6307  2.2407
15487TIP3   OH267951   1.924   5.508  15.237  0.0567 -0.0422  0.3734
15487TIP3    H167952   1.842   5.528  15.283 -0.5257 -1.8339  0.1860
15487TIP3    H267953   1.923   5.564  15.160 -2.3687 -1.8649 -1.0760
15488TIP3   OH267954   2.671   0.939  13.310  0.1705  0.4973 -0.3220
15488TIP3    H167955   2.583   0.966  13.337 -0.1420  0.2328 -1.0210
15488TIP3    H267956   2.656   0.886  13.231  0.8047 -1.1057  0.5875
15489TIP3   OH267957   3.766   2.307   4.818  0.3374  0.0503 -0.6822
15489TIP3    H167958   3.766   2.247   4.743 -2.0051 -1.2281  0.2386
15489TIP3    H267959   3.786   2.252   4.893 -0.9123  0.5867  0.0628
15490TIP3   OH267960   2.369   5.209  15.899  0.1903 -0.0585 -0.2131
15490TIP3    H167961   2.440   5.189  15.960  0.1494 -0.7126 -0.3737
15490TIP3    H267962   2.385   5.299  15.872  1.5102 -0.4976 -0.9879
15491TIP3   OH267963   0.429   2.883  13.477  0.3474  0.0120 -0.3684
15491TIP3    H167964   0.461   2.851  13.562 -1.8535 -0.1507  0.4695
15491TIP3    H267965   0.480   2.836  13.412  0.9243 -1.1289  0.8746
15492TIP3   OH267966   5.742   3.477   1.522  0.1155 -0.4118  0.4067
15492TIP3    H167967   5.670   3.474   1.459 -0.6753  0.2328  1.2371
15492TIP3    H267968   5.702   3.514   1.601  1.7112  1.3245  0.4423
15493TIP3   OH267969   4.088   3.198  13.131  0.4241  0.4224 -0.4946
15493TIP3    H167970   4.105   3.130  13.066  2.0716  1.6611 -1.4629
15493TIP3    H267971   4.001   3.231  13.109 -1.4777 -2.8111  1.4563
15494TIP3   OH267972   3.210   1.443   4.022  0.4517  0.0790 -0.5650
15494TIP3    H167973   3.284   1.502   4.012  0.3788  0.2981  0.1421
15494TIP3    H267974   3.133   1.500   4.020  0.3155 -0.1125 -0.9651
15495TIP3   OH267975   2.441   2.279  13.533  0.1553  0.6013 -0.3976
15495TIP3    H167976   2.510   2.344  13.540 -0.8871  1.7421 -0.3050
15495TIP3    H267977   2.381   2.300  13.605 -0.2772 -0.3880 -0.4430
15496TIP3   OH267978   5.126   0.258  13.139 -0.0386  0.2483  0.2867
15496TIP3    H167979   5.159   0.185  13.086 -0.4770 -0.3271  0.7822
15496TIP3    H267980   5.043   0.225  13.175 -0.1225  0.9103  0.7045
15497TIP3   OH267981   5.851   4.036  11.902  0.0992  0.3296  0.9134
15497TIP3    H167982   5.795   4.049  11.825 -1.5930 -1.3194  1.7687
15497TIP3    H267983   5.896   4.119  11.914  0.4310  0.6373 -1.8419
15498TIP3   OH267984   3.349   4.798   1.647  0.0600 -0.0162  0.4288
15498TIP3    H167985   3.342   4.709   1.681  1.5883 -0.8244 -1.2494
15498TIP3    H267986   3.412   4.841   1.705  1.7591 -1.0352 -0.5870
15499TIP3   OH267987   3.388   2.228  16.066 -0.2583  0.2853  0.2081
15499TIP3    H167988   3.382   2.133  16.064  1.2104  0.1142  1.6341
15499TIP3    H267989   3.300   2.258  16.089 -0.8380 -0.6811 -0.6993
15500TIP3   OH267990   5.168   0.442   3.516 -0.3016 -0.1923 -0.1657
15500TIP3    H167991   5.199   0.448   3.606  1.1086  0.6943 -0.6784
15500TIP3    H267992   5.246   0.460   3.463 -0.6018 -2.6808 -1.6167
15501TIP3   OH267993   4.890   0.507   2.462 -1.1046 -0.1036  0.3455
15501TIP3    H167994   4.938   0.553   2.392 -1.8385 -0.4766 -0.4210
15501TIP3    H267995   4.919   0.549   2.542 -1.1515  1.1717 -0.2774
15502TIP3   OH267996   4.214   3.589   1.844  0.0134  0.1123  0.0448
15502TIP3    H167997   4.259   3.638   1.775 -0.8192 -0.1214 -0.6872
15502TIP3    H267998   4.264   3.507   1.852  1.3300  0.9821  1.1807
15503TIP3   OH267999   6.153   0.055  14.030 -0.5809  0.0335 -0.7413
15503TIP3    H168000   6.121   0.051  13.940  0.6453  1.3606 -1.2768
15503TIP3    H268001   6.210  -0.021  14.040 -0.3366  0.1481 -1.2538
15504TIP3   OH268002   3.049   1.021   1.486  0.3568  0.4346 -0.0328
15504TIP3    H168003   3.062   0.927   1.497  0.2052  0.2995 -0.9221
15504TIP3    H268004   2.966   1.029   1.439 -0.5594  1.1005  1.6145
15505TIP3   OH268005   5.500   3.444  12.705  0.1957  0.7788  0.8548
15505TIP3    H168006   5.566   3.387  12.664 -0.7695 -0.2281  0.6449
15505TIP3    H268007   5.476   3.506  12.637 -2.0932 -1.4686 -0.5785
15506TIP3   OH268008   3.258   6.626  11.956  0.5982 -0.4751  0.0963
15506TIP3    H168009   3.269   6.548  12.011 -0.9397 -0.2301  0.8173
15506TIP3    H268010   3.251   6.591  11.867  0.2247 -1.1422  0.3775
15507TIP3   OH268011   4.930   2.626   2.292  0.0534 -0.5443  0.3087
15507TIP3    H168012   4.977   2.673   2.360  0.6543 -1.0416  0.2471
15507TIP3    H268013   4.991   2.624   2.218 -0.0962 -1.1080  0.1956
15508TIP3   OH268014   3.737   3.761   1.544  0.0906  0.2957  0.6600
15508TIP3    H168015   3.801   3.801   1.485  0.4069 -0.7876  0.2443
15508TIP3    H268016   3.682   3.708   1.486 -0.6944  0.5836  1.1224
15509TIP3   OH268017   0.227   5.213   6.101 -0.6427  0.2684 -0.0903
15509TIP3    H168018   0.251   5.231   6.010 -0.8304  1.1417  0.0287
15509TIP3    H268019   0.192   5.124   6.099  0.3386 -0.1265 -0.6827
15510TIP3   OH268020   5.575   5.960   2.894  0.1585 -0.4177 -1.0057
15510TIP3    H168021   5.493   5.958   2.846  0.8251  1.1242 -2.3159
15510TIP3    H268022   5.618   6.041   2.865  1.1230  0.0035  1.3529
15511TIP3   OH268023   0.127   3.148   2.707 -0.0713  0.4984  0.6876
15511TIP3    H168024   0.193   3.205   2.667  0.1283  0.1797  0.5581
15511TIP3    H268025   0.178   3.092   2.766  0.1341 -1.3637 -1.1423
15512TIP3   OH268026   0.632   5.777  17.074  0.0020 -0.4214  0.5039
15512TIP3    H168027   0.654   5.684  17.061 -1.0583 -0.6208 -0.0266
15512TIP3    H268028   0.577   5.798  16.999  0.4380  0.7223  0.4909
15513TIP3   OH268029   0.505   2.758   1.191 -0.0806 -0.4696 -0.1886
15513TIP3    H168030   0.505   2.749   1.096 -1.7339 -0.7810 -0.1783
15513TIP3    H268031   0.499   2.668   1.224 -1.3835 -0.2606  0.1726
15514TIP3   OH268032   5.675   2.344  14.946  0.0764  0.5055 -0.2014
15514TIP3    H168033   5.614   2.352  14.873  2.1900  1.2018 -1.9851
15514TIP3    H268034   5.656   2.419  15.002 -0.8010  0.5998 -0.6104
15515TIP3   OH268035   2.236   3.906  14.254  0.1222 -0.3007  0.0172
15515TIP3    H168036   2.234   3.982  14.196  1.0717 -0.5154 -0.3147
15515TIP3    H268037   2.303   3.849  14.217 -2.7987 -2.9300 -1.7651
15516TIP3   OH268038   6.492   6.517   0.235 -0.1378 -0.7466 -0.1776
15516TIP3    H168039   6.505   6.564   0.152  1.4389 -1.7230 -0.5237
15516TIP3    H268040   6.522   6.579   0.302  2.0088 -1.1842 -0.6373
15517TIP3   OH268041   6.612   2.710   5.923 -0.1811 -0.5300  0.1636
15517TIP3    H168042   6.563   2.790   5.906  3.2642  2.0659  1.4037
15517TIP3    H268043   6.686   2.713   5.863  0.0641 -2.8565  0.2363
15518TIP3   OH268044   2.411   3.841   4.721 -0.0693 -0.0132 -0.2738
15518TIP3    H168045   2.472   3.914   4.728  0.2812 -0.1805 -1.4589
15518TIP3    H268046   2.442   3.790   4.646  0.2673 -1.9309  1.1043
15519TIP3   OH268047   5.969   4.215   5.473  0.0472  0.0554 -0.0506
15519TIP3    H168048   6.047   4.268   5.458  0.5888 -0.3234  1.2243
15519TIP3    H268049   6.000   4.124   5.467 -0.2527 -0.0982  0.6255
15520TIP3   OH268050   6.592   1.222  16.762  0.2972  0.2691  0.1697
15520TIP3    H168051   6.538   1.178  16.696  1.1454 -2.3492  1.1186
15520TIP3    H268052   6.644   1.285  16.712  0.9949 -1.6896 -1.7415
15521TIP3   OH268053   1.356   3.333  16.600 -0.3743 -0.0871  0.1308
15521TIP3    H168054   1.270   3.323  16.639  0.0436 -2.4731  0.6167
15521TIP3    H268055   1.339   3.368  16.512 -1.4382  3.7929  1.6619
15522TIP3   OH268056   4.081   3.544  14.559 -0.5488  0.2603 -0.0260
15522TIP3    H168057   4.175   3.558  14.563 -0.3355 -0.8874 -0.4700
15522TIP3    H268058   4.054   3.580  14.474 -0.3118 -0.3614 -0.3753
15523TIP3   OH268059   0.044   2.956   2.147 -0.0847  0.2539 -0.4524
15523TIP3    H168060   0.122   2.988   2.101 -1.9919  2.6903 -2.2611
15523TIP3    H268061  -0.025   2.958   2.081 -1.4808 -3.2467  0.6630
15524TIP3   OH268062   2.897   4.859   4.156  0.3103 -0.1058 -0.0074
15524TIP3    H168063   2.857   4.799   4.094  1.1840 -1.2619  0.5066
15524TIP3    H268064   2.825   4.885   4.214 -0.0914 -0.6258 -0.2676
15525TIP3   OH268065   1.799   6.433   3.360  0.4082  0.3360 -0.1109
15525TIP3    H168066   1.755   6.366   3.412 -0.3978  0.4369 -0.6540
15525TIP3    H268067   1.802   6.397   3.272 -0.1861  1.0787 -0.4430
15526TIP3   OH268068   3.624   0.271   2.622 -0.0260  0.0297  0.2166
15526TIP3    H168069   3.667   0.339   2.673 -1.5171  0.1069  1.4621
15526TIP3    H268070   3.596   0.206   2.687 -2.3017  0.3043 -0.3886
15527TIP3   OH268071   1.692   3.703  15.114 -0.1919 -0.2648  0.3969
15527TIP3    H168072   1.696   3.615  15.151  0.5952 -0.2104  0.4549
15527TIP3    H268073   1.660   3.758  15.186 -0.3253 -0.4388  0.4720
15528TIP3   OH268074   3.326   5.730  13.156 -0.4791  0.0289  0.2454
15528TIP3    H168075   3.325   5.711  13.250 -0.7328  1.1629  0.4905
15528TIP3    H268076   3.364   5.652  13.116 -1.0074 -0.7575  1.2226
15529TIP3   OH268077   4.596   4.560   0.271  0.0462 -0.0057 -0.7811
15529TIP3    H168078   4.590   4.592   0.361 -1.5181  0.5038 -1.0441
15529TIP3    H268079   4.690   4.552   0.255  0.3505 -0.4018  0.9902
15530TIP3   OH268080   1.914   4.380  11.413  0.3912  0.2873 -0.0395
15530TIP3    H168081   1.896   4.465  11.374  0.3831 -0.1532 -1.0292
15530TIP3    H268082   1.871   4.317  11.355 -0.1866 -0.3613  1.0390
15531TIP3   OH268083   1.908   5.013   4.951  0.3093  0.1134  0.1506
15531TIP3    H168084   1.846   5.036   4.882 -1.1945  1.4726  1.8760
15531TIP3    H268085   1.900   4.918   4.960 -3.1962  0.4332  1.7566
15532TIP3   OH268086   5.478   2.383  14.707 -0.1311 -0.0414  0.0085
15532TIP3    H168087   5.489   2.475  14.685 -0.6362  0.1707  0.6238
15532TIP3    H268088   5.426   2.383  14.787 -2.2462 -0.9283 -1.2817
15533TIP3   OH268089   3.412   4.755   4.511  0.2487 -0.0749 -0.1123
15533TIP3    H168090   3.452   4.729   4.594  2.3582 -1.4839 -1.4716
15533TIP3    H268091   3.328   4.709   4.509  0.7022 -0.9680  0.7402
15534TIP3   OH268092   5.125   3.644  16.456  0.0514 -0.1609  0.5673
15534TIP3    H168093   5.169   3.676  16.535  2.1055 -1.1361 -0.1059
15534TIP3    H268094   5.142   3.712  16.391  0.2630 -0.3681  0.4039
15535TIP3   OH268095   2.630   1.915  12.123 -0.0371 -0.2553 -0.0955
15535TIP3    H168096   2.567   1.924  12.051  0.9297 -1.4557 -1.1184
15535TIP3    H268097   2.633   1.822  12.141 -0.2599  0.0242  1.5396
15536TIP3   OH268098   3.731   4.881   2.851 -0.0833 -0.7652  0.2429
15536TIP3    H168099   3.819   4.891   2.885  0.4661 -1.5807 -0.8494
15536TIP3    H268100   3.740   4.897   2.757 -0.5357 -3.4383 -0.3484
15537TIP3   OH268101   4.238   6.242   5.421 -0.2191 -0.1733 -0.0297
15537TIP3    H168102   4.317   6.196   5.449 -0.9503 -0.2619  2.0955
15537TIP3    H268103   4.188   6.176   5.373 -0.6436 -1.3018  1.8315
15538TIP3   OH268104   2.044   0.790  12.999  0.0126  0.3783 -0.3402
15538TIP3    H168105   1.994   0.854  12.949  1.7664  2.5064  0.4690
15538TIP3    H268106   1.979   0.729  13.033 -1.3950 -0.4470 -4.0435
15539TIP3   OH268107   5.868   5.124   0.031  0.0221 -0.0964  0.5138
15539TIP3    H168108   5.797   5.127   0.095  0.2961  1.3260  0.7953
15539TIP3    H268109   5.870   5.213  -0.005  1.3997 -0.2307  0.2211
15540TIP3   OH268110   0.973   6.437  12.743 -0.3821 -0.4715 -0.5848
15540TIP3    H168111   0.923   6.505  12.697 -2.6769 -0.4047  1.7455
15540TIP3    H268112   0.955   6.357  12.694  0.4336  0.1793 -2.0028
15541TIP3   OH268113   4.721   4.555  11.893  0.2434 -0.1699  0.4480
15541TIP3    H168114   4.726   4.489  11.824 -0.1151 -0.1158  0.3725
15541TIP3    H268115   4.692   4.635  11.849 -1.5769 -0.5247  0.9164
15542TIP3   OH268116   6.791   5.398  13.909 -0.1537  0.3734  0.5765
15542TIP3    H168117   6.851   5.471  13.922 -0.6263  0.8230  0.2842
15542TIP3    H268118   6.847   5.323  13.892  0.3218  0.9209 -0.3645
15543TIP3   OH268119   5.524   1.495   2.161  0.0682  0.3003  0.7107
15543TIP3    H168120   5.591   1.484   2.094 -1.4501  0.3673 -0.9035
15543TIP3    H268121   5.474   1.413   2.158 -1.3900  1.1775  0.1396
15544TIP3   OH268122   4.145   3.864  15.967  0.4619  0.2313 -0.7618
15544TIP3    H168123   4.093   3.800  15.919 -0.5736  1.4056 -1.2507
15544TIP3    H268124   4.106   3.866  16.054  1.8847 -1.3703 -0.0419
15545TIP3   OH268125   5.271   3.648  11.078  0.4858 -0.3183 -0.3298
15545TIP3    H168126   5.273   3.681  10.988  2.9196 -1.1717 -0.6600
15545TIP3    H268127   5.249   3.555  11.070 -0.7316 -0.0888  0.1171
15546TIP3   OH268128   5.566   4.214   2.929  0.3378  0.0734  0.0932
15546TIP3    H168129   5.540   4.265   2.852  0.5822 -0.5039 -0.3826
15546TIP3    H268130   5.608   4.277   2.986 -2.6410  1.2354  1.2298
15547TIP3   OH268131   0.248   4.765  15.922  0.0223 -0.4159  0.0177
15547TIP3    H168132   0.194   4.686  15.932  0.8419 -0.7854  2.2862
15547TIP3    H268133   0.264   4.793  16.012  0.8573  1.5973 -0.7179
15548TIP3   OH268134   3.169   5.106  15.659  0.1524 -0.5153  0.5904
15548TIP3    H168135   3.246   5.162  15.663 -0.9197  1.0066  0.8886
15548TIP3    H268136   3.144   5.105  15.567 -0.7661  0.8806  0.7982
15549TIP3   OH268137   0.792   0.433  14.363 -0.2533 -0.4945 -0.0413
15549TIP3    H168138   0.829   0.499  14.305 -2.3554  0.3327 -0.5030
15549TIP3    H268139   0.739   0.377  14.306  0.8236 -2.1224  0.4774
15550TIP3   OH268140   4.800   5.701   3.392 -0.3976  0.0816 -0.7122
15550TIP3    H168141   4.713   5.694   3.353 -0.0085 -0.0677 -1.5788
15550TIP3    H268142   4.819   5.613   3.424 -1.5008  0.6236  1.5799
15551TIP3   OH268143   6.343   1.114  12.717 -0.4697 -0.1215  0.8405
15551TIP3    H168144   6.266   1.141  12.767  0.0205  1.8006  0.6454
15551TIP3    H268145   6.326   1.023  12.693 -3.5129  0.7295 -0.7387
15552TIP3   OH268146   3.979   2.768   4.650 -0.3412  0.0337  0.1888
15552TIP3    H168147   4.002   2.689   4.600 -1.4087 -0.5129  0.5418
15552TIP3    H268148   4.017   2.753   4.736  0.1299  0.2686  0.0284
15553TIP3   OH268149   0.937   6.734   5.655  0.6680 -0.6540  0.2687
15553TIP3    H168150   0.859   6.751   5.601  0.9422  0.9873  0.3492
15553TIP3    H268151   0.978   6.658   5.613  0.5436  0.2016 -1.5069
15554TIP3   OH268152   0.671   2.634  12.122 -0.1609 -0.6067 -0.1981
15554TIP3    H168153   0.716   2.582  12.056  0.7477 -0.9049  0.6442
15554TIP3    H268154   0.729   2.633  12.198 -0.2738  1.3669 -0.0405
15555TIP3   OH268155   6.312   6.558  14.749 -0.3998  0.6851  0.1556
15555TIP3    H168156   6.330   6.505  14.826 -0.7108 -1.2580 -1.0420
15555TIP3    H268157   6.277   6.497  14.685  0.0666  2.1768 -1.6256
15556TIP3   OH268158   4.487   3.422  13.649  0.6174 -0.1621 -0.2996
15556TIP3    H168159   4.530   3.338  13.669 -0.1332 -0.7108 -0.9349
15556TIP3    H268160   4.539   3.487  13.696  1.2744 -0.9727  0.1242
15557TIP3   OH268161   4.521   0.424  16.246 -0.0969  0.0489  0.8816
15557TIP3    H168162   4.442   0.474  16.266  0.1045  0.5282  0.4921
15557TIP3    H268163   4.587   0.457  16.307 -0.6738 -1.6832  2.5423
15558TIP3   OH268164   5.492   6.113   5.264 -0.4281 -0.2265 -0.3775
15558TIP3    H168165   5.398   6.102   5.249 -1.1209  2.7499  1.0685
15558TIP3    H268166   5.506   6.208   5.261  2.5649 -0.5775 -0.5872
15559TIP3   OH268167   4.668   1.676   4.148  0.0696  0.2175  0.7348
15559TIP3    H168168   4.676   1.752   4.205 -1.4007  0.8310  0.1660
15559TIP3    H268169   4.650   1.713   4.062  0.0386 -0.7610  0.3139
15560TIP3   OH268170   4.252   5.982   0.515 -0.1882  0.1302  0.2826
15560TIP3    H168171   4.288   5.973   0.603 -1.5507 -2.3861  0.6939
15560TIP3    H268172   4.269   6.073   0.491  1.2830  0.5693  2.6437
15561TIP3   OH268173   6.381   4.674  15.895 -0.3547  0.8136  0.5570
15561TIP3    H168174   6.310   4.734  15.918  0.7463  1.9055  1.2407
15561TIP3    H268175   6.456   4.706  15.946  0.6560 -0.2317 -0.2382
15562TIP3   OH268176   4.925   1.618  13.731  0.1018 -0.5165  0.6030
15562TIP3    H168177   4.901   1.710  13.744 -1.5517 -1.0002  1.1840
15562TIP3    H268178   4.853   1.569  13.770  0.8528 -2.0708  0.0978
15563TIP3   OH268179   6.119   5.778   3.887  0.1908  0.1659  0.0471
15563TIP3    H168180   6.125   5.714   3.816 -4.1898 -0.4589 -0.0881
15563TIP3    H268181   6.086   5.858   3.845  1.9403  1.3337  0.7829
15564TIP3   OH268182   5.804   3.744   1.125 -0.0550 -0.0971 -0.0691
15564TIP3    H168183   5.783   3.702   1.041 -2.6147  1.1184 -0.1142
15564TIP3    H268184   5.720   3.777   1.157  1.4838  3.4246  0.7971
15565TIP3   OH268185   5.687   4.392   2.712 -0.2549 -0.6193  0.2420
15565TIP3    H168186   5.662   4.330   2.643  2.7719 -1.3810 -0.2865
15565TIP3    H268187   5.766   4.356   2.750  3.3957  3.9645 -1.8858
15566TIP3   OH268188   0.885   3.596   3.272 -0.4525 -0.1961  0.5128
15566TIP3    H168189   0.915   3.687   3.272  0.6350 -0.5323  0.0281
15566TIP3    H268190   0.847   3.583   3.359  1.6086  0.0408  1.5172
15567TIP3   OH268191   1.286   3.409  11.030 -0.0754  0.1743  0.3091
15567TIP3    H168192   1.224   3.395  10.958  0.5013 -1.6384  0.1226
15567TIP3    H268193   1.371   3.421  10.987  0.0681  0.3844  0.6475
15568TIP3   OH268194   5.714   2.589   1.919 -0.0628  0.4021 -0.1903
15568TIP3    H168195   5.713   2.599   1.824  0.8715 -2.0622 -0.5184
15568TIP3    H268196   5.728   2.495   1.934  0.3161  0.7849  2.3853
15569TIP3   OH268197   5.306   2.978   5.323  0.3110  0.4287 -0.1328
15569TIP3    H168198   5.217   2.948   5.341  0.4545 -0.2040 -0.4375
15569TIP3    H268199   5.331   3.029   5.400  0.7877 -1.8903  1.3709
15570TIP3   OH268200   5.697   1.016   2.574 -0.4585  0.3252 -0.5278
15570TIP3    H168201   5.758   0.952   2.538  1.6475  1.4135  0.8894
15570TIP3    H268202   5.638   1.036   2.501  1.3290 -0.2516 -2.2257
15571TIP3   OH268203   6.527   3.755   5.159  0.6512  0.1103  0.8421
15571TIP3    H168204   6.604   3.709   5.192 -0.3882 -2.1804  0.2463
15571TIP3    H268205   6.561   3.837   5.123  2.5814 -0.1715  1.9237
15572TIP3   OH268206   3.271   2.664  10.986 -0.1565 -0.1045  0.1417
15572TIP3    H168207   3.267   2.759  10.987  0.1253 -0.0946  0.3309
15572TIP3    H268208   3.342   2.643  10.926  1.0857 -0.1460  1.5652
15573TIP3   OH268209   2.567   6.491   3.658  0.2144  0.0849 -0.1092
15573TIP3    H168210   2.599   6.460   3.573  0.8417 -3.1388  1.1541
15573TIP3    H268211   2.475   6.467   3.659  0.8045 -2.4483  1.0508
15574TIP3   OH268212   4.508   5.739  11.480 -0.0562 -0.3820 -0.0332
15574TIP3    H168213   4.472   5.697  11.402 -2.5266 -1.1759  1.4042
15574TIP3    H268214   4.487   5.677  11.551  3.9141 -0.7058  1.0732
15575TIP3   OH268215   3.372   6.200   3.950  0.3957  0.4563 -0.3403
15575TIP3    H168216   3.459   6.220   3.916  0.1897  2.1079 -0.0154
15575TIP3    H268217   3.331   6.286   3.962 -1.6708 -0.2975 -1.4927
15576TIP3   OH268218   0.036   2.764   6.743 -0.0233 -0.2389 -0.0969
15576TIP3    H168219   0.018   2.697   6.677  2.4849  0.1285 -1.2480
15576TIP3    H268220   0.048   2.714   6.824  1.3664 -1.1786 -0.8477
15577TIP3   OH268221   4.456   3.945  13.082 -1.2659  0.4023  0.3877
15577TIP3    H168222   4.524   3.998  13.039 -0.2429  0.1685  1.6674
15577TIP3    H268223   4.455   3.863  13.033  0.6906 -0.3102  1.4332
15578TIP3   OH268224   2.980   5.995   4.492  0.1762 -0.4131  1.2221
15578TIP3    H168225   2.985   6.081   4.451 -2.0813 -1.3484 -1.3321
15578TIP3    H268226   3.058   5.949   4.463  0.2508  0.0478  0.6880
15579TIP3   OH268227   3.731   6.817   4.336  0.2129 -0.0072  0.3807
15579TIP3    H168228   3.818   6.798   4.301  1.2105  0.2634  2.5627
15579TIP3    H268229   3.738   6.906   4.370 -1.0267  0.1389  0.2931
15580TIP3   OH268230   0.847   1.557  16.652 -0.3092  0.2723 -0.0283
15580TIP3    H168231   0.772   1.499  16.666  1.2561 -1.4764  1.6927
15580TIP3    H268232   0.922   1.498  16.645  1.2514  2.0389  0.8880
15581TIP3   OH268233   4.136   3.514   4.944 -0.2461  0.1105  0.4655
15581TIP3    H168234   4.093   3.533   5.027  0.8771  1.1932  0.8076
15581TIP3    H268235   4.220   3.558   4.949  0.9022 -1.8715 -0.2494
15582TIP3   OH268236   3.193   2.327   3.654 -0.1883  0.1324 -0.5927
15582TIP3    H168237   3.135   2.267   3.607  1.8087 -3.5930  1.1758
15582TIP3    H268238   3.252   2.360   3.587 -1.1681 -0.0984 -1.6113
15583TIP3   OH268239   5.062   6.756   2.544  0.1672 -0.5112 -0.0935
15583TIP3    H168240   4.997   6.686   2.533 -1.2039  0.3166  2.0870
15583TIP3    H268241   5.010   6.835   2.558  1.6849  0.6297 -0.6548
15584TIP3   OH268242   2.000   1.674  11.391  0.4375 -0.0207  0.6039
15584TIP3    H168243   1.961   1.592  11.361  0.8357 -0.3721  1.0233
15584TIP3    H268244   1.936   1.741  11.368 -1.4735 -0.7891  3.1298
15585TIP3   OH268245   4.589   1.992  13.215  0.8433  0.1968 -0.3925
15585TIP3    H168246   4.623   1.922  13.271 -0.5400  0.3744  0.7278
15585TIP3    H268247   4.513   1.953  13.171 -0.1306  1.0706  0.4829
15586TIP3   OH268248   5.930   1.023  15.485  0.2422 -0.1076 -0.4010
15586TIP3    H168249   5.838   1.004  15.506 -0.1488  0.0738 -1.8424
15586TIP3    H268250   5.980   0.955  15.529 -0.5889 -0.2363  0.3671
15587TIP3   OH268251   5.990   0.184   2.439 -0.1810  0.0883  0.1811
15587TIP3    H168252   6.019   0.272   2.412  1.2110 -0.6068 -0.7289
15587TIP3    H268253   5.942   0.151   2.363 -0.7881  0.0776  0.5598
15588TIP3   OH268254   6.244   0.895   1.403  0.2148  0.3953 -0.3165
15588TIP3    H168255   6.193   0.822   1.438  0.2326  0.0318 -1.0291
15588TIP3    H268256   6.244   0.881   1.308  2.2869 -0.0426 -0.2936
15589TIP3   OH268257   5.574   2.518   0.472  0.5512  0.2939  0.4986
15589TIP3    H168258   5.590   2.596   0.525 -2.3828 -0.4901  2.8187
15589TIP3    H268259   5.490   2.534   0.431  2.2352  0.3868 -3.2614
15590TIP3   OH268260   3.414   6.360   3.256  0.5129 -0.1190 -0.1741
15590TIP3    H168261   3.371   6.356   3.342  1.9246 -0.9177  0.5224
15590TIP3    H268262   3.352   6.320   3.196  0.4570 -1.7444  0.9036
15591TIP3   OH268263   3.570   2.010  16.905  0.0089  0.2758 -0.3242
15591TIP3    H168264   3.519   1.995  16.985  0.1606  0.1423 -0.2518
15591TIP3    H268265   3.554   1.931  16.853  2.6572 -1.2949  1.0348
15592TIP3   OH268266   4.255   4.537  16.357 -0.1230  0.4863  0.5154
15592TIP3    H168267   4.261   4.542  16.262 -1.3974 -3.2373  0.0769
15592TIP3    H268268   4.262   4.444  16.377  0.7654  1.1860  4.1748
15593TIP3   OH268269   5.605   3.647  16.968  0.9351 -0.8308 -0.3004
15593TIP3    H168270   5.652   3.566  16.989 -0.0291 -1.5219 -0.7357
15593TIP3    H268271   5.616   3.702  17.045  1.2025 -1.5706  0.1975
15594TIP3   OH268272   0.399   1.813  16.204 -0.0226  0.2533  0.2804
15594TIP3    H168273   0.394   1.899  16.162 -1.7398  0.1872  0.2744
15594TIP3    H268274   0.308   1.791  16.223  0.5199 -0.8750  1.6987
15595TIP3   OH268275   4.057   5.983   0.019  0.3683  0.0780 -0.8408
15595TIP3    H168276   4.083   5.975  -0.073 -1.3168 -0.1292 -1.3224
15595TIP3    H268277   3.963   5.999   0.017  0.3408  0.3671  0.8493
15596TIP3   OH268278   6.163   1.628   4.549 -0.0185  0.7421  0.2875
15596TIP3    H168279   6.160   1.681   4.470 -0.1855  1.7487  0.9531
15596TIP3    H268280   6.255   1.628   4.574 -0.0819  1.0563  0.5163
15597TIP3   OH268281   3.083   6.272  17.064  0.5492  0.2061 -0.2854
15597TIP3    H168282   3.099   6.332  17.137 -1.1166 -0.1469  0.4359
15597TIP3    H268283   3.097   6.325  16.986 -0.2989  1.3839  0.3312
15598TIP3   OH268284   4.193   0.167   2.756 -0.4977 -0.0697 -0.1312
15598TIP3    H168285   4.284   0.164   2.727 -0.1662 -0.7823  0.9121
15598TIP3    H268286   4.181   0.257   2.788 -1.2340  1.1444 -3.3938
15599TIP3   OH268287   6.643   0.792  17.160 -0.1321  0.1141 -0.1177
15599TIP3    H168288   6.668   0.862  17.220  2.4163 -1.3244  0.6670
15599TIP3    H268289   6.557   0.818  17.127  0.3320  3.1426  0.7527
15600TIP3   OH268290   6.641   5.039   5.464 -0.2519 -0.0923  0.1981
15600TIP3    H168291   6.568   4.996   5.510 -0.7092  1.4563  0.9998
15600TIP3    H268292   6.646   4.993   5.380 -1.7710 -0.6410  0.3610
15601TIP3   OH268293   0.849   2.210   3.301 -0.1885 -0.0684 -0.0545
15601TIP3    H168294   0.923   2.176   3.351 -2.2527 -0.1986  3.1333
15601TIP3    H268295   0.882   2.290   3.260  2.3382 -1.3654 -0.7499
15602TIP3   OH268296   4.924   0.862   3.320 -0.5810  0.4234 -0.3064
15602TIP3    H168297   4.974   0.835   3.244 -0.3892  0.2715 -0.1270
15602TIP3    H268298   4.845   0.808   3.318 -0.3894  0.1380 -0.1746
15603TIP3   OH268299   6.068   2.476   1.879  0.1873 -0.2396 -0.2992
15603TIP3    H168300   6.079   2.495   1.786  0.7786 -2.6838 -0.8156
15603TIP3    H268301   5.985   2.428   1.883 -0.4042  0.8230  0.6368
15604TIP3   OH268302   1.364   1.416   1.896 -0.1349  0.0225 -0.1661
15604TIP3    H168303   1.384   1.505   1.868 -0.8233 -0.2142 -1.4769
15604TIP3    H268304   1.323   1.375   1.820  1.3585 -1.8316 -0.0397
15605TIP3   OH268305   1.117   2.597  16.925  0.7324  0.1551  0.6236
15605TIP3    H168306   1.127   2.503  16.936  1.0375  0.3398  2.0690
15605TIP3    H268307   1.143   2.635  17.009  2.7238  1.7006 -0.6000
15606TIP3   OH268308   6.742   4.975  12.500  0.3422  0.1633 -0.4460
15606TIP3    H168309   6.746   5.071  12.492 -0.7789  0.2329 -0.3041
15606TIP3    H268310   6.653   4.953  12.474 -0.6149 -0.4907  2.9630
15607TIP3   OH268311   4.651   5.297   1.691 -0.7179 -0.2153 -0.2906
15607TIP3    H168312   4.582   5.264   1.749 -0.5398 -1.0357 -0.5330
15607TIP3    H268313   4.701   5.219   1.667 -0.4829  0.1929 -1.1444
15608TIP3   OH268314   2.048   4.019   4.064  0.3694 -0.5396  0.1697
15608TIP3    H168315   1.969   4.031   4.117  0.1187 -0.8936 -0.1193
15608TIP3    H268316   2.034   3.936   4.018  0.9246 -0.6253  0.1415
15609TIP3   OH268317   3.785   4.448   1.990  0.2648 -0.0550 -0.1001
15609TIP3    H168318   3.705   4.477   2.035  1.5458 -0.7461  2.8994
15609TIP3    H268319   3.824   4.529   1.957 -2.3406  0.1598 -3.0852
15610TIP3   OH268320   3.642   3.021   1.924  0.2948 -0.3973  0.3164
15610TIP3    H168321   3.569   2.992   1.869 -0.4336  0.0056  1.0575
15610TIP3    H268322   3.701   3.065   1.863  0.0490 -0.9395 -0.3359
15611TIP3   OH268323   3.942   4.770   5.974  0.0446  0.5100 -0.2304
15611TIP3    H168324   4.005   4.743   5.907  0.0904 -0.6902  0.2900
15611TIP3    H268325   3.903   4.689   6.006 -1.2302  1.1770  0.0013
15612TIP3   OH268326   0.538   2.025   2.643  0.5326  0.3890 -0.4170
15612TIP3    H168327   0.575   2.025   2.731 -0.2194  0.7079 -0.0987
15612TIP3    H268328   0.510   2.115   2.628  0.1659  0.2202 -0.7700
15613TIP3   OH268329   5.323   5.969  12.339  0.1961 -0.3740  0.0535
15613TIP3    H168330   5.328   5.874  12.338  0.5772 -0.3876  1.3145
15613TIP3    H268331   5.386   5.996  12.406 -0.7164  0.7046  0.5215
15614TIP3   OH268332   1.203   4.632   5.457 -0.4331  0.2126  0.6137
15614TIP3    H168333   1.281   4.687   5.470 -1.6672  2.3027 -0.3270
15614TIP3    H268334   1.175   4.609   5.546  1.0300 -0.2753  0.9758
15615TIP3   OH268335   1.846   4.265  11.029  0.1013  0.3570  0.3648
15615TIP3    H168336   1.790   4.233  11.100  1.6361 -0.8177  1.0985
15615TIP3    H268337   1.857   4.190  10.971 -1.5291  1.4342 -1.4499
15616TIP3   OH268338   6.394   1.387  12.762  0.0268 -0.0283  0.0014
15616TIP3    H168339   6.377   1.293  12.753  0.6833 -0.0007 -2.3540
15616TIP3    H268340   6.330   1.428  12.703  0.4562  0.9221  0.1775
15617TIP3   OH268341   3.724   4.309  11.856 -0.0829  0.4397 -0.0367
15617TIP3    H168342   3.710   4.395  11.895 -0.0576  0.0949  0.7532
15617TIP3    H268343   3.802   4.320  11.801  0.5104  0.6874  0.8285
15618TIP3   OH268344   4.928   3.615  14.037  0.3817  0.0924  0.0793
15618TIP3    H168345   4.847   3.664  14.020  0.5396  0.6688  0.9295
15618TIP3    H268346   4.901   3.543  14.094 -0.3114 -2.3639 -3.0600
15619TIP3   OH268347   5.446   2.734   2.012  0.4389 -0.1462  0.6075
15619TIP3    H168348   5.487   2.650   2.031  0.7848 -0.3814 -1.0173
15619TIP3    H268349   5.511   2.799   2.038  1.4541 -0.4888 -0.9569
15620TIP3   OH268350   3.182   5.891  14.222 -0.5656 -0.4252 -0.4220
15620TIP3    H168351   3.154   5.953  14.289 -3.2794 -0.0357 -1.7737
15620TIP3    H268352   3.177   5.940  14.140 -0.4530 -1.7492 -1.2507
15621TIP3   OH268353   1.925   6.762   5.326  0.0222  1.0961  0.0965
15621TIP3    H168354   1.908   6.813   5.246 -0.1704 -0.1578 -0.6859
15621TIP3    H268355   2.019   6.744   5.324 -0.3576 -1.0796 -1.2195
15622TIP3   OH268356   3.976   4.433  11.533 -0.7382 -0.2577 -0.6769
15622TIP3    H168357   4.023   4.513  11.556  2.5242 -1.9927 -0.7159
15622TIP3    H268358   3.992   4.374  11.606  0.6782 -2.2567 -2.4601
15623TIP3   OH268359   2.323   1.411   2.625  0.0053 -0.0531 -0.8156
15623TIP3    H168360   2.323   1.338   2.564 -1.4970 -0.2676 -0.6040
15623TIP3    H268361   2.321   1.489   2.569  1.9695 -0.1179 -1.0452
15624TIP3   OH268362   1.215   6.220  13.652 -0.2258 -0.4176 -0.0445
15624TIP3    H168363   1.159   6.153  13.690  0.3557 -1.3869 -0.8343
15624TIP3    H268364   1.223   6.195  13.559 -0.9086  1.3895 -0.6165
15625TIP3   OH268365   0.574   5.751  12.729  0.0212 -0.7315  0.2499
15625TIP3    H168366   0.503   5.694  12.698  0.9449 -1.1623 -1.2009
15625TIP3    H268367   0.568   5.829  12.674  2.0508 -1.7505 -1.5992
15626TIP3   OH268368   6.390   3.686   4.090 -0.3616  0.3879 -0.4433
15626TIP3    H168369   6.403   3.781   4.101 -0.9426  0.5392 -0.9877
15626TIP3    H268370   6.295   3.674   4.100 -0.5321  0.1160 -2.0699
15627TIP3   OH268371   6.251   6.656   2.210  0.5083 -0.0644 -0.1612
15627TIP3    H168372   6.206   6.704   2.280 -0.9057 -3.9784  1.9505
15627TIP3    H268373   6.228   6.703   2.130  0.6830  3.5859  1.7237
15628TIP3   OH268374   6.581   0.430   3.388  0.1568  0.2201  0.0335
15628TIP3    H168375   6.594   0.392   3.475  0.0499  0.1786  0.0326
15628TIP3    H268376   6.552   0.520   3.405 -2.2383 -0.5003  0.1155
15629TIP3   OH268377   0.517   3.337  12.764 -0.3512 -0.6199  0.2128
15629TIP3    H168378   0.497   3.303  12.677  1.2076 -0.0936 -0.3948
15629TIP3    H268379   0.537   3.259  12.816 -2.9130 -1.0936  0.6322
15630TIP3   OH268380   0.439   3.102  16.974 -0.0583 -0.4499  0.8402
15630TIP3    H168381   0.355   3.055  16.978 -0.9192  1.0566  1.0080
15630TIP3    H268382   0.426   3.168  16.905  0.5259  0.6678  1.7764
15631TIP3   OH268383   1.856   5.324  14.543  0.2909 -0.2413  0.4042
15631TIP3    H168384   1.810   5.249  14.505 -0.4268  0.7350 -0.7363
15631TIP3    H268385   1.913   5.354  14.472  0.6012  0.2577  0.8640
15632TIP3   OH268386   1.708   5.800  12.831 -0.3915  0.0699 -0.3671
15632TIP3    H168387   1.622   5.842  12.833  0.3557  1.6560  1.8264
15632TIP3    H268388   1.741   5.818  12.743 -2.2426 -0.5425 -1.2430
15633TIP3   OH268389   2.297   4.211  11.396 -0.3028  0.9987 -0.4713
15633TIP3    H168390   2.351   4.242  11.324 -0.8532  3.0064 -0.0804
15633TIP3    H268391   2.270   4.122  11.369  2.5972  0.1706 -0.9349
15634TIP3   OH268392   1.537   1.511   0.450  0.0445  0.6103 -0.0764
15634TIP3    H168393   1.493   1.433   0.415 -0.5742 -0.6988  3.2281
15634TIP3    H268394   1.467   1.564   0.488  0.8749 -0.1607  2.8207
15635TIP3   OH268395   4.124   5.594  13.420  0.3810 -0.2605  0.1143
15635TIP3    H168396   4.133   5.499  13.429 -0.2905 -0.3504 -0.0656
15635TIP3    H268397   4.096   5.607  13.329  2.0678  0.2427 -0.3700
15636TIP3   OH268398   4.912   3.418  12.066 -0.8769 -0.7955  0.2629
15636TIP3    H168399   4.954   3.341  12.029 -0.7374 -0.6610  0.1385
15636TIP3    H268400   4.961   3.492  12.030 -0.3091 -0.6785  1.2612
15637TIP3   OH268401   5.946   6.177   3.377 -0.0231  0.2142 -0.2584
15637TIP3    H168402   5.992   6.240   3.322 -0.1123  0.3612 -0.1659
15637TIP3    H268403   5.979   6.091   3.349 -2.3747 -0.0010 -2.7736
15638TIP3   OH268404   1.300   5.678   3.564  0.3193 -0.4499 -0.4589
15638TIP3    H168405   1.264   5.721   3.487 -0.1998  0.0691  0.0617
15638TIP3    H268406   1.224   5.647   3.613  0.5597  0.4518  0.5289
15639TIP3   OH268407   1.758   6.160  13.738 -0.1385  0.4307 -0.1551
15639TIP3    H168408   1.678   6.161  13.685 -0.3783 -0.3425  0.1812
15639TIP3    H268409   1.802   6.079  13.711  0.6051  0.9220 -0.4408
15640TIP3   OH268410   1.012   5.967   1.657  0.4213  0.5183  0.3012
15640TIP3    H168411   0.996   5.877   1.688  0.0644  0.2072 -0.7284
15640TIP3    H268412   1.027   5.957   1.563  1.7781  1.3953  0.4119
15641TIP3   OH268413   1.736   4.106  11.856 -0.6381 -0.2282 -0.2833
15641TIP3    H168414   1.796   4.162  11.807  1.4080 -0.1305  2.1498
15641TIP3    H268415   1.792   4.038  11.894 -2.1670 -0.5487  1.5314
15642TIP3   OH268416   0.301   0.404  15.467  0.3502 -0.2194  0.7986
15642TIP3    H168417   0.237   0.426  15.535 -1.1050 -2.7680  0.3822
15642TIP3    H268418   0.256   0.342  15.410  1.7464  1.2484 -2.1648
15643TIP3   OH268419   0.928   2.572  11.420 -0.5059 -0.1791  0.2441
15643TIP3    H168420   0.990   2.550  11.351  0.5807  0.1179  1.1020
15643TIP3    H268421   0.943   2.506  11.488  0.4360  1.1547  1.3917
15644TIP3   OH268422   0.261   5.038  16.507 -0.1470 -0.1291  0.3405
15644TIP3    H168423   0.263   5.070  16.597 -0.1795  0.3499  0.1759
15644TIP3    H268424   0.288   4.947  16.512  1.1665  0.2704  0.6754
15645TIP3   OH268425   3.814   3.190   4.986  0.4481  0.0455  0.5931
15645TIP3    H168426   3.786   3.281   4.992 -1.7306 -0.4863 -0.4193
15645TIP3    H268427   3.888   3.192   4.926  0.9291  1.2230  1.1987
15646TIP3   OH268428   6.389   5.931  14.134 -0.2410 -0.3395 -0.1674
15646TIP3    H168429   6.388   5.836  14.117  0.2935 -0.2826 -0.5299
15646TIP3    H268430   6.301   5.950  14.166  0.2230 -1.3244  1.8715
15647TIP3   OH268431   6.726   0.469   0.506  0.4395 -0.2003 -0.1700
15647TIP3    H168432   6.759   0.551   0.541  0.3807 -0.5062  0.6249
15647TIP3    H268433   6.780   0.402   0.548 -1.9973 -0.8201  2.2396
15648TIP3   OH268434   3.231   1.137   0.491  0.2062  0.0872  0.2559
15648TIP3    H168435   3.286   1.215   0.492 -0.4794  0.6069 -0.7454
15648TIP3    H268436   3.178   1.144   0.570  0.5888  0.3064  0.4953
15649TIP3   OH268437   2.451   6.804   1.173  0.0632 -0.3385 -0.1450
15649TIP3    H168438   2.363   6.769   1.165 -0.3169  0.7188 -0.7741
15649TIP3    H268439   2.484   6.807   1.083  0.3957  0.1232 -0.0122
15650TIP3   OH268440   0.805   0.759   4.462  0.3350 -0.5209  0.0019
15650TIP3    H168441   0.870   0.700   4.423 -0.3895 -1.2089 -0.1949
15650TIP3    H268442   0.771   0.809   4.389 -0.4199 -1.2160 -0.1302
15651TIP3   OH268443   4.639   6.718   5.118  0.5997 -0.4506 -0.4464
15651TIP3    H168444   4.700   6.780   5.157  0.3620 -0.0224 -0.7443
15651TIP3    H268445   4.618   6.755   5.033 -1.3081  0.2389  0.2793
15652TIP3   OH268446   1.065   5.058  12.978  0.0456  0.0965 -0.0605
15652TIP3    H168447   1.105   5.080  13.062 -0.3692 -0.0211  0.1722
15652TIP3    H268448   1.027   4.971  12.992  0.3750 -0.1201 -0.5119
15653TIP3   OH268449   0.674   6.778   4.492 -0.7444  0.0319  0.2969
15653TIP3    H168450   0.581   6.766   4.471 -0.9202  1.4107  0.1644
15653TIP3    H268451   0.676   6.859   4.543  0.4862  0.4856 -0.4315
15654TIP3   OH268452   4.584   3.246  15.795 -0.0743 -0.0870  0.0327
15654TIP3    H168453   4.617   3.157  15.812  1.0250  0.2205 -0.4137
15654TIP3    H268454   4.524   3.235  15.722 -1.4567 -0.7391  1.1941
15655TIP3   OH268455   4.541   5.076   5.690 -0.2359 -0.1579 -0.4123
15655TIP3    H168456   4.597   5.148   5.659 -1.4471  1.0354  0.0471
15655TIP3    H268457   4.570   5.061   5.780 -0.8261  0.6772 -0.0672
15656TIP3   OH268458   0.745   4.754   5.692  0.1516 -0.0004  0.0209
15656TIP3    H168459   0.801   4.702   5.749 -0.0990  1.4996  1.7247
15656TIP3    H268460   0.806   4.803   5.637  0.4768  0.2355  0.5823
15657TIP3   OH268461   6.243   2.749   4.767 -0.8593  0.0330 -0.7732
15657TIP3    H168462   6.263   2.841   4.750  1.3670 -0.1307  0.6003
15657TIP3    H268463   6.306   2.700   4.714  2.1224 -0.5229  2.8577
15658TIP3   OH268464   6.656   3.976   2.586 -0.1743  0.0428 -0.5309
15658TIP3    H168465   6.594   4.005   2.520 -0.3342  2.9979  0.7821
15658TIP3    H268466   6.727   4.040   2.584  0.8270 -0.9473  0.7756
15659TIP3   OH268467   1.763   0.231   3.858 -0.7894 -0.1634 -0.2551
15659TIP3    H168468   1.790   0.145   3.826 -1.1219 -0.9205  1.4047
15659TIP3    H268469   1.749   0.282   3.779  0.2660 -1.3627 -1.2647
15660TIP3   OH268470   1.403   1.082  16.637 -0.3460 -0.9723  0.0057
15660TIP3    H168471   1.485   1.132  16.629  0.4659 -1.8642  2.0188
15660TIP3    H268472   1.351   1.131  16.700 -1.7576 -0.0156 -1.8013
15661TIP3   OH268473   6.581   5.341  16.400 -0.7304  0.3118  0.4642
15661TIP3    H168474   6.552   5.271  16.459  0.7682  0.0937  0.9831
15661TIP3    H268475   6.637   5.297  16.336 -0.8006  0.8434  0.0301
15662TIP3   OH268476   3.506   1.858   1.283  0.2524  0.4552 -0.3219
15662TIP3    H168477   3.460   1.940   1.298  0.8779  0.9052 -0.7895
15662TIP3    H268478   3.460   1.793   1.337 -2.8656  0.1643 -3.0337
15663TIP3   OH268479   3.083   6.768   0.196  0.4656 -0.4279  0.0548
15663TIP3    H168480   3.107   6.847   0.244  0.5399 -0.5982  0.2968
15663TIP3    H268481   3.041   6.711   0.261  1.2011 -0.9473  0.0816
15664TIP3   OH268482   1.762   1.958  11.545  0.6293  0.0989 -0.1547
15664TIP3    H168483   1.855   1.963  11.565  0.6628 -1.1457  0.0948
15664TIP3    H268484   1.728   2.046  11.566  1.0635 -0.4318  3.4916
15665TIP3   OH268485   6.213   5.967  11.062 -0.0590  0.4889  0.3685
15665TIP3    H168486   6.190   5.885  11.019  1.8751 -1.0142  1.9626
15665TIP3    H268487   6.229   5.942  11.153  2.4736  2.2377  0.5218
15666TIP3   OH268488   1.453   3.674   4.870  0.3305 -0.3270 -0.3292
15666TIP3    H168489   1.536   3.714   4.895  0.2282  0.5128 -1.2778
15666TIP3    H268490   1.435   3.707   4.782 -1.1016 -0.3512 -0.0790
15667TIP3   OH268491   4.591   0.236  11.545 -0.0111  0.0603  0.2540
15667TIP3    H168492   4.588   0.283  11.628  0.6630  0.6978 -0.0684
15667TIP3    H268493   4.522   0.276  11.493  0.0415  0.1583  0.2585
15668TIP3   OH268494   6.336   5.752   3.588  0.0534  0.3391  0.1200
15668TIP3    H168495   6.419   5.706   3.600  0.9154  1.9463  0.5618
15668TIP3    H268496   6.349   5.836   3.632 -1.7306  0.7171 -0.0185
15669TIP3   OH268497   0.412   5.958   5.725  0.5088  0.5267  0.1444
15669TIP3    H168498   0.383   5.919   5.807  0.7689  1.2820  0.6044
15669TIP3    H268499   0.482   5.901   5.695 -1.3166 -1.2767 -0.9388
15670TIP3   OH268500   3.297   4.180  14.483 -0.2732 -0.1019  0.3156
15670TIP3    H168501   3.264   4.177  14.394  0.9321 -0.3582 -0.1441
15670TIP3    H268502   3.348   4.100  14.493  0.7827  0.5928  0.7388
15671TIP3   OH268503   6.727   3.372  12.271  0.4625 -0.3839 -0.0904
15671TIP3    H168504   6.816   3.369  12.237  0.5996  1.4749  0.0130
15671TIP3    H268505   6.737   3.354  12.365  0.6602 -0.7191 -0.1737
15672TIP3   OH268506   4.080   6.770   0.842 -0.2326 -0.2981  0.0977
15672TIP3    H168507   4.037   6.687   0.866 -0.9348 -0.6416 -2.1568
15672TIP3    H268508   4.170   6.744   0.819 -0.7028 -0.5990 -1.4647
15673TIP3   OH268509   3.865   3.774  12.191  0.0727 -0.0194 -0.0292
15673TIP3    H168510   3.882   3.858  12.233  0.2907  0.6345 -1.3742
15673TIP3    H268511   3.850   3.795  12.099  1.0926 -1.5376 -0.5923
15674TIP3   OH268512   1.448   5.556   3.212  0.6581 -0.5313 -0.0250
15674TIP3    H168513   1.506   5.539   3.138  1.0870 -0.1010  0.2101
15674TIP3    H268514   1.498   5.612   3.270  0.0615 -0.2784  0.2578
15675TIP3   OH268515   2.454   4.235   1.467 -0.0582  0.8847  0.1696
15675TIP3    H168516   2.393   4.225   1.395 -0.1656  0.0748  0.3674
15675TIP3    H268517   2.508   4.156   1.465  0.5651  1.2868  0.3988
15676TIP3   OH268518   1.597   1.345  10.856 -0.4693  0.1028  0.2135
15676TIP3    H168519   1.656   1.275  10.884 -1.8631 -1.4292 -0.5299
15676TIP3    H268520   1.547   1.307  10.783 -2.7475  1.1128  1.1425
15677TIP3   OH268521   0.882   3.331   2.977  0.1336  0.4319  0.0781
15677TIP3    H168522   0.970   3.364   2.996 -0.0473 -0.0181  1.8271
15677TIP3    H268523   0.837   3.334   3.061 -0.3641 -2.8779  0.0446
15678TIP3   OH268524   6.734   2.958   1.080  0.4119  0.5394 -0.1724
15678TIP3    H168525   6.695   3.003   1.155  0.9672  0.7189  0.0152
15678TIP3    H268526   6.681   2.880   1.068  0.4861  0.3681  0.5838
15679TIP3   OH268527   1.586   6.509   3.180 -0.1440 -0.0916 -0.2996
15679TIP3    H168528   1.517   6.455   3.220 -0.4354 -0.3964 -1.2011
15679TIP3    H268529   1.642   6.447   3.134  1.3337  0.0362  1.2248
15680TIP3   OH268530   1.180   0.441   1.691 -0.0614 -0.8833  0.5867
15680TIP3    H168531   1.222   0.427   1.776 -0.8520  0.4979  1.2294
15680TIP3    H268532   1.253   0.442   1.629  0.5048 -2.1902  1.1885
15681TIP3   OH268533   4.593   5.530   3.090 -0.0702  0.0053  0.0172
15681TIP3    H168534   4.512   5.571   3.059 -0.7172 -0.2038  1.3593
15681TIP3    H268535   4.599   5.555   3.182  2.0263  0.9884 -0.3138
15682TIP3   OH268536   2.157   0.354   4.941  0.1100  0.5676 -0.4599
15682TIP3    H168537   2.090   0.313   4.886 -0.8286 -0.7254  1.5247
15682TIP3    H268538   2.127   0.445   4.951 -0.8678  0.2490 -0.3527
15683TIP3   OH268539   5.755   2.620  11.057  0.1369 -0.5037  0.2508
15683TIP3    H168540   5.732   2.697  11.006 -0.2088 -1.4198 -1.0129
15683TIP3    H268541   5.675   2.597  11.104  0.6100  0.6819  1.7452
15684TIP3   OH268542   6.043   2.951   2.102  0.2880 -0.3416 -0.1071
15684TIP3    H168543   6.059   2.860   2.078 -0.9102 -0.3810 -0.8027
15684TIP3    H268544   6.129   2.983   2.131  1.1741 -1.0920 -1.7763
15685TIP3   OH268545   0.139   1.542   0.600 -0.0486  0.0925  0.1673
15685TIP3    H168546   0.053   1.574   0.574 -0.0576 -1.0455 -1.3499
15685TIP3    H268547   0.201   1.602   0.558 -0.0987 -0.7620 -1.2282
15686TIP3   OH268548   0.984   3.376   1.958 -0.2699  1.0335 -0.4305
15686TIP3    H168549   1.051   3.435   1.925  1.0596  0.0517  0.4433
15686TIP3    H268550   0.941   3.342   1.879  2.3795 -0.7467 -1.2400
15687TIP3   OH268551   1.236   6.412  14.378  0.3694 -0.3380  0.2996
15687TIP3    H168552   1.311   6.452  14.333  1.3143  0.5235  2.4909
15687TIP3    H268553   1.162   6.429  14.320  1.6263 -0.1039 -1.3444
15688TIP3   OH268554   0.074   1.358   4.014  0.2843 -0.4276 -0.5620
15688TIP3    H168555   0.048   1.450   4.014  1.5680 -0.0371  0.0015
15688TIP3    H268556   0.023   1.318   4.084 -2.2221 -0.7870 -2.4564
15689TIP3   OH268557   2.925   3.176  14.473  0.1451 -0.6971 -0.0435
15689TIP3    H168558   2.940   3.086  14.502 -3.2939 -1.0504  1.1269
15689TIP3    H268559   2.884   3.167  14.387  1.3342 -0.1237 -0.6909
15690TIP3   OH268560   4.098   0.645   5.503  0.3450 -0.2358 -0.3839
15690TIP3    H168561   4.169   0.686   5.552 -0.3323  0.9946 -0.3900
15690TIP3    H268562   4.073   0.710   5.438 -2.4484  0.4697  1.2258
15691TIP3   OH268563   0.615   5.028   0.257 -0.7983 -0.1777 -0.3300
15691TIP3    H168564   0.522   5.045   0.242 -0.6349 -0.0122 -1.2374
15691TIP3    H268565   0.641   4.976   0.181 -0.9703 -3.4113  1.6412
15692TIP3   OH268566   4.388   4.596  11.797  0.4758  0.0617  0.6071
15692TIP3    H168567   4.319   4.580  11.861 -0.6232  0.1051 -0.5196
15692TIP3    H268568   4.443   4.663  11.837 -0.8212  0.8921  1.0419
15693TIP3   OH268569   5.938   0.841   5.437 -0.1943  0.5948 -0.3048
15693TIP3    H168570   5.885   0.921   5.445  0.7047  1.2920 -1.1717
15693TIP3    H268571   6.012   0.856   5.495  0.2441  0.6274 -0.8633
15694TIP3   OH268572   6.352   3.410   5.476 -0.0299 -0.3829 -0.9624
15694TIP3    H168573   6.446   3.399   5.487 -0.1106  0.9519  1.6442
15694TIP3    H268574   6.343   3.492   5.427  0.1750  0.3374  0.1705
15695TIP3   OH268575   4.881   3.486  12.597  0.1474  0.0491  0.3450
15695TIP3    H168576   4.787   3.466  12.603  0.0817  0.3305  0.2976
15695TIP3    H268577   4.906   3.458  12.510 -0.2287  1.3076 -0.1871
15696TIP3   OH268578   0.776   3.369   5.433  0.2632  0.4254  0.8088
15696TIP3    H168579   0.766   3.448   5.380  0.2756  0.9564  1.5820
15696TIP3    H268580   0.786   3.401   5.523 -0.4376 -0.4842  1.2290
15697TIP3   OH268581   6.013   4.709  15.432 -0.0096 -0.3150 -0.3896
15697TIP3    H168582   6.036   4.738  15.344 -0.0083  0.6607 -0.0788
15697TIP3    H268583   5.931   4.755  15.452  1.8736  2.5356  1.5318
15698TIP3   OH268584   1.489   5.151   3.809  0.7154  0.0399  0.3763
15698TIP3    H168585   1.504   5.240   3.840  0.6162  0.3492 -0.4513
15698TIP3    H268586   1.524   5.149   3.721  0.3334 -0.6219  0.2249
15699TIP3   OH268587   4.064   5.806  15.185 -0.4452 -0.3699  0.4872
15699TIP3    H168588   4.061   5.858  15.105  1.0775 -2.0478 -0.7265
15699TIP3    H268589   4.157   5.793  15.202 -0.7575 -2.5416  0.8256
15700TIP3   OH268590   5.342   6.539   2.748 -0.3646 -0.4100 -0.0079
15700TIP3    H168591   5.289   6.614   2.722  0.5137  0.2958  0.1926
15700TIP3    H268592   5.279   6.476   2.784 -1.2997 -0.4177 -1.5757
15701TIP3   OH268593   0.488   4.751  15.224 -0.6054  0.1761 -0.0468
15701TIP3    H168594   0.428   4.782  15.155 -1.4878 -5.2702 -2.1812
15701TIP3    H268595   0.450   4.670  15.255  3.1953 -1.0137  2.1864
15702TIP3   OH268596   1.632   0.992   0.575 -0.0686  0.0474  0.3568
15702TIP3    H168597   1.711   1.005   0.522 -0.3430  0.6284  0.0804
15702TIP3    H268598   1.560   0.995   0.512 -0.3458 -0.0435  0.6649
15703TIP3   OH268599   1.288   0.068   1.452 -0.0944  0.1447  0.3639
15703TIP3    H168600   1.219   0.111   1.503  2.1243  2.1880  1.8489
15703TIP3    H268601   1.324   0.001   1.510 -1.5627 -1.8464 -0.8809
15704TIP3   OH268602   1.871   3.603   1.407 -0.0986  0.6346 -0.0128
15704TIP3    H168603   1.785   3.623   1.445 -0.1471  1.0288 -0.3267
15704TIP3    H268604   1.922   3.569   1.480 -0.4253  0.6979  0.2461
15705TIP3   OH268605   3.324   1.288   6.176  0.6082 -0.2665  0.2765
15705TIP3    H168606   3.309   1.350   6.248  0.8505  1.0571 -0.7815
15705TIP3    H268607   3.283   1.207   6.206  1.6427 -0.0807  2.3679
15706TIP3   OH268608   2.484   1.817  13.700 -0.2047 -0.2086  0.4058
15706TIP3    H168609   2.430   1.801  13.623  0.7989  1.7425 -0.7669
15706TIP3    H268610   2.484   1.912  13.711  1.7599 -0.2557  1.2467
15707TIP3   OH268611   3.115   0.939  12.555  0.3839  0.1307  0.2182
15707TIP3    H168612   3.039   0.949  12.499 -0.6009  1.4204  1.7200
15707TIP3    H268613   3.129   1.025  12.594  1.8091 -0.4048  0.9840
15708TIP3   OH268614   5.668   5.295  14.976 -0.4096  0.2942  0.1398
15708TIP3    H168615   5.756   5.259  14.989  0.0558  1.6184  0.8583
15708TIP3    H268616   5.623   5.277  15.058 -0.6979 -0.0520 -0.0910
15709TIP3   OH268617   2.847   4.332   0.182  0.0483  0.1049 -0.3418
15709TIP3    H168618   2.859   4.266   0.114  1.3263 -0.0089 -0.0367
15709TIP3    H268619   2.803   4.285   0.253 -3.1899  0.7106 -1.7818
15710TIP3   OH268620   1.612   2.837   1.787  0.5131 -0.1427 -0.0721
15710TIP3    H168621   1.638   2.746   1.797 -0.5903 -0.4997 -0.3362
15710TIP3    H268622   1.518   2.834   1.772 -0.6673  1.2853  5.0730
15711TIP3   OH268623   1.340   5.635   0.558  0.3188  0.1200 -0.2944
15711TIP3    H168624   1.299   5.550   0.574  1.9997 -0.6364  0.2875
15711TIP3    H268625   1.378   5.660   0.642  1.1238  0.7155 -0.8117
15712TIP3   OH268626   4.059   3.913  13.246 -0.3764 -0.3650  0.6125
15712TIP3    H168627   4.128   3.974  13.220 -0.7284  0.2025  0.9838
15712TIP3    H268628   4.091   3.827  13.219 -0.2990  0.0851 -0.8232
15713TIP3   OH268629   1.707   3.661  11.816  0.7783 -0.6222  0.0178
15713TIP3    H168630   1.745   3.706  11.891 -1.9138  1.1880  0.4461
15713TIP3    H268631   1.704   3.727  11.747 -1.6595 -0.5314  0.1022
15714TIP3   OH268632   1.577   5.210   0.841  0.2497 -0.5113  0.3158
15714TIP3    H168633   1.513   5.145   0.812 -0.9468  1.2794 -1.3334
15714TIP3    H268634   1.578   5.276   0.771  1.6423  1.0813  1.7379
15715TIP3   OH268635   5.777   0.415  17.248 -0.6076 -0.2325  0.5404
15715TIP3    H168636   5.743   0.332  17.282  1.2507 -0.3826  2.2052
15715TIP3    H268637   5.732   0.482  17.298  0.9922 -0.4145  2.3236
15716TIP3   OH268638   4.673   1.590   0.107  0.2708  0.1365 -0.0429
15716TIP3    H168639   4.604   1.645   0.144 -0.5192  0.9532 -2.5570
15716TIP3    H268640   4.630   1.507   0.089  0.1029  0.4264 -1.0017
15717TIP3   OH268641   3.780   1.513  12.348  0.1188  0.0684 -0.5753
15717TIP3    H168642   3.809   1.602  12.333  0.1493  0.5884  2.1211
15717TIP3    H268643   3.703   1.503  12.292 -0.2255  1.9796 -0.5043
15718TIP3   OH268644   0.091   2.568  15.593 -0.1438  0.4318 -0.0278
15718TIP3    H168645   0.017   2.512  15.615 -1.0738  1.1957 -1.1253
15718TIP3    H268646   0.163   2.507  15.576  0.1832 -0.2709  3.2498
15719TIP3   OH268647   0.568   0.935  14.847 -0.0998  0.3678 -0.1700
15719TIP3    H168648   0.585   1.029  14.845  1.7960  0.0757  0.5736
15719TIP3    H268649   0.641   0.896  14.800 -1.4999 -0.7111 -1.5833
15720TIP3   OH268650   1.027   4.576  13.536 -0.4363  0.1723 -0.2674
15720TIP3    H168651   0.962   4.533  13.480 -1.7128 -0.2240  1.4313
15720TIP3    H268652   1.022   4.529  13.619  1.0284  1.0574  0.3627
15721TIP3   OH268653   4.337   4.311  16.512 -0.7756 -0.0808 -0.6151
15721TIP3    H168654   4.362   4.289  16.422  0.4873 -0.8299 -0.1068
15721TIP3    H268655   4.413   4.286  16.565 -1.7857 -0.3686  0.7610
15722TIP3   OH268656   3.985   6.755   3.248 -0.4582  0.2893 -0.1555
15722TIP3    H168657   4.076   6.756   3.219 -0.1578  1.4222  0.7244
15722TIP3    H268658   3.979   6.826   3.312 -1.5091 -0.9341  1.1963
15723TIP3   OH268659   1.256   2.721   5.616  0.3205  0.1044  0.1958
15723TIP3    H168660   1.312   2.657   5.659 -0.9119 -2.8028 -2.1378
15723TIP3    H268661   1.292   2.729   5.528 -0.8811  0.9212 -0.2498
15724TIP3   OH268662   2.960   3.035  16.049 -0.0481 -0.0014  0.4360
15724TIP3    H168663   3.037   3.027  16.105 -0.5384  1.5602  1.3737
15724TIP3    H268664   2.996   3.049  15.961  0.7161 -0.6956  0.6188
15725TIP3   OH268665   3.020   0.257  15.568 -0.0273 -0.2030 -0.2379
15725TIP3    H168666   2.982   0.238  15.653 -1.1571 -1.0459 -0.9037
15725TIP3    H268667   3.045   0.349  15.573  0.4196 -0.3698  1.1652
15726TIP3   OH268668   5.820   2.922  17.079  0.1094  0.5517  0.3143
15726TIP3    H168669   5.890   2.970  17.035 -0.7740  1.3899 -0.1860
15726TIP3    H268670   5.854   2.906  17.167  1.2574  0.2188 -0.1703
15727TIP3   OH268671   0.486   5.635   2.419  0.6665 -0.0297 -0.3420
15727TIP3    H168672   0.443   5.719   2.403  1.8458  1.1196  2.0585
15727TIP3    H268673   0.414   5.575   2.441 -0.2527  0.0650 -2.7074
15728TIP3   OH268674   3.706   1.943   2.507 -0.3575  0.0768 -0.0794
15728TIP3    H168675   3.672   1.920   2.593  4.3597 -0.9069  1.8359
15728TIP3    H268676   3.684   2.035   2.495  0.3998  0.7645  3.1029
15729TIP3   OH268677   2.828   6.126  11.970 -0.0167 -0.7330 -0.2845
15729TIP3    H168678   2.772   6.180  11.916  1.5778  0.8824 -0.4173
15729TIP3    H268679   2.799   6.036  11.953 -1.0156 -0.1130 -2.0631
15730TIP3   OH268680   6.723   0.403  13.283  0.0705 -0.3939 -0.0236
15730TIP3    H168681   6.770   0.447  13.354  1.4149 -1.0563 -0.4667
15730TIP3    H268682   6.722   0.311  13.309 -0.1289 -0.5249 -0.4818
15731TIP3   OH268683   2.170   2.391   4.168 -0.0562  0.3908  0.4303
15731TIP3    H168684   2.242   2.453   4.159  1.4212 -1.3348 -0.2723
15731TIP3    H268685   2.197   2.315   4.117 -1.8745 -0.7776  1.0989
15732TIP3   OH268686   0.539   4.790  14.920  0.2102 -0.2502 -0.1037
15732TIP3    H168687   0.574   4.739  14.847  0.9888  1.4948 -1.0219
15732TIP3    H268688   0.454   4.820  14.888  0.4741  0.3717 -0.2265
15733TIP3   OH268689   3.313   0.922   0.717  0.4029 -0.1344  0.5497
15733TIP3    H168690   3.276   0.868   0.787  0.8309 -0.7468  0.3190
15733TIP3    H268691   3.246   0.987   0.697 -0.9937 -1.8327 -0.5814
15734TIP3   OH268692   6.257   5.684  16.847  0.6155 -0.3542 -1.1125
15734TIP3    H168693   6.242   5.598  16.888  2.1619 -0.7198 -1.2626
15734TIP3    H268694   6.342   5.712  16.880 -0.8597  2.3146  0.9294
15735TIP3   OH268695   4.204   4.799  14.853 -0.0129  0.1439 -0.3342
15735TIP3    H168696   4.178   4.793  14.945 -0.7392  0.2210 -0.5309
15735TIP3    H268697   4.161   4.878  14.821 -0.6123 -0.4388 -1.0061
15736TIP3   OH268698   2.799   3.759  14.649 -0.5965  0.2231 -0.3856
15736TIP3    H168699   2.738   3.795  14.586 -0.0672  0.7429 -0.6136
15736TIP3    H268700   2.764   3.784  14.734 -0.5120  0.8252 -0.5277
15737TIP3   OH268701   5.013   1.599   5.307 -0.3736 -0.2895 -0.7506
15737TIP3    H168702   5.009   1.547   5.388  0.3501 -1.6989 -1.5713
15737TIP3    H268703   4.935   1.654   5.310 -0.9353 -1.0968  0.3953
15738TIP3   OH268704   4.895   1.463  16.138 -0.7788  0.2362 -0.1896
15738TIP3    H168705   4.901   1.383  16.086 -0.5606  1.3194 -1.9263
15738TIP3    H268706   4.953   1.448  16.213 -1.2738 -1.4688 -0.0991
15739TIP3   OH268707   1.547   3.478  11.400  0.1191 -0.5861 -0.2518
15739TIP3    H168708   1.578   3.442  11.483  0.6744 -2.5716 -1.2563
15739TIP3    H268709   1.579   3.568  11.399  0.7033 -0.7514  1.3644
15740TIP3   OH268710   5.468   3.523   5.249  0.1930 -0.8058 -0.2418
15740TIP3    H168711   5.514   3.606   5.243 -2.5731  0.8174 -0.9765
15740TIP3    H268712   5.415   3.530   5.328 -0.8585 -1.3938 -0.8625
15741TIP3   OH268713   6.416   4.400   2.812 -0.2650  0.1828  0.1834
15741TIP3    H168714   6.475   4.354   2.872 -0.7114  0.6293  0.9923
15741TIP3    H268715   6.334   4.406   2.861 -1.1622 -0.9114 -1.1255
15742TIP3   OH268716   3.653   3.183   4.755 -0.7001 -0.3130  0.3506
15742TIP3    H168717   3.690   3.144   4.835 -1.4104 -2.4746 -0.2882
15742TIP3    H268718   3.728   3.192   4.696 -0.5411 -0.9984  0.4340
15743TIP3   OH268719   2.281   4.003   2.207  0.4816  0.4870 -0.0896
15743TIP3    H168720   2.325   4.076   2.163  2.5311 -0.0210  1.0271
15743TIP3    H268721   2.330   3.925   2.180 -0.6541 -0.3110  0.0483
15744TIP3   OH268722   4.425   2.575  13.009 -1.1276  0.3511  0.4386
15744TIP3    H168723   4.501   2.591  12.952 -0.5130  1.4450  1.5012
15744TIP3    H268724   4.426   2.481  13.024  0.4490  0.4124  0.9566
15745TIP3   OH268725   5.121   2.824   1.598 -0.2700  0.9093  0.2574
15745TIP3    H168726   5.067   2.887   1.645 -0.6528  0.6390  0.1844
15745TIP3    H268727   5.168   2.777   1.667  0.9707  2.1018  0.2695
15746TIP3   OH268728   4.626   0.170   3.651 -0.1831 -0.5609  0.8651
15746TIP3    H168729   4.660   0.132   3.732  0.7158 -0.9994  0.3060
15746TIP3    H268730   4.647   0.263   3.658  1.4442 -0.8631  0.4210
15747TIP3   OH268731   4.813   0.345  14.936 -0.0873 -0.1008  0.5799
15747TIP3    H168732   4.881   0.308  14.993  0.6639 -0.2267 -0.3680
15747TIP3    H268733   4.819   0.439  14.948  1.2230 -0.0221 -0.5398
15748TIP3   OH268734   5.503   3.640   4.035 -0.5875 -0.4204  0.4032
15748TIP3    H168735   5.577   3.579   4.024 -0.1872  0.1855 -0.3114
15748TIP3    H268736   5.529   3.695   4.109 -1.1087 -1.3175  1.2916
15749TIP3   OH268737   3.465   1.361   5.940 -0.3166  0.3378 -0.1517
15749TIP3    H168738   3.416   1.324   6.014 -1.4780 -0.2041 -1.1597
15749TIP3    H268739   3.536   1.410   5.981 -1.7243  1.1963  1.3724
15750TIP3   OH268740   0.726   3.302   4.008 -0.1115  0.0289  0.1702
15750TIP3    H168741   0.682   3.378   4.046  1.0162 -0.2414  2.1627
15750TIP3    H268742   0.754   3.250   4.084 -0.8865 -2.4384 -1.0997
15751TIP3   OH268743   2.800   2.352  11.008  0.6492 -0.0261  0.2369
15751TIP3    H168744   2.756   2.362  11.093 -0.0624  0.2935 -0.1618
15751TIP3    H268745   2.874   2.413  11.012 -0.7691  1.8178 -0.2637
15752TIP3   OH268746   3.020   0.352  16.960  0.5727 -0.2690  0.1746
15752TIP3    H168747   3.055   0.270  16.994 -1.7003 -1.0682  0.7447
15752TIP3    H268748   3.096   0.411  16.957  2.1638 -2.2221  0.1720
15753TIP3   OH268749   1.991   3.309  10.847  0.2259  0.3548 -0.7387
15753TIP3    H168750   1.912   3.287  10.896 -1.5439  1.1321 -3.0727
15753TIP3    H268751   2.001   3.403  10.857 -0.2224  0.5437 -1.8772
15754TIP3   OH268752   3.396   4.182  13.068 -0.2803  0.2698 -0.0338
15754TIP3    H168753   3.431   4.093  13.071  0.1345  0.4592  1.4585
15754TIP3    H268754   3.471   4.237  13.093 -0.4138  1.0892 -1.3413
15755TIP3   OH268755   5.623   0.204   1.757  0.0178 -0.1817 -0.2168
15755TIP3    H168756   5.580   0.160   1.684  0.7531 -2.1734  0.4682
15755TIP3    H268757   5.712   0.168   1.757  0.3997  0.7052  0.9158
15756TIP3   OH268758   6.095   2.978  16.750 -0.3101  0.3969 -0.1444
15756TIP3    H168759   6.072   3.008  16.838  1.1461 -1.8225  1.1224
15756TIP3    H268760   6.190   2.988  16.746  0.0011 -1.9398 -0.3610
15757TIP3   OH268761   3.683   0.339   3.523  0.3217  0.1551  0.0378
15757TIP3    H168762   3.740   0.392   3.579  1.1744  0.1726 -0.8330
15757TIP3    H268763   3.656   0.267   3.579  2.0132 -0.3980  0.1912
15758TIP3   OH268764   4.977   3.448   4.882  0.1713  0.6029 -0.0277
15758TIP3    H168765   5.069   3.450   4.854  0.7431  1.2611  1.7338
15758TIP3    H268766   4.957   3.355   4.892  1.1299  0.4744  0.9473
15759TIP3   OH268767   1.083   2.766  16.087 -0.7022 -0.2966 -0.4741
15759TIP3    H168768   1.092   2.746  15.994 -1.8150 -2.1495 -0.2366
15759TIP3    H268769   0.990   2.785  16.099 -0.1426  2.7669 -0.1738
15760TIP3   OH268770   2.224   6.529   0.697  0.0327  0.5756  0.3015
15760TIP3    H168771   2.318   6.529   0.717  0.7609 -1.6722 -2.5168
15760TIP3    H268772   2.182   6.505   0.780  2.1304 -0.7783  1.0537
15761TIP3   OH268773   4.753   3.218  11.401  0.6557 -0.0388 -0.2536
15761TIP3    H168774   4.832   3.192  11.354 -0.0884 -0.5087 -1.3011
15761TIP3    H268775   4.684   3.217  11.334 -0.0295  1.5132  0.3699
15762TIP3   OH268776   1.300   3.253  12.772  0.1496 -0.1080 -0.3169
15762TIP3    H168777   1.381   3.301  12.755  1.1485 -1.8262 -0.6785
15762TIP3    H268778   1.266   3.231  12.685 -1.1944  1.2864 -0.1985
15763TIP3   OH268779   2.315   3.305   1.076  0.1988  0.2390  0.2900
15763TIP3    H168780   2.271   3.227   1.044 -1.0151  0.6517  0.8801
15763TIP3    H268781   2.403   3.275   1.100 -0.5977 -1.2238  1.5918
15764TIP3   OH268782   1.299   6.478   2.676 -0.0860 -0.0790  0.4608
15764TIP3    H168783   1.342   6.499   2.759  1.2228  3.5122 -0.9651
15764TIP3    H268784   1.224   6.537   2.672  0.3024  0.3573 -1.2194
15765TIP3   OH268785   2.780   6.547  13.122 -0.7946 -0.0089 -0.1717
15765TIP3    H168786   2.805   6.515  13.035  0.2674 -0.2408  0.2042
15765TIP3    H268787   2.854   6.601  13.150 -0.4342 -1.1449  1.2048
15766TIP3   OH268788   2.035   2.089   3.599  0.5448 -0.5269  0.1549
15766TIP3    H168789   1.995   2.041   3.527  1.4386 -0.0664 -0.6623
15766TIP3    H268790   2.066   2.170   3.560 -0.8637  0.7269  1.4973
15767TIP3   OH268791   6.669   6.635   4.650 -0.5168 -0.0582  0.2708
15767TIP3    H168792   6.653   6.662   4.740 -0.9346  1.6444 -0.2777
15767TIP3    H268793   6.631   6.548   4.644 -3.8168  1.2027  0.8036
15768TIP3   OH268794   3.886   3.482  10.880 -0.0400 -0.0258  0.2700
15768TIP3    H168795   3.858   3.527  10.800  0.2354  0.6047  0.5215
15768TIP3    H268796   3.936   3.407  10.849 -1.0814 -0.5540 -0.1662
15769TIP3   OH268797   3.046   1.860  12.025  0.4159 -0.5517 -0.1162
15769TIP3    H168798   3.081   1.772  12.007 -0.9573 -1.2221  0.3044
15769TIP3    H268799   3.105   1.895  12.092  0.9814 -1.1599 -0.2760
15770TIP3   OH268800   2.566   0.076  12.033 -0.6921 -0.0612  0.1384
15770TIP3    H168801   2.529   0.045  12.116 -1.0725  0.0005 -0.0061
15770TIP3    H268802   2.491   0.084  11.974 -0.9123  2.8822  0.6674
15771TIP3   OH268803   5.643   0.006  14.019 -0.2679 -0.1596  0.0154
15771TIP3    H168804   5.681  -0.023  13.937 -0.5179  0.7258 -0.4287
15771TIP3    H268805   5.718   0.023  14.076 -0.1027 -0.9824  0.0549
15772TIP3   OH268806   0.022   4.487  11.986  0.4588 -0.6936 -0.1759
15772TIP3    H168807   0.031   4.546  12.062  0.5826  1.3088 -1.6578
15772TIP3    H268808  -0.012   4.406  12.023  1.3666 -0.1097  2.1551
15773TIP3   OH268809   5.523   6.054  14.397 -0.2599  0.6677  0.0236
15773TIP3    H168810   5.582   6.086  14.465 -0.3067 -0.6080  0.7011
15773TIP3    H268811   5.453   6.119  14.394  0.5743  1.5826  0.0337
15774TIP3   OH268812   5.376   3.913  15.693  0.2765 -0.4660 -0.1115
15774TIP3    H168813   5.397   3.894  15.784 -0.7582 -2.3657 -0.2065
15774TIP3    H268814   5.451   3.879  15.643  1.2222  1.3009  0.0224
15775TIP3   OH268815   4.314   0.387   4.599  0.1177 -0.1937  0.4380
15775TIP3    H168816   4.346   0.402   4.688  1.0024 -0.1613  0.1347
15775TIP3    H268817   4.390   0.349   4.553  0.6889  2.4995 -1.0719
15776TIP3   OH268818   4.082   1.831  12.287  1.0551 -0.5332  0.2326
15776TIP3    H168819   4.173   1.808  12.271  0.6310 -0.4648 -2.8988
15776TIP3    H268820   4.085   1.924  12.309  1.8118 -0.7672  1.1621
15777TIP3   OH268821   3.589   5.513  12.641  0.4175  0.7525 -0.2714
15777TIP3    H168822   3.499   5.482  12.629 -0.1385  1.0539  2.4171
15777TIP3    H268823   3.582   5.609  12.634  0.3906  0.8192  0.6353
15778TIP3   OH268824   3.428   3.245   0.055  0.5045  0.3524  0.3073
15778TIP3    H168825   3.397   3.180   0.117  0.6805  0.8237  0.9000
15778TIP3    H268826   3.429   3.327   0.105 -0.4029  0.9550 -0.6131
15779TIP3   OH268827   1.995   5.527  13.119 -0.4294 -0.0483 -0.2739
15779TIP3    H168828   1.947   5.542  13.037 -1.4042 -1.2751  0.0544
15779TIP3    H268829   2.078   5.489  13.091  0.2363  1.6967 -0.8189
15780TIP3   OH268830   5.109   2.704  15.995  0.4371 -0.3934  0.0765
15780TIP3    H168831   5.104   2.800  16.000  0.2706 -0.4475  2.5324
15780TIP3    H268832   5.027   2.674  16.034  1.7125 -1.4620  2.1087
15781TIP3   OH268833   3.389   3.610   0.942  0.4120 -0.1781  0.0627
15781TIP3    H168834   3.348   3.530   0.975  0.6935  0.1140  1.1790
15781TIP3    H268835   3.435   3.582   0.863 -0.0052 -0.9847  0.0896
15782TIP3   OH268836   3.071   0.048   4.310  0.5026  0.0058 -0.5453
15782TIP3    H168837   3.155   0.089   4.331  1.3919 -1.2789 -1.4565
15782TIP3    H268838   3.062  -0.022   4.375 -0.3840  0.7527  0.1827
15783TIP3   OH268839   3.245   5.338   4.123 -0.1496 -0.1840  0.4124
15783TIP3    H168840   3.285   5.322   4.038 -0.5830  1.7470 -0.1974
15783TIP3    H268841   3.185   5.265   4.136  0.8299 -1.1450 -0.3642
15784TIP3   OH268842   6.694   1.442   5.502  0.5592  0.4304 -0.2085
15784TIP3    H168843   6.665   1.407   5.418  2.2848 -2.0539  0.1191
15784TIP3    H268844   6.691   1.537   5.490 -0.8844  0.1852 -2.4564
15785TIP3   OH268845   5.342   2.284   1.410  0.6324 -0.3483  0.0813
15785TIP3    H168846   5.286   2.311   1.337  0.6548 -0.4595  0.0231
15785TIP3    H268847   5.353   2.190   1.398  1.3341 -0.2259 -0.2581
15786TIP3   OH268848   1.105   4.228   0.544 -0.5614 -0.1644 -0.1782
15786TIP3    H168849   1.064   4.198   0.625  1.1876  0.0132  0.8277
15786TIP3    H268850   1.033   4.233   0.481 -1.8897 -0.7593  1.2234
15787TIP3   OH268851   0.251   2.481   3.145 -0.3257  0.1957 -0.1735
15787TIP3    H168852   0.261   2.416   3.215 -0.7845  0.8178  0.4948
15787TIP3    H268853   0.210   2.434   3.073  1.8185 -0.9134 -0.7318
15788TIP3   OH268854   5.279   1.632  14.667  0.0983 -0.1537  0.0724
15788TIP3    H168855   5.340   1.665  14.733 -1.1581  2.0526  0.2291
15788TIP3    H268856   5.194   1.634  14.712 -0.4789 -0.5806 -0.9821
15789TIP3   OH268857   0.275   1.292  13.229  0.0971 -0.2929  0.2554
15789TIP3    H168858   0.203   1.321  13.173  0.3703  0.9448  0.5107
15789TIP3    H268859   0.353   1.304  13.176  0.1091 -2.0634 -0.1838
15790TIP3   OH268860   4.633   6.093  10.746 -0.3696  0.1303  0.0142
15790TIP3    H168861   4.656   6.179  10.782  2.3504 -0.3833 -0.2765
15790TIP3    H268862   4.612   6.110  10.654  0.5530  0.4531 -0.1459
15791TIP3   OH268863   1.358   0.642   6.535  0.4543 -0.1119 -0.9612
15791TIP3    H168864   1.430   0.584   6.510  1.4525  0.9494 -0.6578
15791TIP3    H268865   1.337   0.617   6.625  0.6431 -0.2173 -0.9470
15792TIP3   OH268866   1.196   4.975  13.752 -0.1004  0.7392  0.0772
15792TIP3    H168867   1.220   5.062  13.721 -0.1712  0.3480 -1.1052
15792TIP3    H268868   1.276   4.924  13.745 -0.4008  0.3451 -0.5847
15793TIP3   OH268869   0.997   6.383   2.789  0.1039 -0.0945  0.0673
15793TIP3    H168870   1.010   6.465   2.742  3.0060  0.2813  1.2748
15793TIP3    H268871   1.046   6.318   2.738  1.6172 -0.0743  1.3941
15794TIP3   OH268872   0.964   2.052  15.280 -0.0645  0.0913 -0.2369
15794TIP3    H168873   0.931   2.036  15.369  2.3893  0.7547  0.8780
15794TIP3    H268874   1.019   1.976  15.262  3.3439  2.0926  0.8865
15795TIP3   OH268875   1.075   1.709  15.035 -0.0417 -0.0688  0.9364
15795TIP3    H168876   1.066   1.755  15.118  0.4909 -0.5106  1.2477
15795TIP3    H268877   1.049   1.619  15.055  0.4400 -0.2586  0.7120
15796TIP3   OH268878   1.445   3.175  12.420 -0.1276  0.3915  0.1058
15796TIP3    H168879   1.479   3.103  12.473 -0.9215  0.4944  0.7732
15796TIP3    H268880   1.379   3.217  12.476 -1.1258  0.3790 -1.0302
15797TIP3   OH268881   4.542   5.869  15.712 -0.2556 -0.0423 -0.0785
15797TIP3    H168882   4.575   5.954  15.682 -0.7050 -0.0716 -0.6809
15797TIP3    H268883   4.450   5.869  15.684 -0.2664 -0.7121 -0.0412
15798TIP3   OH268884   3.960   6.817  11.698 -0.4704 -0.1889 -0.6973
15798TIP3    H168885   3.961   6.773  11.613  0.9904  0.1086 -0.8492
15798TIP3    H268886   3.997   6.903  11.682 -1.9951  0.6081 -0.1149
15799TIP3   OH268887   3.892   0.884  12.269  0.3529 -0.0169  0.0776
15799TIP3    H168888   3.834   0.830  12.215 -0.2865 -0.4171  1.1342
15799TIP3    H268889   3.876   0.973  12.239  0.2515 -0.2617 -0.6180
15800TIP3   OH268890   2.361   3.905  11.657 -0.0384  0.4243  0.1981
15800TIP3    H168891   2.438   3.847  11.654 -0.7235 -0.5062  0.0397
15800TIP3    H268892   2.397   3.993  11.651  1.2537  0.2146  3.2238
15801TIP3   OH268893   6.693   2.797   0.620 -0.6742 -0.3230  0.4671
15801TIP3    H168894   6.629   2.759   0.679 -1.5506  0.6017  0.1496
15801TIP3    H268895   6.650   2.876   0.586  0.6126  0.2930  0.2090
15802TIP3   OH268896   5.322   6.497   0.425 -0.2339  0.5746 -0.5576
15802TIP3    H168897   5.403   6.521   0.470  0.1169  1.1641 -1.4877
15802TIP3    H268898   5.341   6.412   0.384 -0.3170  0.3833 -0.2036
15803TIP3   OH268899   0.863   4.829  12.367  0.4998 -0.0313 -0.2964
15803TIP3    H168900   0.881   4.769  12.295 -1.6295  0.1894 -1.0806
15803TIP3    H268901   0.903   4.912  12.341  1.5065 -0.4815 -0.2382
15804TIP3   OH268902   1.625   3.791  14.398 -0.1477 -0.7405 -0.2531
15804TIP3    H168903   1.667   3.800  14.313  0.0939 -1.9251 -0.2721
15804TIP3    H268904   1.672   3.853  14.454  1.6688 -2.0203 -0.2787
15805TIP3   OH268905   2.025   4.146   1.119  0.0978 -0.2748 -0.5415
15805TIP3    H168906   1.995   4.061   1.153 -2.7816  1.5453  1.9502
15805TIP3    H268907   1.959   4.171   1.055  0.4748  0.4412 -0.6583
15806TIP3   OH268908   1.967   1.967   5.309  0.4580  0.0964  0.1563
15806TIP3    H168909   1.919   1.949   5.390  1.4938 -0.6715  0.6126
15806TIP3    H268910   1.942   1.895   5.250  0.5826  0.0328  0.1820
15807TIP3   OH268911   5.361   4.962  14.404  0.2499  0.2935 -0.5986
15807TIP3    H168912   5.375   4.868  14.402 -0.2061  0.2095 -0.1329
15807TIP3    H268913   5.423   4.995  14.469 -1.3955 -0.0407  1.2411
15808TIP3   OH268914   6.647   2.318   5.108  0.6936  0.2457 -0.6116
15808TIP3    H168915   6.681   2.305   5.019  1.8512  0.1645 -0.1773
15808TIP3    H268916   6.713   2.371   5.151  0.4172 -0.1878  0.3726
15809TIP3   OH268917   0.212   2.079   4.459  0.3181 -0.0901  0.6710
15809TIP3    H168918   0.163   2.052   4.536  0.2284  0.1389  0.6942
15809TIP3    H268919   0.206   2.004   4.399 -0.7967  0.2608  0.3224
15810TIP3   OH268920   4.368   2.636   5.362 -0.2980  0.1746  0.0673
15810TIP3    H168921   4.324   2.697   5.421  2.6879  2.1318  0.5371
15810TIP3    H268922   4.448   2.611   5.409  0.7999 -0.4582 -2.0065
15811TIP3   OH268923   3.979   3.579   0.808  0.4243  0.7681 -0.2748
15811TIP3    H168924   4.042   3.546   0.872  0.3975  0.3580 -0.4553
15811TIP3    H268925   3.904   3.606   0.860 -0.8432 -2.3133 -0.2702
15812TIP3   OH268926   4.838   1.662  10.833  0.4055 -0.0565  0.8358
15812TIP3    H168927   4.896   1.705  10.770  0.7535  1.4018  2.0949
15812TIP3    H268928   4.763   1.634  10.781  0.6041  1.2515 -0.2149
15813TIP3   OH268929   0.755   0.227  13.546 -0.3047 -0.2037  0.4058
15813TIP3    H168930   0.681   0.205  13.489  1.1063 -0.4363 -1.4714
15813TIP3    H268931   0.805   0.145  13.551  1.4707  0.7200 -1.0584
15814TIP3   OH268932   2.316   2.885  15.251  0.2397 -0.1586 -0.3817
15814TIP3    H168933   2.359   2.951  15.305  0.6922 -0.6608 -0.1082
15814TIP3    H268934   2.361   2.803  15.274  0.7540 -0.3246 -1.8246
15815TIP3   OH268935   4.284   1.742   4.017  0.0115  0.2905  0.5937
15815TIP3    H168936   4.277   1.767   4.109 -0.7506  0.9984  0.3523
15815TIP3    H268937   4.377   1.722   4.005 -0.1654 -1.5937  1.9528
15816TIP3   OH268938   3.162   0.968  15.471  0.1128 -0.1199  0.4697
15816TIP3    H168939   3.155   0.917  15.390  4.3740 -0.3008  0.0057
15816TIP3    H268940   3.206   1.049  15.444  1.4247 -0.0819  2.5292
15817TIP3   OH268941   5.021   1.735   1.964 -0.2397  0.1315 -0.2745
15817TIP3    H168942   4.933   1.764   1.986 -0.1370 -1.1707  2.1083
15817TIP3    H268943   5.075   1.766   2.037  1.1237  0.1132 -1.2419
15818TIP3   OH268944   3.214   0.161   0.801 -0.2509 -0.1725  0.0241
15818TIP3    H168945   3.272   0.104   0.851  0.9345 -0.0854 -1.1900
15818TIP3    H268946   3.233   0.140   0.710 -2.0438 -0.0285 -0.4273
15819TIP3   OH268947   5.350   6.602  11.188  0.4674  0.0626 -0.2600
15819TIP3    H168948   5.291   6.527  11.188  2.2523 -1.4631  1.8315
15819TIP3    H268949   5.435   6.566  11.165  1.4153  1.3930  0.9959
15820TIP3   OH268950   2.359   2.087   5.556 -0.4777  0.6596 -0.4356
15820TIP3    H168951   2.345   1.997   5.526 -2.0080  1.5768 -2.7146
15820TIP3    H268952   2.271   2.122   5.570  0.1175  1.3305  2.1695
15821TIP3   OH268953   0.239   1.423  14.140 -0.3250 -0.0940  0.4738
15821TIP3    H168954   0.209   1.442  14.228  0.2263 -1.0533  0.8848
15821TIP3    H268955   0.267   1.508  14.105 -2.0020  0.5689  0.6222
15822TIP3   OH268956   6.403   0.973   1.787 -0.0975  0.5438  0.9817
15822TIP3    H168957   6.470   1.040   1.777  0.0491  0.1127 -1.5715
15822TIP3    H268958   6.330   1.017   1.830  0.0314  2.3334 -0.5435
15823TIP3   OH268959   5.008   5.711  11.629  0.5778 -0.1004 -0.0465
15823TIP3    H168960   4.929   5.760  11.651  0.2849 -0.3453 -0.5141
15823TIP3    H268961   5.080   5.762  11.666  0.0510 -1.2710  2.8755
15824TIP3   OH268962   3.966   6.308  14.894  0.5885 -0.0698 -0.6164
15824TIP3    H168963   4.051   6.263  14.899  0.7776  0.3374 -0.0799
15824TIP3    H268964   3.924   6.271  14.816  0.7945 -1.0787 -0.2665
15825TIP3   OH268965   0.021   0.852   4.154 -0.2443  0.0629 -0.2270
15825TIP3    H168966   0.031   0.878   4.062  1.2607  0.3822  0.0014
15825TIP3    H268967   0.015   0.756   4.152  0.2139  0.0425 -0.6270
15826TIP3   OH268968   0.173   5.611   2.135  0.2268 -0.9091  0.3684
15826TIP3    H168969   0.247   5.622   2.075 -0.0823  0.5397  0.2092
15826TIP3    H268970   0.102   5.660   2.094 -0.0450 -0.0341  1.8215
15827TIP3   OH268971   5.859   6.293  12.251  0.3403 -0.1769 -0.0530
15827TIP3    H168972   5.919   6.233  12.295 -0.7365 -0.4899  1.0356
15827TIP3    H268973   5.802   6.324  12.320  0.3836  1.5250 -0.7451
15828TIP3   OH268974   0.849   4.078  15.630 -0.1067 -0.1163  0.7616
15828TIP3    H168975   0.755   4.062  15.617 -0.3164  0.2313  1.7255
15828TIP3    H268976   0.889   3.992  15.618 -0.8281 -0.7626  2.5059
15829TIP3   OH268977   4.594   0.996   5.636 -0.3625 -0.0090 -0.3647
15829TIP3    H168978   4.561   1.070   5.585  0.7316 -0.8897 -2.4989
15829TIP3    H268979   4.689   0.998   5.622 -0.1856 -1.0741  0.5672
15830TIP3   OH268980   1.987   2.978  17.247  0.3703 -0.3501 -0.0048
15830TIP3    H168981   2.021   3.024  17.324  0.3797 -1.2866  0.5680
15830TIP3    H268982   2.000   2.886  17.267  0.7745 -0.5953 -1.3350
15831TIP3   OH268983   0.839   0.305   1.691  0.2891  0.1108 -0.1315
15831TIP3    H168984   0.843   0.280   1.784  1.0022 -1.3172 -0.5058
15831TIP3    H268985   0.756   0.351   1.682  0.0209 -0.0703  1.1426
15832TIP3   OH268986   3.966   0.142  16.187  0.2210  0.4189  0.2756
15832TIP3    H168987   4.023   0.189  16.126 -1.2633  2.5601  0.4547
15832TIP3    H268988   4.000   0.163  16.273  2.5198 -2.8704  0.3684
15833TIP3   OH268989   6.396   5.817   0.379  0.3230  0.5432 -0.0214
15833TIP3    H168990   6.440   5.759   0.318 -2.1079  0.6118 -2.0059
15833TIP3    H268991   6.354   5.759   0.443  1.0027  0.3477  0.2505
15834TIP3   OH268992   2.614   2.725  11.287  0.2975  0.2800 -0.2621
15834TIP3    H168993   2.527   2.731  11.325 -0.0021  0.3444 -0.9460
15834TIP3    H268994   2.669   2.777  11.346  0.2292 -1.1375  1.1422
15835TIP3   OH268995   1.055   0.075  12.107 -0.0068 -0.3108  0.3827
15835TIP3    H168996   1.068   0.165  12.137  0.3577  0.5306 -2.0693
15835TIP3    H268997   1.084   0.075  12.016 -1.9957 -2.3848 -0.3703
15836TIP3   OH268998   1.268   5.288   1.258  0.5321 -0.1164 -0.1382
15836TIP3    H168999   1.361   5.309   1.265  0.3708  1.2953 -1.5740
15836TIP3    H269000   1.265   5.210   1.202  0.8407  0.5420 -1.1146
15837TIP3   OH269001   3.017   3.086  14.863 -0.4560  1.0554 -0.1440
15837TIP3    H169002   3.085   3.110  14.800 -1.6961  0.0317 -1.9623
15837TIP3    H269003   2.942   3.141  14.840 -1.1483  0.1840 -0.0518
15838TIP3   OH269004   6.266   3.413  11.137 -0.5435 -0.2879  0.4508
15838TIP3    H169005   6.185   3.448  11.101 -0.4584  0.3348  0.8482
15838TIP3    H269006   6.265   3.321  11.113 -1.0322 -0.1316 -0.1497
15839TIP3   OH269007   0.060   6.257  11.986 -0.3201 -0.5080 -0.3598
15839TIP3    H169008  -0.001   6.184  11.995 -1.1778  0.1004 -0.9745
15839TIP3    H269009   0.032   6.301  11.906  0.6866  0.0294 -0.4320
15840TIP3   OH269010   5.902   3.076  15.157 -0.2251 -0.1089  0.3642
15840TIP3    H169011   5.843   3.039  15.223 -0.6920 -0.5905 -0.3168
15840TIP3    H269012   5.870   3.042  15.074  0.0702  0.8812 -0.1698
15841TIP3   OH269013   1.340   5.384   0.957 -0.2556 -0.1227 -0.1070
15841TIP3    H169014   1.272   5.316   0.956  1.1061 -1.5507 -0.1669
15841TIP3    H269015   1.335   5.425   0.871 -2.8603  1.7802  0.8115
15842TIP3   OH269016   3.478   5.974  14.407 -0.2038 -0.5473 -0.2887
15842TIP3    H169017   3.505   6.052  14.359  0.8006 -0.2709  0.6686
15842TIP3    H269018   3.467   5.907  14.340 -1.4900  0.5086 -1.1692
15843TIP3   OH269019   0.823   1.920   2.236 -0.1698 -0.1920  0.2527
15843TIP3    H169020   0.824   1.829   2.206  1.0289 -0.3418  0.6967
15843TIP3    H269021   0.769   1.966   2.171  0.1249 -1.0195 -0.6042
15844TIP3   OH269022   3.708   6.590  11.653 -0.6594  0.3030  0.6320
15844TIP3    H169023   3.661   6.629  11.727  1.1938  0.1996  1.9225
15844TIP3    H269024   3.800   6.611  11.669  0.2842 -3.0645  0.5245
15845TIP3   OH269025   4.411   2.902   1.612  0.0389 -0.1656  0.7099
15845TIP3    H169026   4.318   2.924   1.602  0.3121  0.2588 -1.6163
15845TIP3    H269027   4.437   2.945   1.693 -2.3360 -2.4660  2.8740
15846TIP3   OH269028   4.375   5.280  14.771 -0.3021  0.0880 -0.3094
15846TIP3    H169029   4.327   5.222  14.712  2.1822 -1.1690 -1.2175
15846TIP3    H269030   4.391   5.228  14.849  1.9411 -0.5413 -1.1287
15847TIP3   OH269031   6.349   3.927  15.691  0.4377 -0.2080 -0.6384
15847TIP3    H169032   6.406   3.997  15.722  0.4760 -0.6391  0.2664
15847TIP3    H269033   6.401   3.847  15.699 -0.5698 -0.7393  1.0763
15848TIP3   OH269034   3.255   3.999  16.594 -0.4250  0.3564 -0.0447
15848TIP3    H169035   3.317   3.979  16.663  0.2135  0.5117 -0.5646
15848TIP3    H269036   3.272   4.090  16.571 -0.1796  0.1206 -0.8489
15849TIP3   OH269037   6.504   2.387   4.448 -0.1289  0.0054  0.1214
15849TIP3    H169038   6.524   2.312   4.503 -1.4527 -0.7611 -0.4016
15849TIP3    H269039   6.418   2.368   4.412 -1.1590  2.4372  1.1033
15850TIP3   OH269040   2.150   1.426   1.918  0.1253  0.4561 -0.0558
15850TIP3    H169041   2.080   1.486   1.944  0.2077  0.8691 -0.7570
15850TIP3    H269042   2.141   1.419   1.823 -0.5687 -1.5096  0.1003
15851TIP3   OH269043   1.653   1.995  17.143  0.8154  0.5195  0.6989
15851TIP3    H169044   1.601   2.065  17.104  0.7310  0.2654  0.3606
15851TIP3    H269045   1.744   2.020  17.124  0.7435 -0.4501 -1.1406
15852TIP3   OH269046   4.716   3.519   3.484 -0.3598  0.3554  0.4167
15852TIP3    H169047   4.776   3.593   3.477 -0.8246  0.5945 -1.5855
15852TIP3    H269048   4.636   3.558   3.521 -0.7501  0.9912 -1.0205
15853TIP3   OH269049   3.337   5.481   2.007  0.4157 -0.0651  0.2270
15853TIP3    H169050   3.407   5.491   2.071  0.9941 -0.5292 -0.3097
15853TIP3    H269051   3.264   5.443   2.057  1.0079 -0.8463  0.5340
15854TIP3   OH269052   5.754   1.583   1.432 -0.0693  0.1233  0.3611
15854TIP3    H169053   5.790   1.554   1.348  0.8562 -0.6803  1.0118
15854TIP3    H269054   5.784   1.518   1.495  2.5887  2.6809  2.0113
15855TIP3   OH269055   1.874   5.871   3.325  0.4807  0.4776 -0.9404
15855TIP3    H169056   1.939   5.813   3.287  0.4057  0.8840 -1.7065
15855TIP3    H269057   1.881   5.952   3.274  2.1520  2.0114  1.4976
15856TIP3   OH269058   1.222   5.758   4.007 -0.1100 -0.1366 -0.2391
15856TIP3    H169059   1.165   5.775   3.932 -0.6077  0.8244  0.3282
15856TIP3    H269060   1.262   5.843   4.026  0.0316 -0.3759  0.5597
15857TIP3   OH269061   5.365   4.555  10.328  0.1738  0.0124  0.5353
15857TIP3    H169062   5.395   4.473  10.289  0.1878  0.7120 -0.9825
15857TIP3    H269063   5.424   4.568  10.403  0.9909 -0.7070  0.0408
15858TIP3   OH269064   5.054   3.366   3.449 -0.6192 -0.2216  0.4056
15858TIP3    H169065   5.014   3.323   3.373  0.4227 -0.7906  0.1551
15858TIP3    H269066   5.024   3.314   3.524 -2.4145  0.8952  0.5286
15859TIP3   OH269067   3.294   5.238  11.954 -0.2016 -0.1532  0.2011
15859TIP3    H169068   3.225   5.210  12.014 -2.6789  0.5111 -2.1648
15859TIP3    H269069   3.283   5.183  11.877  1.6596  0.3071 -0.4431
15860TIP3   OH269070   6.080   4.742  16.672  0.1576  0.1002 -0.2838
15860TIP3    H169071   6.151   4.707  16.618 -0.9092  0.5712 -2.0820
15860TIP3    H269072   6.100   4.711  16.760  0.6786 -2.8406 -1.2912
15861TIP3   OH269073   6.255   2.366   4.300  0.4624 -0.1298 -0.2263
15861TIP3    H169074   6.306   2.367   4.218 -0.1502 -1.1710 -0.6330
15861TIP3    H269075   6.180   2.311   4.281  0.2353 -0.2723  1.0089
15862TIP3   OH269076   5.831   2.651   2.564  0.1751  0.2083 -0.2656
15862TIP3    H169077   5.921   2.622   2.553 -0.0664 -1.1234  0.8233
15862TIP3    H269078   5.838   2.740   2.597  1.2093 -0.5373  1.7369
15863TIP3   OH269079   4.624   2.209   0.649 -0.5182 -0.3770 -0.2214
15863TIP3    H169080   4.570   2.172   0.719 -0.3469  0.8713  0.5938
15863TIP3    H269081   4.563   2.225   0.578 -1.1398  0.5068  0.4917
15864TIP3   OH269082   0.917   0.770  11.911  0.4781 -0.3125 -0.7217
15864TIP3    H169083   0.874   0.853  11.888  1.2724  0.1561 -0.5564
15864TIP3    H269084   0.912   0.717  11.832  1.9546  0.7584 -1.5772
15865TIP3   OH269085   3.224   6.765   5.476  0.2612  0.3770  0.2805
15865TIP3    H169086   3.205   6.679   5.513  0.6544 -0.7682 -1.9932
15865TIP3    H269087   3.138   6.807   5.468 -0.0466 -0.2122  0.4271
15866TIP3   OH269088   1.138   3.037   2.964 -0.1343  0.1617 -0.1016
15866TIP3    H169089   1.063   3.088   2.996 -0.7740  1.4896 -3.2944
15866TIP3    H269090   1.214   3.078   3.005 -0.9522  0.6918  0.9348
15867TIP3   OH269091   0.971   5.207   4.795  0.1534 -0.3283  0.0742
15867TIP3    H169092   1.006   5.161   4.871  0.1546  0.9654  0.8804
15867TIP3    H269093   0.876   5.205   4.807 -0.0171 -2.1087 -1.1017
15868TIP3   OH269094   2.525   4.445   1.226 -0.5229 -0.6957 -0.1528
15868TIP3    H169095   2.611   4.469   1.260  0.1979 -2.1728 -0.8167
15868TIP3    H269096   2.543   4.394   1.147 -2.0794  0.5351 -1.3837
15869TIP3   OH269097   1.059   2.815  16.676 -0.0888  0.0261 -0.0319
15869TIP3    H169098   1.079   2.902  16.641 -0.5677  0.3023  0.3787
15869TIP3    H269099   1.095   2.754  16.611 -1.3288  0.5306 -1.2214
15870TIP3   OH269100   4.413   1.570   0.312  0.1952  0.5373 -0.0224
15870TIP3    H169101   4.371   1.571   0.226 -0.3614 -0.4406  0.2157
15870TIP3    H269102   4.365   1.503   0.361  2.2193 -0.9082  0.1481
15871TIP3   OH269103   5.622   0.087   5.234  0.3687  0.0343  0.3065
15871TIP3    H169104   5.694   0.059   5.178  0.3721 -0.7238  0.6782
15871TIP3    H269105   5.543   0.070   5.182  0.4834  2.7765 -0.9460
15872TIP3   OH269106   2.891   4.030   0.120 -0.4968 -0.2758  0.3491
15872TIP3    H169107   2.882   4.010   0.027 -3.5119  3.4142 -0.3865
15872TIP3    H269108   2.805   4.011   0.157 -0.2951  1.2651  1.6907
15873TIP3   OH269109   2.526   2.215  14.015  0.1177 -0.0257  0.3455
15873TIP3    H169110   2.433   2.199  14.031 -0.0725  1.1584  0.5199
15873TIP3    H269111   2.564   2.226  14.102  0.8322 -2.4506  0.4029
15874TIP3   OH269112   6.618   4.154   4.337 -0.4694  0.0911 -0.4639
15874TIP3    H169113   6.573   4.154   4.252 -0.5482  0.2634 -0.4234
15874TIP3    H269114   6.665   4.237   4.339 -0.2840 -0.0146 -0.4337
15875TIP3   OH269115   4.102   3.894  16.989  0.0359 -0.5933 -0.3739
15875TIP3    H169116   4.155   3.814  16.990  3.0325  1.2148 -0.6036
15875TIP3    H269117   4.122   3.935  16.905 -0.7287  0.8135  0.0967
15876TIP3   OH269118   5.937   1.922  17.051  0.2739 -0.1136 -0.0052
15876TIP3    H169119   5.915   1.979  17.124  1.6863  1.4740 -0.7619
15876TIP3    H269120   6.025   1.949  17.024 -0.6808  0.3000 -3.1171
15877TIP3   OH269121   0.049   1.999  13.422  0.1360  0.4591  0.5929
15877TIP3    H169122  -0.015   2.010  13.492 -1.0358  1.7260 -0.6088
15877TIP3    H269123   0.046   2.082  13.374  1.2768 -0.1856 -0.6418
15878TIP3   OH269124   4.478   4.363  13.350  0.3075 -0.3661 -0.4512
15878TIP3    H169125   4.481   4.332  13.260  0.1643 -0.7925 -0.3143
15878TIP3    H269126   4.552   4.422  13.358 -1.2052  1.8020 -1.6099
15879TIP3   OH269127   3.342   1.839  15.181 -0.3315 -0.2286 -0.2344
15879TIP3    H169128   3.310   1.929  15.172  1.4566  0.2360 -3.1785
15879TIP3    H269129   3.298   1.791  15.110 -0.2584 -1.3891  0.4809
15880TIP3   OH269130   2.571   3.546  13.562  0.5394  0.0801 -0.0136
15880TIP3    H169131   2.588   3.457  13.530  0.5593  0.0340  0.1245
15880TIP3    H269132   2.499   3.577  13.507  1.8145  0.7100 -1.3881
15881TIP3   OH269133   3.549   0.594  13.997  0.0058  0.4340 -0.2671
15881TIP3    H169134   3.589   0.639  14.071 -1.3140 -0.8279  1.3004
15881TIP3    H269135   3.619   0.540  13.960  0.1939 -0.6425  1.5263
15882TIP3   OH269136   2.714   5.493  16.687 -0.4305  0.0354 -0.5319
15882TIP3    H169137   2.706   5.587  16.706 -0.4569 -0.3986  2.0541
15882TIP3    H269138   2.628   5.457  16.707 -0.5357 -0.5048 -1.9032
15883TIP3   OH269139   2.257   3.839  12.330 -0.3816  0.2701  0.1498
15883TIP3    H169140   2.340   3.868  12.293 -0.2370  2.3026  1.9014
15883TIP3    H269141   2.281   3.784  12.404 -0.6005  0.4779  0.3768
15884TIP3   OH269142   5.552   2.706   5.034 -0.0186 -0.0293  0.1739
15884TIP3    H169143   5.470   2.684   5.077 -0.5969 -2.5133 -1.9387
15884TIP3    H269144   5.595   2.622   5.018  2.2378  1.0925 -0.1715
15885TIP3   OH269145   1.715   1.727  15.505 -0.2273  0.2264  0.3752
15885TIP3    H169146   1.808   1.750  15.505 -0.0392 -0.3779 -1.2785
15885TIP3    H269147   1.714   1.634  15.485 -1.2294  0.5109 -1.0092
15886TIP3   OH269148   0.342   3.986  13.323  0.5871  0.0837  0.2843
15886TIP3    H169149   0.335   4.080  13.334 -2.7743 -0.1535  1.0964
15886TIP3    H269150   0.385   3.955  13.402  1.0803  0.8431  0.3225
15887TIP3   OH269151   0.719   3.100   0.911  0.2972  0.0963  0.2252
15887TIP3    H169152   0.718   3.153   0.990  0.8935 -0.6056  0.7190
15887TIP3    H269153   0.808   3.063   0.908  0.2896  0.1206 -0.7787
15888TIP3   OH269154   4.221   4.747  14.242 -0.1512  0.2136  0.2138
15888TIP3    H169155   4.294   4.765  14.302 -0.3290 -0.1179  0.5331
15888TIP3    H269156   4.253   4.675  14.188 -0.6997 -0.7941  1.1908
15889TIP3   OH269157   5.386   0.282  14.288 -0.2871 -0.1788 -0.0151
15889TIP3    H169158   5.351   0.248  14.370 -0.4513 -0.2544 -0.1156
15889TIP3    H269159   5.386   0.207  14.229  0.2867 -0.2407  0.0576
15890TIP3   OH269160   2.868   3.914   5.360 -0.0500 -0.1715  0.5349
15890TIP3    H169161   2.783   3.931   5.399 -0.1887 -1.8383  1.0242
15890TIP3    H269162   2.922   3.988   5.388 -1.4904  1.2936 -0.4009
15891TIP3   OH269163   1.986   1.653   2.017  0.0426  0.5406  0.3838
15891TIP3    H169164   1.944   1.713   1.957  1.7766  0.7884 -0.6337
15891TIP3    H269165   1.936   1.661   2.098 -1.8460  0.7867 -0.7464
15892TIP3   OH269166   0.704   3.344   0.024 -0.6471  0.4193 -0.0219
15892TIP3    H169167   0.716   3.258  -0.016 -2.1193  0.8704 -1.5808
15892TIP3    H269168   0.776   3.353   0.086  1.5174 -0.5278 -2.2616
15893TIP3   OH269169   6.288   5.526   1.696 -0.1865  0.3142 -0.3560
15893TIP3    H169170   6.319   5.438   1.714 -3.0689 -1.0387 -1.4282
15893TIP3    H269171   6.362   5.570   1.654  1.3665 -1.4869  0.3733
15894TIP3   OH269172   0.953   1.909  12.445 -0.1838 -0.0073 -0.2223
15894TIP3    H169173   1.022   1.971  12.467  0.8487 -1.2554  0.1480
15894TIP3    H269174   0.980   1.870  12.362 -0.8230  0.0223 -0.4554
15895TIP3   OH269175   3.693   6.622   0.383  0.1951 -0.4259 -0.5199
15895TIP3    H169176   3.646   6.624   0.466  1.4859  0.6762  0.2377
15895TIP3    H269177   3.759   6.554   0.393 -1.0745 -1.8708 -1.5252
15896TIP3   OH269178   6.327   3.220  16.874 -0.2005  0.1095  0.4001
15896TIP3    H169179   6.368   3.251  16.955 -1.7510 -1.8936  2.0419
15896TIP3    H269180   6.268   3.291  16.849 -0.0808  0.5457  1.3016
15897TIP3   OH269181   4.733   4.297  11.212  0.0306 -0.1378 -0.6114
15897TIP3    H169182   4.777   4.342  11.139  1.5737  1.1687  1.0288
15897TIP3    H269183   4.731   4.362  11.282  0.0248 -1.8267  1.0239
15898TIP3   OH269184   0.166   3.393  11.853  0.1963  0.0169 -0.3452
15898TIP3    H169185   0.246   3.383  11.801  0.1203  1.4612 -0.7783
15898TIP3    H269186   0.128   3.476  11.824  0.2792  1.0467  2.1730
15899TIP3   OH269187   1.900   2.229   5.043 -0.2525  0.8434 -0.4908
15899TIP3    H169188   1.856   2.148   5.017  2.2265 -1.0591  0.8331
15899TIP3    H269189   1.863   2.296   4.984 -1.0165 -1.5836 -2.9921
15900TIP3   OH269190   2.236   1.915   0.929 -0.4991  0.6178 -0.0300
15900TIP3    H169191   2.183   1.837   0.909 -0.4638  1.1679 -2.6572
15900TIP3    H269192   2.175   1.974   0.975 -0.7537 -0.5900  1.2539
15901TIP3   OH269193   4.529   5.868   4.587  0.1505  0.5347 -0.5071
15901TIP3    H169194   4.557   5.956   4.559  2.2989 -0.0148 -0.2989
15901TIP3    H269195   4.587   5.847   4.661  0.9276 -1.7298 -1.6597
15902TIP3   OH269196   4.107   5.910  16.762  0.3024  0.5088  0.3942
15902TIP3    H169197   4.125   5.821  16.731 -0.7250  0.6191 -0.5699
15902TIP3    H269198   4.193   5.946  16.782  0.6837 -0.9675  1.5960
15903TIP3   OH269199   5.753   1.287   6.400 -0.0869 -0.1730 -0.2990
15903TIP3    H169200   5.709   1.288   6.485 -1.4516 -0.5669 -0.9811
15903TIP3    H269201   5.688   1.321   6.339 -0.2483 -2.7315 -1.6813
15904TIP3   OH269202   1.366   0.431   3.745 -0.2073 -0.0096 -0.1693
15904TIP3    H169203   1.451   0.471   3.765 -0.0656  0.1910 -1.0898
15904TIP3    H269204   1.372   0.342   3.778  0.5107 -0.1090 -0.5491
15905TIP3   OH269205   3.779   2.937  12.671  0.3026 -0.1115  0.6031
15905TIP3    H169206   3.799   2.925  12.578 -1.1535 -0.5110  0.3146
15905TIP3    H269207   3.753   3.029  12.679 -3.6742 -0.9701 -0.2944
15906TIP3   OH269208   5.652   0.511   2.734 -0.2056  0.5347  0.0324
15906TIP3    H169209   5.674   0.516   2.641  0.4840  1.7197  0.2370
15906TIP3    H269210   5.733   0.481   2.776 -0.7132 -0.6638  0.1953
15907TIP3   OH269211   0.560   3.985  13.000  0.3474 -0.2586  0.5194
15907TIP3    H169212   0.540   3.895  13.026 -0.6520 -0.0382  0.5533
15907TIP3    H269213   0.533   3.990  12.908  2.0980 -0.4941 -0.0377
15908TIP3   OH269214   5.770   4.747   4.037  0.3117 -0.4201  0.3269
15908TIP3    H169215   5.706   4.756   3.966  0.2806 -0.6435  0.3261
15908TIP3    H269216   5.769   4.832   4.082  1.4595  0.2927 -0.8915
15909TIP3   OH269217   5.084   5.788  15.651 -0.0162  0.0595  0.0450
15909TIP3    H169218   5.006   5.844  15.650  0.9571  1.5808  2.2097
15909TIP3    H269219   5.154   5.842  15.615  0.5921 -0.3508  0.5820
15910TIP3   OH269220   4.247   5.405   5.486  0.0897  0.2145  0.6299
15910TIP3    H169221   4.341   5.424   5.479  0.2182 -0.7498 -0.5952
15910TIP3    H269222   4.238   5.316   5.453 -1.2635  0.2670  0.7928
15911TIP3   OH269223   4.385   6.599   3.341  0.3654 -0.4140 -0.4119
15911TIP3    H169224   4.295   6.570   3.359  0.7318 -0.3072  1.8504
15911TIP3    H269225   4.409   6.553   3.261 -2.2254  0.7402 -1.9867
15912TIP3   OH269226   5.199   2.893  13.455  0.3214 -0.1223  0.2981
15912TIP3    H169227   5.224   2.828  13.390 -1.0261  0.7422 -1.1857
15912TIP3    H269228   5.215   2.977  13.412 -1.6700  0.4674  0.6100
15913TIP3   OH269229   6.217   4.475  16.028 -0.0645  0.1284 -0.3867
15913TIP3    H169230   6.307   4.507  16.022 -0.6034  1.5077 -2.3499
15913TIP3    H269231   6.180   4.491  15.941 -2.6242  0.8782  0.7296
15914TIP3   OH269232   0.044   6.803  12.527 -0.0532 -0.4634  0.0848
15914TIP3    H169233   0.078   6.820  12.439  0.1541  1.3585  0.4825
15914TIP3    H269234  -0.047   6.830  12.523  0.1357  0.2882  0.5904
15915TIP3   OH269235   5.116   2.290  15.853  0.2044 -0.0923  0.8808
15915TIP3    H169236   5.181   2.334  15.907  2.0528 -1.8251  0.1894
15915TIP3    H269237   5.094   2.353  15.785  1.1115  0.5563  1.1774
15916TIP3   OH269238   5.276   3.588  13.256  0.5942  0.6805 -0.3107
15916TIP3    H169239   5.303   3.578  13.165  1.1690 -1.8801  0.0719
15916TIP3    H269240   5.184   3.562  13.257  1.3048 -2.1979  0.1966
15917TIP3   OH269241   2.381   5.957   2.603  0.1102 -0.0485  0.3617
15917TIP3    H169242   2.414   5.897   2.537  1.3750  0.2630  0.6913
15917TIP3    H269243   2.286   5.948   2.598  0.0177  1.2464 -2.7608
15918TIP3   OH269244   4.629   0.526   0.339  0.0800  0.4084  0.2675
15918TIP3    H169245   4.577   0.604   0.320 -0.8715 -0.3270 -0.1795
15918TIP3    H269246   4.683   0.514   0.261  0.7855  1.0408  0.6414
15919TIP3   OH269247   4.515   3.812  10.252  0.2602 -0.3558  0.7945
15919TIP3    H169248   4.479   3.876  10.191  0.4674  0.1554  1.1988
15919TIP3    H269249   4.527   3.861  10.334 -0.5985 -1.1809  1.4375
15920TIP3   OH269250   1.050   0.031   4.362 -0.3575 -0.7815  0.3418
15920TIP3    H169251   1.104  -0.029   4.311  0.5859 -0.1553  0.5784
15920TIP3    H269252   1.055   0.114   4.315 -0.2811 -0.4515  0.9200
15921TIP3   OH269253   3.724   5.780   0.142 -0.0100  0.7691  0.4762
15921TIP3    H169254   3.751   5.871   0.127  1.1076  0.1527 -1.5412
15921TIP3    H269255   3.709   5.744   0.055 -3.7878 -0.0894  1.3229
15922TIP3   OH269256   6.675   3.816  13.925 -0.4723 -0.7092 -0.3092
15922TIP3    H169257   6.723   3.897  13.942 -0.6847 -0.4079 -1.0742
15922TIP3    H269258   6.584   3.844  13.914 -0.3486 -0.8320 -1.9958
15923TIP3   OH269259   6.597   2.544  14.537 -0.1442  0.1082 -0.3385
15923TIP3    H169260   6.549   2.463  14.520  0.5891 -0.3170 -0.4338
15923TIP3    H269261   6.602   2.587  14.452 -0.1063  0.0093 -0.3871
15924TIP3   OH269262   3.988   0.378   0.532 -0.4701  0.0177  0.3682
15924TIP3    H169263   4.059   0.395   0.594 -0.6175 -2.1005  1.2063
15924TIP3    H269264   3.958   0.290   0.553 -1.5752 -0.1840 -1.7274
15925TIP3   OH269265   3.630   0.157  16.285 -0.2158 -0.2704  0.0508
15925TIP3    H169266   3.631   0.228  16.221 -0.4710  0.2108  0.5733
15925TIP3    H269267   3.680   0.191  16.359 -3.6441  1.0416  2.0251
15926TIP3   OH269268   1.116   0.876   1.376 -0.1365 -0.3548 -0.0756
15926TIP3    H169269   1.137   0.969   1.367 -0.3469 -0.2793  0.2194
15926TIP3    H269270   1.170   0.833   1.310  1.2632 -0.1997  0.9234
15927TIP3   OH269271   5.437   2.455   1.005  0.1087 -0.0015 -0.6282
15927TIP3    H169272   5.397   2.426   0.923  0.6089 -3.1068  0.1086
15927TIP3    H269273   5.369   2.443   1.071  1.4195 -3.4199  0.3018
15928TIP3   OH269274   3.254   3.820  14.605  0.5258 -0.3231 -0.0192
15928TIP3    H169275   3.343   3.795  14.581  1.3260  0.9540  1.4730
15928TIP3    H269276   3.241   3.780  14.691 -0.8908 -1.6444 -0.7912
15929TIP3   OH269277   1.249   1.030  17.181  0.3665  0.3033  1.1455
15929TIP3    H169278   1.321   1.020  17.118  0.0210 -1.0653  0.9344
15929TIP3    H269279   1.170   1.011  17.131 -0.2671  2.4495  1.2044
15930TIP3   OH269280   4.336   3.328   3.730  0.2719  0.5209  0.1173
15930TIP3    H169281   4.274   3.257   3.747  2.1293 -1.4319 -0.8322
15930TIP3    H269282   4.332   3.341   3.635  2.7710 -1.1782 -0.3129
15931TIP3   OH269283   6.628   0.027   4.481 -0.4792 -0.2606 -0.0843
15931TIP3    H169284   6.652  -0.046   4.538  0.2120  1.6726  2.2431
15931TIP3    H269285   6.613   0.100   4.540  0.6963  2.0136 -2.4041
15932TIP3   OH269286   1.402   4.126  15.070  0.3423 -0.0365  0.3517
15932TIP3    H169287   1.448   4.165  15.145  0.9204  2.3174 -1.1354
15932TIP3    H269288   1.446   4.162  14.993 -0.4499 -2.1259 -1.1757
15933TIP3   OH269289   0.065   1.811   2.817 -0.0871 -0.8746 -0.0600
15933TIP3    H169290  -0.015   1.864   2.812  0.0876 -0.4704  1.1248
15933TIP3    H269291   0.033   1.722   2.830 -0.3553 -0.7023  0.4976
15934TIP3   OH269292   5.402   2.369   3.833 -0.6467 -0.3942 -0.3105
15934TIP3    H169293   5.320   2.343   3.876  0.0005 -1.3054  0.4094
15934TIP3    H269294   5.417   2.459   3.862 -0.8294 -0.5956  0.4269
15935TIP3   OH269295   0.820   5.048  15.341 -0.2063  0.6680  0.6061
15935TIP3    H169296   0.795   5.079  15.427  0.9717  0.1587  1.1458
15935TIP3    H269297   0.915   5.055  15.339 -0.2837  1.8963 -1.1405
15936TIP3   OH269298   2.469   6.746  11.148  0.1505  0.4091  0.9786
15936TIP3    H169299   2.529   6.698  11.090 -0.4878  0.2762  0.4124
15936TIP3    H269300   2.491   6.716  11.236  0.7123  0.1413  0.7511
15937TIP3   OH269301   3.037   2.076   0.047 -0.4752  0.2231  0.0430
15937TIP3    H169302   3.076   2.050  -0.037  0.8863  0.4140  0.5938
15937TIP3    H269303   3.087   2.029   0.113 -0.6048  1.1569  0.8324
15938TIP3   OH269304   1.672   0.593   4.187 -0.4419  0.1584  0.4507
15938TIP3    H169305   1.729   0.635   4.123  0.2528 -0.4709  0.6456
15938TIP3    H269306   1.672   0.653   4.262  0.0521  0.1179  0.4889
15939TIP3   OH269307   3.444   4.416  10.699 -0.0468  0.0701 -0.1683
15939TIP3    H169308   3.504   4.445  10.768  2.1316 -1.1790 -1.4081
15939TIP3    H269309   3.420   4.327  10.724  1.6815 -0.8332 -1.4869
15940TIP3   OH269310   0.287   1.553   3.553  0.1640  0.0811  0.0489
15940TIP3    H169311   0.376   1.564   3.520 -0.3626  1.5094 -1.0310
15940TIP3    H269312   0.294   1.570   3.647  1.4403 -2.5500  0.5212
15941TIP3   OH269313   2.816   5.543  16.398 -0.1424  0.3479  0.0473
15941TIP3    H169314   2.813   5.637  16.380  0.2856  0.2231 -0.7147
15941TIP3    H269315   2.835   5.537  16.492 -0.9895  1.0114  0.2745
15942TIP3   OH269316   0.650   5.632   4.469  0.3473 -0.2139  0.0163
15942TIP3    H169317   0.699   5.551   4.485 -0.1613 -0.5260  0.0260
15942TIP3    H269318   0.559   5.609   4.492  0.0521  0.1063 -0.8154
15943TIP3   OH269319   3.449   1.101   1.760  0.4116  0.0175  0.2253
15943TIP3    H169320   3.523   1.042   1.771 -1.2630 -2.0799  0.9723
15943TIP3    H269321   3.477   1.164   1.693  1.9349 -2.2870 -1.4208
15944TIP3   OH269322   1.406   1.581  15.850  0.1261  0.5768  0.2453
15944TIP3    H169323   1.434   1.672  15.860 -1.7929  1.2277  0.0626
15944TIP3    H269324   1.343   1.567  15.921  0.1762 -0.5235  0.0901
15945TIP3   OH269325   1.249   4.659  16.552  0.3693 -0.1096 -0.1582
15945TIP3    H169326   1.199   4.591  16.507  1.7289  0.0350 -1.9976
15945TIP3    H269327   1.314   4.612  16.604  0.4099 -0.2415 -0.3272
15946TIP3   OH269328   2.851   3.876   1.439  0.4364 -0.0268 -0.2244
15946TIP3    H169329   2.756   3.889   1.438  0.5376  0.8806  0.2282
15946TIP3    H269330   2.886   3.962   1.414  1.1344 -0.4667 -0.7778
15947TIP3   OH269331   3.994   2.009  13.294  0.2907 -0.6738 -0.9121
15947TIP3    H169332   3.979   2.088  13.242  3.2052  0.9196  0.4281
15947TIP3    H269333   3.906   1.974  13.312 -1.1107  2.2960 -1.4805
15948TIP3   OH269334   4.584   3.569  14.180  0.4507 -0.0244 -0.0177
15948TIP3    H169335   4.547   3.505  14.119 -0.9886  0.4464  0.3253
15948TIP3    H269336   4.640   3.518  14.239 -0.1397 -0.8537 -0.1744
15949TIP3   OH269337   5.423   4.131   1.815  0.4922  0.2156  0.3703
15949TIP3    H169338   5.409   4.220   1.846 -0.2447 -0.0234  0.7516
15949TIP3    H269339   5.503   4.136   1.763  0.7564  0.9846  0.8355
15950TIP3   OH269340   3.511   4.390  10.438  0.1493 -0.2832 -0.1250
15950TIP3    H169341   3.503   4.404  10.532  0.0501 -0.4854 -0.1021
15950TIP3    H269342   3.421   4.383  10.407  0.1548  0.6599 -0.3734
15951TIP3   OH269343   4.342   0.302  10.756  0.1228  0.3021  0.2400
15951TIP3    H169344   4.296   0.218  10.761  1.7254 -0.6653 -0.4819
15951TIP3    H269345   4.277   0.366  10.785 -1.1760 -1.1610  0.7465
15952TIP3   OH269346   1.730   4.118   0.478  0.3856 -0.3826  0.2088
15952TIP3    H169347   1.655   4.176   0.467  1.8329  1.5797  0.0882
15952TIP3    H269348   1.717   4.078   0.564 -0.0169  1.1811  0.9157
15953TIP3   OH269349   0.251   6.694  13.213  0.1514  0.4576 -0.5148
15953TIP3    H169350   0.329   6.749  13.208 -0.1362  0.8954 -0.2685
15953TIP3    H269351   0.195   6.726  13.143  0.0482  0.3809 -0.4674
15954TIP3   OH269352   2.898   4.291  12.299 -0.0189  0.1617 -0.3010
15954TIP3    H169353   2.818   4.319  12.343 -0.4999  1.6018 -1.9977
15954TIP3    H269354   2.870   4.222  12.239  0.1410  0.2175 -0.4397
15955TIP3   OH269355   3.395   0.682  13.416  0.1697 -0.0106  0.3316
15955TIP3    H169356   3.349   0.630  13.350 -0.1379  0.1444  0.4178
15955TIP3    H269357   3.355   0.769  13.410  1.4896  0.5555 -0.6259
15956TIP3   OH269358   3.176   4.635   5.038 -0.1917  0.6611  0.3364
15956TIP3    H169359   3.183   4.540   5.051 -0.1296  0.4990 -0.7333
15956TIP3    H269360   3.226   4.673   5.110 -0.8004 -0.0966  1.1769
15957TIP3   OH269361   3.661   6.584   3.671  0.3057 -0.1742  0.0496
15957TIP3    H169362   3.704   6.498   3.669 -1.2137 -0.9498 -1.4124
15957TIP3    H269363   3.666   6.616   3.582 -1.3019  0.0996  0.0181
15958TIP3   OH269364   0.051   5.432  11.555 -0.2471  0.9666  0.0099
15958TIP3    H169365  -0.011   5.453  11.486  0.6591  1.7833 -0.5773
15958TIP3    H269366   0.122   5.386  11.510 -1.2767 -1.7453  0.9627
15959TIP3   OH269367   0.574   1.252   2.567  0.2295  0.3853 -0.0558
15959TIP3    H169368   0.530   1.202   2.498  2.7128  0.1043 -1.5537
15959TIP3    H269369   0.657   1.280   2.528  1.0001  1.6698  2.2917
15960TIP3   OH269370   5.366   0.267  16.216  0.0640 -0.3453 -0.0219
15960TIP3    H169371   5.458   0.245  16.199 -0.0300 -0.2916 -0.6370
15960TIP3    H269372   5.333   0.194  16.268  0.8009  0.2714  1.3480
15961TIP3   OH269373   0.306   4.632   3.284  0.1154 -0.3076 -0.3764
15961TIP3    H169374   0.268   4.705   3.333  0.2598 -1.5997  1.7677
15961TIP3    H269375   0.378   4.671   3.235 -1.0796  1.3408 -0.9393
15962TIP3   OH269376   3.706   5.298  15.756 -0.1462 -0.3729  0.3457
15962TIP3    H169377   3.686   5.291  15.849 -1.9689 -1.4700 -0.0772
15962TIP3    H269378   3.768   5.227  15.740 -0.2149 -0.4980  0.6236
15963TIP3   OH269379   5.337   1.357   5.031  0.4234  0.2996  0.3404
15963TIP3    H169380   5.399   1.283   5.034 -0.0192 -0.2414 -1.9451
15963TIP3    H269381   5.262   1.327   5.082 -0.8121 -1.9994 -2.5174
15964TIP3   OH269382   0.880   6.591   3.604 -0.0373  0.8652  0.2811
15964TIP3    H169383   0.924   6.521   3.653 -1.6465  1.0933  2.2085
15964TIP3    H269384   0.838   6.546   3.530  0.6808  0.1413  0.2952
15965TIP3   OH269385   3.282   1.456   1.571 -0.6739 -0.2767 -0.6574
15965TIP3    H169386   3.296   1.421   1.659 -3.0844 -0.8085 -0.4094
15965TIP3    H269387   3.207   1.407   1.538 -0.3844  0.5603 -2.6609
15966TIP3   OH269388   0.345   2.481   4.819  0.0577 -0.3422 -0.8079
15966TIP3    H169389   0.414   2.453   4.759  0.7407 -2.2096  0.7548
15966TIP3    H269390   0.391   2.498   4.901 -1.1102  0.2666 -0.2619
15967TIP3   OH269391   1.760   3.226  11.285 -0.3052  0.3323  0.5285
15967TIP3    H169392   1.705   3.196  11.357 -1.1278  0.4411 -0.0434
15967TIP3    H269393   1.702   3.279  11.231  0.4876  0.8490  0.1681
15968TIP3   OH269394   1.705   0.927   5.150 -0.5962 -0.0836 -0.5732
15968TIP3    H169395   1.778   0.896   5.204  0.3906 -1.1732 -2.4266
15968TIP3    H269396   1.747   0.967   5.074 -1.9430  1.0924 -0.7240
15969TIP3   OH269397   5.706   2.710  14.899 -0.3229  0.4565 -0.1107
15969TIP3    H169398   5.715   2.788  14.954  0.9303 -2.0870  3.6773
15969TIP3    H269399   5.658   2.648  14.954  0.0861 -1.9994 -2.3547
15970TIP3   OH269400   4.076   2.824   2.821  0.2848  0.0947  0.0494
15970TIP3    H169401   4.165   2.792   2.809  0.9130  2.0717 -1.1104
15970TIP3    H269402   4.034   2.812   2.736 -0.3453 -0.1604  0.3828
15971TIP3   OH269403   2.400   6.663   4.174  0.7281  0.7225  0.2718
15971TIP3    H169404   2.421   6.693   4.085  1.2554  0.9463  0.4641
15971TIP3    H269405   2.399   6.567   4.167 -2.5901  0.7135 -0.7077
15972TIP3   OH269406   6.373   3.319   0.300  0.4332  0.2609 -0.2784
15972TIP3    H169407   6.307   3.386   0.284 -0.6388 -0.1918  1.9567
15972TIP3    H269408   6.368   3.301   0.394  2.1149 -1.4903 -0.4547
15973TIP3   OH269409   1.461   6.298   2.319  0.3814  0.0962  0.7187
15973TIP3    H169410   1.440   6.390   2.335 -0.5311 -0.0573  0.4678
15973TIP3    H269411   1.507   6.270   2.398 -0.1773  0.5157  1.2070
15974TIP3   OH269412   0.900   5.785  11.427 -0.2838  0.3012  0.2224
15974TIP3    H169413   0.873   5.726  11.356  0.7318 -0.9809  0.8742
15974TIP3    H269414   0.952   5.852  11.383 -0.5287  0.1059 -0.3895
15975TIP3   OH269415   2.085   1.012   4.487 -0.0711 -0.2100  0.0025
15975TIP3    H169416   2.111   1.100   4.458 -0.0653 -0.3610 -0.4640
15975TIP3    H269417   2.166   0.972   4.518 -0.1343  0.0676  0.5320
15976TIP3   OH269418   6.415   4.180   0.592  0.7769  0.0179 -0.0681
15976TIP3    H169419   6.507   4.152   0.587  0.6253 -0.3575 -1.0791
15976TIP3    H269420   6.379   4.130   0.666  0.6470 -2.1712 -1.5001
15977TIP3   OH269421   1.579   3.733  11.319 -0.5074  0.0569 -0.2362
15977TIP3    H169422   1.562   3.714  11.227 -0.3288  2.5660 -0.8459
15977TIP3    H269423   1.668   3.767  11.321  0.0985 -1.4718  1.1515
15978TIP3   OH269424   0.745   6.093   3.458 -0.4655  0.1984 -0.2105
15978TIP3    H169425   0.715   6.054   3.376 -1.1222 -0.2370  0.2259
15978TIP3    H269426   0.679   6.160   3.479  0.9406  1.9792 -1.2389
15979TIP3   OH269427   1.254   5.611  12.298 -0.3561 -0.1146  0.0680
15979TIP3    H169428   1.162   5.627  12.316 -0.6983 -0.0174 -1.5745
15979TIP3    H269429   1.256   5.524  12.258  0.5339 -0.9705  1.8378
15980TIP3   OH269430   6.022   2.522  12.132 -0.1714 -0.4671  0.7094
15980TIP3    H169431   6.042   2.509  12.040 -0.1150 -0.0558  0.6621
15980TIP3    H269432   5.967   2.600  12.134  0.2319 -0.1891  1.0670
15981TIP3   OH269433   5.549   4.198   3.650 -0.0382 -0.3631  0.5259
15981TIP3    H169434   5.617   4.133   3.667 -0.8961 -1.3896  0.1409
15981TIP3    H269435   5.523   4.228   3.738 -0.4910 -1.4624  0.7855
15982TIP3   OH269436   1.544   6.292   4.454 -0.3841 -0.0381 -0.6470
15982TIP3    H169437   1.515   6.362   4.396  0.4628  0.9692  0.1114
15982TIP3    H269438   1.569   6.221   4.394 -0.8728  0.4458 -1.4439
15983TIP3   OH269439   6.259   5.818  15.577 -0.2550  0.4684 -0.1329
15983TIP3    H169440   6.171   5.798  15.544  0.3978 -2.7463 -0.2159
15983TIP3    H269441   6.317   5.796  15.505  0.7877 -0.4364  0.9459
15984TIP3   OH269442   4.246   0.744  14.102  0.1357  0.5910  0.1768
15984TIP3    H169443   4.253   0.651  14.124  0.2763  0.5470 -0.0577
15984TIP3    H269444   4.157   0.767  14.129  0.1193  0.4046  0.2898
15985TIP3   OH269445   2.134   2.566  13.547 -0.4633 -0.1498 -0.2922
15985TIP3    H169446   2.082   2.645  13.534 -1.0192 -0.2487  1.0692
15985TIP3    H269447   2.200   2.591  13.611 -0.9400 -0.8882  0.5139
15986TIP3   OH269448   6.722   2.754   3.854  0.8599 -0.6309  0.3279
15986TIP3    H169449   6.810   2.778   3.886  1.3208 -0.9153 -0.7040
15986TIP3    H269450   6.737   2.721   3.766 -0.3887  0.0347 -0.1455
15987TIP3   OH269451   5.759   0.544  12.723  0.4493 -0.0959  0.2252
15987TIP3    H169452   5.808   0.488  12.784 -0.1219 -1.0167 -0.1439
15987TIP3    H269453   5.759   0.495  12.641  1.4533  1.2532 -0.6291
15988TIP3   OH269454   5.946   2.301  14.961  0.1553  0.1413  0.0713
15988TIP3    H169455   5.959   2.370  15.026 -1.3107  2.1414 -1.6107
15988TIP3    H269456   5.855   2.310  14.935  0.7079 -0.4932 -2.3249
15989TIP3   OH269457   3.072   1.919  17.024  0.3158 -0.0917  0.0421
15989TIP3    H169458   3.053   1.843  17.079 -1.6306  1.2122  1.3104
15989TIP3    H269459   3.002   1.918  16.958  2.2058 -1.2254 -2.0735
15990TIP3   OH269460   3.794   4.779  11.290 -0.2800  0.2780 -0.2725
15990TIP3    H169461   3.772   4.686  11.282  1.4278 -0.2686  0.9681
15990TIP3    H269462   3.760   4.804  11.376 -0.0071  0.5816 -0.2540
15991TIP3   OH269463   2.412   5.354   5.566  0.5509 -0.0633  1.0488
15991TIP3    H169464   2.488   5.361   5.624  0.8455  1.1937  0.5583
15991TIP3    H269465   2.447   5.318   5.485  0.5832  0.2627  0.9146
15992TIP3   OH269466   1.958   1.527  13.395  0.1127  0.4174 -0.2567
15992TIP3    H169467   1.987   1.447  13.440 -0.0791  1.5945  2.0944
15992TIP3    H269468   1.869   1.507  13.366  0.3239 -0.4453 -0.3450
15993TIP3   OH269469   2.895   0.934   0.622  0.0303  0.0058  0.1360
15993TIP3    H169470   2.955   0.916   0.695  1.0097  2.9919  0.2111
15993TIP3    H269471   2.825   0.986   0.660 -0.9849 -0.8348 -0.5452
15994TIP3   OH269472   1.444   0.436   2.181  0.5264 -0.4920  0.2568
15994TIP3    H169473   1.399   0.354   2.197  0.3394 -0.1809  1.3813
15994TIP3    H269474   1.537   0.412   2.172  0.5536 -0.7582  1.1961
15995TIP3   OH269475   3.484   2.752   4.320 -0.2079 -0.3054 -0.1111
15995TIP3    H169476   3.451   2.829   4.274  0.5037 -0.9513 -1.7756
15995TIP3    H269477   3.575   2.773   4.340  0.3721 -1.1555 -1.7011
15996TIP3   OH269478   3.366   5.008  12.586  0.0647  0.1522  0.2876
15996TIP3    H169479   3.356   5.014  12.491  0.5562 -0.9704  0.1568
15996TIP3    H269480   3.460   5.010  12.601  0.0775 -1.6794  0.5982
15997TIP3   OH269481   5.286   0.684  15.222 -0.0298  0.0896 -0.1162
15997TIP3    H169482   5.345   0.612  15.242  0.8385  0.5043 -1.1001
15997TIP3    H269483   5.238   0.656  15.144 -2.7568 -1.1506  1.8591
15998TIP3   OH269484   0.090   5.379   6.277  0.1864  0.0861  0.1113
15998TIP3    H169485   0.157   5.338   6.222  0.6029 -0.5593  1.0780
15998TIP3    H269486   0.090   5.328   6.358 -0.2930  1.1197  0.7898
15999TIP3   OH269487   3.849   6.205  10.510 -0.0264 -0.2073  0.0352
15999TIP3    H169488   3.833   6.285  10.561  0.7752 -0.4917  0.7551
15999TIP3    H269489   3.764   6.182  10.475 -0.3981  0.5931  0.3799
16000TIP3   OH269490   4.672   1.771  12.163  0.1777 -0.1922 -0.6241
16000TIP3    H169491   4.611   1.747  12.233  1.5416  1.0150  1.0851
16000TIP3    H269492   4.622   1.762  12.082 -2.8372  2.4021  0.7640
16001TIP3   OH269493   2.472   6.111   4.444  0.3723  0.1926 -0.5495
16001TIP3    H169494   2.477   6.021   4.475  1.6576 -0.3955 -2.2783
16001TIP3    H269495   2.383   6.140   4.465  1.0327 -0.1488  3.3716
16002TIP3   OH269496   0.368   2.333   2.456 -0.5055  0.5472  0.5216
16002TIP3    H169497   0.322   2.264   2.504  0.0713 -0.2137  0.0084
16002TIP3    H269498   0.317   2.343   2.375 -1.3188  1.6336  1.1482
16003TIP3   OH269499   4.419   5.054  13.330 -0.5989 -0.3119 -0.2866
16003TIP3    H169500   4.337   5.005  13.336 -0.2607 -0.9601 -0.7656
16003TIP3    H269501   4.479   5.006  13.388  1.1530 -3.4618 -4.2384
16004TIP3   OH269502   0.852   3.779  16.776 -0.4173  0.5376  0.2170
16004TIP3    H169503   0.868   3.730  16.856 -1.0390  2.9718  1.9584
16004TIP3    H269504   0.756   3.787  16.771 -0.3699  0.7407 -0.5446
16005TIP3   OH269505   3.128   2.956   4.775 -0.6038 -0.2508  0.1605
16005TIP3    H169506   3.141   3.051   4.766  0.1344 -0.0647  2.6074
16005TIP3    H269507   3.177   2.919   4.702 -2.7186  1.2549 -2.2260
16006TIP3   OH269508   0.366   6.037   3.001 -0.1534 -0.0474  0.4690
16006TIP3    H169509   0.444   5.999   2.962 -0.8720  0.5352 -1.7283
16006TIP3    H269510   0.388   6.129   3.015 -0.4446  0.1452 -0.2640
16007TIP3   OH269511   0.234   6.338   3.760 -0.5724  0.7993  0.4703
16007TIP3    H169512   0.170   6.365   3.826 -1.7961  1.7881 -1.0703
16007TIP3    H269513   0.263   6.420   3.720 -1.7894  0.1117 -1.9725
16008TIP3   OH269514   1.604   2.976   1.052  0.1591 -0.0148  0.2351
16008TIP3    H169515   1.620   2.896   1.000 -1.5121  0.3028 -0.8685
16008TIP3    H269516   1.659   3.042   1.010  0.1935 -0.1744  0.0221
16009TIP3   OH269517   4.186   2.911  16.942 -0.0860  0.3139  0.5481
16009TIP3    H169518   4.208   2.820  16.925  0.1658  0.5152 -0.2676
16009TIP3    H269519   4.122   2.908  17.012  0.8189 -0.4226  1.3633
16010TIP3   OH269520   3.086   4.630   1.812 -0.4353  0.0122  0.3531
16010TIP3    H169521   3.028   4.592   1.878 -0.9839 -1.6183 -1.0170
16010TIP3    H269522   3.067   4.724   1.815 -1.4912 -0.2144  1.4913
16011TIP3   OH269523   3.870   0.282  17.155 -0.7264  0.2191 -0.5664
16011TIP3    H169524   3.789   0.252  17.195 -1.3725  1.3318 -1.0121
16011TIP3    H269525   3.889   0.217  17.088 -0.4043 -0.8811  0.5555
16012TIP3   OH269526   6.710   4.115   3.933 -0.5551  0.2432  0.0832
16012TIP3    H169527   6.686   4.155   4.017  1.1579  0.9086  0.2849
16012TIP3    H269528   6.711   4.021   3.951 -1.7492  0.2654  0.3758
16013TIP3   OH269529   2.190   0.810   3.890 -0.2640  0.4671 -0.4146
16013TIP3    H169530   2.164   0.899   3.866 -0.2067  0.3667 -0.8538
16013TIP3    H269531   2.195   0.763   3.807 -1.6511 -0.3148 -0.0714
16014TIP3   OH269532   6.789   4.210   5.111 -0.1321 -0.4523 -0.4492
16014TIP3    H169533   6.796   4.266   5.188 -0.5206  0.9356 -1.3958
16014TIP3    H269534   6.880   4.184   5.092 -0.1080 -1.5503  0.9592
16015TIP3   OH269535   1.384   6.250  14.974 -0.3002  0.3280  0.1614
16015TIP3    H169536   1.350   6.302  15.047 -0.5965 -1.1804  1.1255
16015TIP3    H269537   1.364   6.159  14.997 -1.6699 -0.1292 -2.4449
16016TIP3   OH269538   6.144   4.076  11.750 -0.2801  0.6823  0.7155
16016TIP3    H169539   6.217   4.044  11.802  0.6315 -0.2917 -1.0620
16016TIP3    H269540   6.147   4.171  11.759  0.9362  0.6267  1.0442
16017TIP3   OH269541   4.283   3.006  12.139  0.2782  0.0785 -0.3191
16017TIP3    H169542   4.323   3.064  12.204 -1.0411  1.3627 -0.6187
16017TIP3    H269543   4.189   3.013  12.154 -0.0917  0.7640 -2.6290
16018TIP3   OH269544   6.361   5.451  11.435 -0.3347  0.2089 -0.4365
16018TIP3    H169545   6.294   5.450  11.504  0.7439  2.4202  0.7546
16018TIP3    H269546   6.312   5.470  11.355 -1.1591  2.1482  0.4667
16019TIP3   OH269547   1.547   0.339  16.436 -0.2420 -0.0245  0.0257
16019TIP3    H169548   1.529   0.374  16.524 -1.4337  0.0202 -0.2209
16019TIP3    H269549   1.500   0.397  16.377  0.8268  0.1383 -0.6823
16020TIP3   OH269550   2.099   1.892  14.489 -0.6625  0.5826  0.0536
16020TIP3    H169551   2.072   1.962  14.430  0.2912  2.1309  1.3900
16020TIP3    H269552   2.045   1.903  14.567  0.8660  1.1640  1.0948
16021TIP3   OH269553   4.278   6.749  13.586 -0.1745 -0.4737  0.4967
16021TIP3    H169554   4.366   6.711  13.594 -0.5057 -2.2935 -2.9716
16021TIP3    H269555   4.292   6.833  13.542 -0.1317 -0.5855  0.2960
16022TIP3   OH269556   6.024   3.805   4.574 -0.3309  0.3678  0.1337
16022TIP3    H169557   6.112   3.811   4.537  0.1102 -1.3942  0.7686
16022TIP3    H269558   5.974   3.873   4.529  0.7114 -0.2292 -2.0890
16023TIP3   OH269559   4.352   1.813   4.687  0.0138  0.5654  0.4422
16023TIP3    H169560   4.259   1.804   4.665  0.3302 -0.5818 -0.4839
16023TIP3    H269561   4.379   1.894   4.644 -0.1498 -0.0094 -0.7806
16024TIP3   OH269562   4.187   2.451  14.595 -0.7048 -0.2831 -0.1709
16024TIP3    H169563   4.244   2.524  14.570  1.9536 -2.6176 -1.3751
16024TIP3    H269564   4.206   2.436  14.688  0.4437 -0.8070 -0.4722
16025TIP3   OH269565   3.498   5.828  13.888 -0.2435 -0.0119  0.1346
16025TIP3    H169566   3.543   5.819  13.973 -0.1189 -1.2048 -0.0456
16025TIP3    H269567   3.435   5.756  13.886 -0.3037  0.0544 -0.7587
16026TIP3   OH269568   0.878   0.676  14.228 -0.2724 -0.5700  0.3561
16026TIP3    H169569   0.940   0.692  14.157 -1.1706 -1.3912 -0.6452
16026TIP3    H269570   0.921   0.712  14.306  1.6850 -1.5749 -0.1993
16027TIP3   OH269571   0.083   1.852   0.829 -0.2664  0.2941  0.2844
16027TIP3    H169572   0.067   1.758   0.819 -0.3334  0.3462 -0.1074
16027TIP3    H269573   0.053   1.872   0.918 -2.3913  0.3960 -0.4175
16028TIP3   OH269574   4.992   1.436  15.472  0.2654 -0.5149  0.1564
16028TIP3    H169575   5.031   1.352  15.496  0.1003 -0.4769  0.5623
16028TIP3    H269576   4.899   1.417  15.459  0.6442 -0.9389 -2.4075
16029TIP3   OH269577   1.779   4.370   4.560 -0.2903 -0.0491  0.2631
16029TIP3    H169578   1.781   4.458   4.596  1.0993  0.3461 -0.7145
16029TIP3    H269579   1.866   4.357   4.523 -0.2707 -2.0747  0.9228
16030TIP3   OH269580   5.622   2.677   3.061 -0.4607 -0.0785 -0.5401
16030TIP3    H169581   5.647   2.585   3.055 -0.4657 -0.0227 -1.7918
16030TIP3    H269582   5.673   2.720   2.992 -0.3180  0.8921  0.1539
16031TIP3   OH269583   4.198   1.831  16.840 -0.6502  0.9678 -0.0170
16031TIP3    H169584   4.218   1.755  16.786 -2.6033 -0.2515  0.8560
16031TIP3    H269585   4.258   1.825  16.914  0.0668  1.0192 -0.5825
16032TIP3   OH269586   5.063   3.438  16.974 -0.9776 -0.3516 -1.1790
16032TIP3    H169587   5.042   3.527  17.003 -1.3485 -0.3705 -1.3851
16032TIP3    H269588   5.140   3.449  16.918 -0.3828 -0.2884 -0.3749
16033TIP3   OH269589   5.686   4.614   1.171 -0.3907 -0.4266  0.4840
16033TIP3    H169590   5.695   4.679   1.240  0.8296 -0.0210 -0.0212
16033TIP3    H269591   5.738   4.648   1.099  0.7193 -2.1732  0.3815
16034TIP3   OH269592   0.645   2.540   2.156  0.2514  0.1910 -0.1482
16034TIP3    H169593   0.578   2.576   2.214 -0.2316  1.6944 -1.5549
16034TIP3    H269594   0.714   2.607   2.156  0.1606  0.3117 -1.4083
16035TIP3   OH269595   3.709   6.367  16.485  0.1167  0.0532  0.0178
16035TIP3    H169596   3.754   6.397  16.564  0.7879 -1.1814  0.1381
16035TIP3    H269597   3.683   6.277  16.505  1.4128 -0.7330 -1.5921
16036TIP3   OH269598   2.028   4.812   2.787 -0.5557 -0.0426 -0.4519
16036TIP3    H169599   2.097   4.878   2.795 -1.5037  0.8187  1.3974
16036TIP3    H269600   2.004   4.813   2.695  0.2270  1.4132 -0.6690
16037TIP3   OH269601   2.345   4.416  16.338 -0.1479 -0.1078  0.1121
16037TIP3    H169602   2.396   4.454  16.410 -0.3003 -0.7574  0.5719
16037TIP3    H269603   2.271   4.374  16.381  0.3932 -1.5603 -0.3023
16038TIP3   OH269604   1.662   5.793  12.174  0.0051  0.2721 -0.7416
16038TIP3    H169605   1.584   5.818  12.223  1.4884  0.2892  1.8138
16038TIP3    H269606   1.720   5.755  12.240  1.7126 -0.8016 -2.7525
16039TIP3   OH269607   4.300   3.789  12.578  0.2785  0.1701  0.6006
16039TIP3    H169608   4.226   3.765  12.521  1.5439  0.6352 -1.2989
16039TIP3    H269609   4.377   3.751  12.535  1.1300 -0.9709  2.9374
16040TIP3   OH269610   3.714   1.613   4.829 -0.8679  0.0448  0.4155
16040TIP3    H169611   3.755   1.564   4.901  0.7923  0.2568 -0.3455
16040TIP3    H269612   3.624   1.581   4.828 -0.4040 -1.4338  1.3075
16041TIP3   OH269613   2.833   6.434   3.081 -0.1815 -0.3628  0.2982
16041TIP3    H169614   2.797   6.352   3.115  0.4693 -0.9115 -0.3303
16041TIP3    H269615   2.844   6.488   3.159 -1.2184 -0.6266  0.6454
16042TIP3   OH269616   2.760   2.724   5.622 -0.6606 -0.0716 -0.0079
16042TIP3    H169617   2.686   2.664   5.636 -0.5970  0.0367  0.8902
16042TIP3    H269618   2.720   2.811   5.617 -0.6865 -0.1139 -0.5846
16043TIP3   OH269619   3.490   1.373  12.307  0.5976  0.0602  0.0570
16043TIP3    H169620   3.452   1.364  12.395 -1.3401  0.3957 -0.6874
16043TIP3    H269621   3.543   1.295  12.295 -0.3344 -0.7387  0.9668
16044TIP3   OH269622   3.520   0.539  15.273 -0.0141 -0.3349  0.1400
16044TIP3    H169623   3.598   0.490  15.299 -0.4092 -0.4237  1.2271
16044TIP3    H269624   3.553   0.609  15.217  0.8306 -0.4548  0.4730
16045TIP3   OH269625   3.251   2.500  11.856  0.9176 -0.1313 -0.0147
16045TIP3    H169626   3.182   2.453  11.902 -0.9624  2.4438 -0.0054
16045TIP3    H269627   3.316   2.520  11.924 -0.1592  0.6370  0.8239
16046TIP3   OH269628   0.945   6.162  12.650  0.3474  0.4861  1.1832
16046TIP3    H169629   0.946   6.183  12.556  2.5506 -1.4763  0.6822
16046TIP3    H269630   0.854   6.174  12.676 -0.0498  2.4814 -0.8448
16047TIP3   OH269631   0.044   0.387  13.032 -0.2849  0.1193 -0.5557
16047TIP3    H169632  -0.016   0.408  13.103  0.7304  0.7423  0.1374
16047TIP3    H269633   0.090   0.469  13.014  2.1384 -0.8616  0.6562
16048TIP3   OH269634   5.278   2.712   1.804 -0.8807  0.3477  0.2319
16048TIP3    H169635   5.338   2.728   1.877 -1.0847 -0.1832  0.5176
16048TIP3    H269636   5.292   2.621   1.780  0.7638  1.0819 -1.8418
16049TIP3   OH269637   4.311   1.206  15.455  0.1517 -0.5750 -0.6555
16049TIP3    H169638   4.304   1.296  15.487 -1.4655 -1.2579  1.0990
16049TIP3    H269639   4.221   1.179  15.440  0.5549 -2.2210 -0.2376
16050TIP3   OH269640   0.936   1.849  13.947 -0.2122 -0.4877 -0.0231
16050TIP3    H169641   0.870   1.834  13.879 -1.2377  0.0700  0.8115
16050TIP3    H269642   0.957   1.942  13.939 -1.0704 -0.1878  1.0399
16051TIP3   OH269643   5.376   6.084   0.589 -0.5055 -0.5125  0.3503
16051TIP3    H169644   5.338   6.024   0.525  0.7947 -1.1312  0.1073
16051TIP3    H269645   5.376   6.169   0.545  0.9763 -1.0495 -0.8011
16052TIP3   OH269646   1.102   5.307   1.946 -0.2539 -0.0359 -0.3559
16052TIP3    H169647   1.119   5.373   2.013 -2.9064  1.7642 -1.3128
16052TIP3    H269648   1.037   5.249   1.986  0.2753 -0.6510 -0.3810
16053TIP3   OH269649   1.548   4.713   0.067  0.5318  0.3162 -0.0737
16053TIP3    H169650   1.643   4.711   0.055  0.3017  1.4889 -2.7289
16053TIP3    H269651   1.535   4.762   0.148  2.1758  0.1981  0.3024
16054TIP3   OH269652   0.877   2.094   1.784  0.3648  0.8489  0.1819
16054TIP3    H169653   0.969   2.116   1.770  0.6210 -1.1508 -1.8241
16054TIP3    H269654   0.835   2.109   1.699 -1.1340  1.4474  0.9829
16055TIP3   OH269655   5.836   4.541  14.970  0.4920  0.6947  0.6091
16055TIP3    H169656   5.871   4.624  14.938  0.5072 -0.5006 -2.8211
16055TIP3    H269657   5.741   4.548  14.958  0.5240  0.0942 -0.0234
16056TIP3   OH269658   3.858   0.714   2.925  0.3170 -0.0975 -0.5408
16056TIP3    H169659   3.936   0.662   2.943  0.6711 -0.3704 -2.7001
16056TIP3    H269660   3.785   0.653   2.933  0.4986 -0.3036 -0.4629
16057TIP3   OH269661   3.183   2.826   5.017  0.0176  0.2092 -0.1332
16057TIP3    H169662   3.181   2.735   4.986 -1.1563  0.1862 -0.0444
16057TIP3    H269663   3.144   2.876   4.945 -0.6200  0.4515  0.3656
16058TIP3   OH269664   3.415   2.947  12.411  0.3272  0.2464  0.6398
16058TIP3    H169665   3.345   2.960  12.475  1.9758  0.3386  2.4910
16058TIP3    H269666   3.425   2.852  12.406 -0.4995  0.1942 -0.3073
16059TIP3   OH269667   0.024   1.811   4.103 -0.2215  0.1067  0.7716
16059TIP3    H169668   0.052   1.874   4.037 -0.6770 -1.2072 -0.7275
16059TIP3    H269669  -0.070   1.826   4.113 -0.3517 -0.3950  0.3298
16060TIP3   OH269670   3.728   6.008   3.114 -0.2978  0.4395 -0.0644
16060TIP3    H169671   3.651   5.953   3.118  1.0759 -1.5769  0.0903
16060TIP3    H269672   3.738   6.030   3.022 -0.4887 -0.1458 -0.2236
16061TIP3   OH269673   3.813   3.856  13.526 -0.0637  0.1775  0.0484
16061TIP3    H169674   3.761   3.777  13.543  1.1200  0.1809  5.7677
16061TIP3    H269675   3.748   3.922  13.502 -1.5856 -1.5908 -0.9542
16062TIP3   OH269676   3.826   3.863   2.076 -0.2748  0.5617 -0.0982
16062TIP3    H169677   3.757   3.893   2.018  0.4916  1.1146 -0.7513
16062TIP3    H269678   3.863   3.943   2.113  1.6973  0.4863 -1.7417
16063TIP3   OH269679   1.419   5.841  11.773 -0.1111 -0.5384 -0.3167
16063TIP3    H169680   1.404   5.791  11.853 -0.3528  0.9445  0.6070
16063TIP3    H269681   1.509   5.822  11.748  1.0584  1.2815  2.0697
16064TIP3   OH269682   5.612   2.358  11.384 -0.6290 -0.3406 -0.2789
16064TIP3    H169683   5.638   2.285  11.328  1.0388 -0.8005  0.9908
16064TIP3    H269684   5.528   2.387  11.349 -0.1087 -1.1920 -2.4022
16065TIP3   OH269685   3.362   2.242   0.625 -0.3386 -0.1467 -0.3657
16065TIP3    H169686   3.352   2.240   0.530 -1.4867  0.3613 -0.2727
16065TIP3    H269687   3.295   2.182   0.658  0.6759 -1.0536  0.1012
16066TIP3   OH269688   3.778   0.558  17.129  0.2758  0.2005 -0.0938
16066TIP3    H169689   3.834   0.481  17.124 -0.9675 -0.6746 -1.5978
16066TIP3    H269690   3.802   0.600  17.211  1.7629 -1.1781  0.2281
16067TIP3   OH269691   3.644   0.909   1.766 -0.2408 -0.0493  0.2667
16067TIP3    H169692   3.574   0.845   1.753  0.2218 -0.5064  0.0035
16067TIP3    H269693   3.709   0.889   1.699 -0.4107  1.1585 -0.2834
16068TIP3   OH269694   1.780   3.834  12.934  0.0720  0.8188  0.4477
16068TIP3    H169695   1.806   3.826  12.842 -1.8256 -1.9892  0.0497
16068TIP3    H269696   1.819   3.758  12.977 -2.9933 -0.6540  0.8759
16069TIP3   OH269697   0.407   4.573  16.581  0.5198  0.0401 -0.3369
16069TIP3    H169698   0.461   4.501  16.550  2.8065  0.7241  1.7473
16069TIP3    H269699   0.467   4.647  16.588 -0.9527  1.1899  0.9136
16070TIP3   OH269700   2.797   3.830   4.534  0.0015 -0.2389  0.0139
16070TIP3    H169701   2.812   3.737   4.554 -0.3275  0.2152  2.6439
16070TIP3    H269702   2.885   3.869   4.531  0.1643 -0.6410 -1.4386
16071TIP3   OH269703   6.664   4.737   2.180 -0.2883 -0.2831 -0.1723
16071TIP3    H169704   6.648   4.759   2.271 -0.3822 -1.1150  0.0207
16071TIP3    H269705   6.634   4.813   2.131  1.9382  1.1960  0.6066
16072TIP3   OH269706   4.843   1.215  16.724  0.2074  0.0799  0.1094
16072TIP3    H169707   4.765   1.205  16.671  0.8643 -0.7889 -0.7254
16072TIP3    H269708   4.818   1.277  16.793 -1.9455 -1.9114  1.2806
16073TIP3   OH269709   2.834   2.986  11.893 -0.2683  0.5887  0.5502
16073TIP3    H169710   2.777   3.031  11.956  0.9536  2.5869  0.3126
16073TIP3    H269711   2.919   2.982  11.935 -0.1212 -0.6586  0.1556
16074TIP3   OH269712   3.100   5.338   2.386  0.0607 -0.5475  0.0191
16074TIP3    H169713   3.016   5.302   2.355 -0.6720  1.1033 -0.0237
16074TIP3    H269714   3.121   5.286   2.463 -1.5191 -0.3832  0.6099
16075TIP3   OH269715   5.277   4.525  14.022 -0.1492  0.0895 -0.4789
16075TIP3    H169716   5.291   4.434  13.998  1.9530 -0.3244  1.8954
16075TIP3    H269717   5.356   4.570  13.994  0.6969  0.3006  1.9984
16076TIP3   OH269718   3.642   5.430   2.545 -0.0334  0.0280 -0.2265
16076TIP3    H169719   3.702   5.504   2.547 -1.3812  1.1509  0.3310
16076TIP3    H269720   3.637   5.401   2.636  0.8474 -1.0972 -0.5059
16077TIP3   OH269721   4.261   5.643  14.657 -0.2362 -0.3534  0.4340
16077TIP3    H169722   4.356   5.647  14.667 -0.2726 -1.3303  1.3073
16077TIP3    H269723   4.226   5.691  14.732 -0.4462  1.1173 -0.5629
16078TIP3   OH269724   5.068   4.061   4.919 -0.9292  0.8295 -0.0344
16078TIP3    H169725   5.065   3.969   4.946  2.1763  0.3587 -0.8018
16078TIP3    H269726   5.028   4.062   4.833 -1.5178  0.3094  0.2288
16079TIP3   OH269727   2.599   3.866   3.984 -0.0089 -0.2104 -0.3337
16079TIP3    H169728   2.644   3.881   3.901 -0.8951  1.1269 -0.6023
16079TIP3    H269729   2.518   3.820   3.958 -0.2706  0.1792 -0.2163
16080TIP3   OH269730   6.307   3.325  11.616 -0.1513 -0.1960  0.1920
16080TIP3    H169731   6.295   3.420  11.614  0.1957  0.0318  3.4281
16080TIP3    H269732   6.232   3.290  11.568 -0.2420  1.6674 -1.1401
16081TIP3   OH269733   3.254   4.419   0.386  0.8471 -0.3867  0.3381
16081TIP3    H169734   3.346   4.414   0.411  0.6476 -1.1509  0.9792
16081TIP3    H269735   3.254   4.411   0.291  1.5833  1.9225  0.0876
16082TIP3   OH269736   1.741   3.343  14.562  0.0809  0.1056 -0.3320
16082TIP3    H169737   1.768   3.254  14.586  0.3059 -0.0198 -1.0277
16082TIP3    H269738   1.794   3.400  14.618 -1.1077 -0.2089  1.1792
16083TIP3   OH269739   3.626   0.739   4.069 -0.5138 -0.1831  0.1887
16083TIP3    H169740   3.542   0.699   4.090  0.1856 -0.9740  1.6516
16083TIP3    H269741   3.687   0.666   4.065  0.4510  0.5402  1.0807
16084TIP3   OH269742   1.021   3.013   1.233 -0.4707  0.3232 -0.0742
16084TIP3    H169743   1.075   3.091   1.245  0.3996 -0.3690  0.7338
16084TIP3    H269744   1.014   3.003   1.138 -1.5672  1.9968 -0.2148
16085TIP3   OH269745   0.673   4.877   1.318 -0.0913  0.1544 -0.1375
16085TIP3    H169746   0.614   4.947   1.291 -1.4261 -0.6681  0.5492
16085TIP3    H269747   0.711   4.907   1.400 -0.0880  0.3967 -0.2287
16086TIP3   OH269748   6.579   5.710  14.465 -0.3230 -0.0489 -0.3061
16086TIP3    H169749   6.628   5.753  14.535 -1.0210 -0.4890  0.4654
16086TIP3    H269750   6.628   5.731  14.385 -0.8324  2.4941 -0.0436
16087TIP3   OH269751   3.285   0.452   2.013 -0.2887  0.0035 -0.2421
16087TIP3    H169752   3.380   0.451   2.004 -0.1582  0.0956  0.9821
16087TIP3    H269753   3.252   0.449   1.923  0.8657 -0.0783 -0.6730
16088TIP3   OH269754   4.344   2.654  14.493 -0.0052  0.2648 -0.3081
16088TIP3    H169755   4.414   2.698  14.446 -0.5614  2.3950  0.7324
16088TIP3    H269756   4.335   2.703  14.575 -2.4893 -0.1180 -0.2634
16089TIP3   OH269757   6.323   4.935   3.878 -0.3225 -0.4766  0.2580
16089TIP3    H169758   6.269   4.975   3.946  1.3118 -0.0712  1.3865
16089TIP3    H269759   6.261   4.896   3.817 -1.8604 -1.2819  2.2395
16090TIP3   OH269760   0.915   2.809  11.874  0.4850 -0.5621  0.4173
16090TIP3    H169761   0.857   2.879  11.845 -0.4371 -2.5161 -2.9055
16090TIP3    H269762   1.003   2.846  11.868 -0.0992  1.0886  1.4153
16091TIP3   OH269763   6.185   5.276  11.085 -0.0195 -0.1462 -0.0160
16091TIP3    H169764   6.170   5.358  11.132  0.8587  1.2846 -2.0815
16091TIP3    H269765   6.112   5.269  11.024 -0.8368 -1.6766  1.0727
16092TIP3   OH269766   3.973   2.630   1.270 -0.6617  0.0206  0.5928
16092TIP3    H169767   4.021   2.713   1.278  0.2941 -0.4942  0.3284
16092TIP3    H269768   4.036   2.569   1.231 -1.5732 -0.6455  0.1155
16093TIP3   OH269769   2.313   1.060  13.161 -0.3440  0.0708  0.1808
16093TIP3    H169770   2.254   1.006  13.212 -0.9846  0.6614  0.0895
16093TIP3    H269771   2.353   1.119  13.225  1.4202 -1.3903  0.5073
16094TIP3   OH269772   1.865   0.044   6.568  0.0331  1.0402  0.1081
16094TIP3    H169773   1.792   0.094   6.531  0.8746  1.7859 -0.6035
16094TIP3    H269774   1.824  -0.033   6.607 -1.0164  0.7481 -1.4685
16095TIP3   OH269775   3.596   3.166   0.337 -0.4856  0.0431  0.3631
16095TIP3    H169776   3.609   3.179   0.431  0.3920  1.1455  0.1093
16095TIP3    H269777   3.521   3.221   0.316 -0.3715  0.1889  0.3337
16096TIP3   OH269778   6.566   5.468  13.147 -0.5148  0.1863  0.1688
16096TIP3    H169779   6.637   5.443  13.088  1.0456  0.8029  1.7361
16096TIP3    H269780   6.539   5.386  13.188  0.0152  0.1010  0.3529
16097TIP3   OH269781   3.126   6.640  10.692 -0.2071  0.5304  0.0805
16097TIP3    H169782   3.166   6.663  10.608  0.1911  0.7838  0.3337
16097TIP3    H269783   3.081   6.719  10.720 -1.0518  0.1899 -0.2886
16098TIP3   OH269784   2.867   3.955  15.803 -0.0777 -0.5023 -0.1540
16098TIP3    H169785   2.845   3.968  15.711  0.0100 -0.8295 -0.2251
16098TIP3    H269786   2.953   3.913  15.801 -0.4379 -1.2827  0.0416
16099TIP3   OH269787   1.674   2.547  14.778 -0.2665 -0.2639  0.3342
16099TIP3    H169788   1.617   2.590  14.842 -2.2931 -0.6783 -1.0766
16099TIP3    H269789   1.658   2.453  14.792  0.2142 -0.3948  0.0284
16100TIP3   OH269790   2.328   4.735   0.111 -0.2113  0.6863  0.1861
16100TIP3    H169791   2.397   4.715   0.175  1.6614 -0.2139 -1.9416
16100TIP3    H269792   2.282   4.652   0.100  1.1147  0.0918 -1.3729
16101TIP3   OH269793   1.805   6.815   3.700  0.1984  0.0680  0.2515
16101TIP3    H169794   1.883   6.776   3.739 -0.5515 -2.5157 -0.6052
16101TIP3    H269795   1.822   6.814   3.606 -0.9032 -0.7778  0.0335
16102TIP3   OH269796   1.367   2.680  13.646 -0.2503  0.0958  0.0852
16102TIP3    H169797   1.363   2.666  13.551 -2.3536  1.4880 -0.1053
16102TIP3    H269798   1.276   2.673  13.675 -0.2762  3.5260  1.3054
16103TIP3   OH269799   2.392   3.121   2.363  0.2623 -0.7203  0.8237
16103TIP3    H169800   2.310   3.152   2.402  0.9656 -0.6044  2.2627
16103TIP3    H269801   2.409   3.037   2.406  0.5237 -1.1110 -0.0189
16104TIP3   OH269802   2.608   5.695   3.547 -0.1716 -0.1921 -0.1106
16104TIP3    H169803   2.687   5.707   3.494 -0.2672 -1.2224 -0.4997
16104TIP3    H269804   2.637   5.646   3.624  0.0760  1.7680  1.1210
16105TIP3   OH269805   2.586   6.199  15.439  0.0984  0.3196 -0.0184
16105TIP3    H169806   2.634   6.118  15.420  0.9564  0.4667  1.3665
16105TIP3    H269807   2.497   6.171  15.457  0.5594 -0.4161  1.1842
16106TIP3   OH269808   5.904   3.647   0.030 -0.3796  0.3900  0.1167
16106TIP3    H169809   5.904   3.721   0.090 -0.3599  0.8303 -0.4115
16106TIP3    H269810   5.974   3.668  -0.033  0.0735 -0.3940  0.3404
16107TIP3   OH269811   1.658   4.554  15.031  0.4523 -0.2155 -0.3801
16107TIP3    H169812   1.606   4.536  15.109 -1.3552 -1.8299 -1.8387
16107TIP3    H269813   1.660   4.650  15.024 -3.3627 -0.0260 -0.7920
16108TIP3   OH269814   6.250   5.305   3.086  0.7374  0.7619  0.2265
16108TIP3    H169815   6.325   5.324   3.030  0.6915  1.7296  0.4898
16108TIP3    H269816   6.281   5.236   3.145  1.7487  1.8560  1.0055
16109TIP3   OH269817   2.046   3.794   2.635 -0.7089  0.0690 -0.4198
16109TIP3    H169818   2.042   3.875   2.585 -1.7034 -0.8632 -1.9321
16109TIP3    H269819   2.140   3.776   2.643 -0.4724  1.3946  0.0181
16110TIP3   OH269820   0.929   2.453  12.758  0.3164  0.3114 -0.3778
16110TIP3    H169821   0.939   2.403  12.839  2.8636  0.5323 -0.4843
16110TIP3    H269822   0.906   2.387  12.692  2.0362 -0.5159 -0.1961
16111TIP3   OH269823   6.394   5.284  13.843  0.0542  0.1270  0.0787
16111TIP3    H169824   6.352   5.252  13.922  1.8742  0.5926  1.3030
16111TIP3    H269825   6.460   5.218  13.822  0.5179  0.6733 -0.2215
16112TIP3   OH269826   5.544   6.066  10.330  0.4445  0.7965 -0.5260
16112TIP3    H169827   5.504   6.153  10.323  1.8338  1.4770 -0.4102
16112TIP3    H269828   5.638   6.083  10.322  0.8400 -0.5387  0.8160
16113TIP3   OH269829   5.434   3.140   5.118  0.0434 -0.5290 -0.2028
16113TIP3    H169830   5.390   3.055   5.117 -1.9323  0.4263  0.3894
16113TIP3    H269831   5.380   3.194   5.176  0.6498  1.4348 -1.3808
16114TIP3   OH269832   5.907   3.898   5.608 -0.2949 -0.7817  0.6668
16114TIP3    H169833   5.817   3.874   5.632 -0.0388 -3.8020 -0.9647
16114TIP3    H269834   5.950   3.815   5.588  2.4917  0.6921  0.0362
16115TIP3   OH269835   5.769   1.339   4.045  0.1047  0.3633 -0.2479
16115TIP3    H169836   5.717   1.345   4.124  0.2227 -1.7198  0.0488
16115TIP3    H269837   5.708   1.356   3.973 -0.5684 -0.2355  0.1826
16116TIP3   OH269838   5.472   1.744  13.334 -0.6558 -0.4313  0.1012
16116TIP3    H169839   5.556   1.787  13.316 -0.2402 -0.7766  1.1626
16116TIP3    H269840   5.486   1.653  13.308 -0.8879 -0.3770 -0.2296
16117TIP3   OH269841   6.495   6.002  12.631  0.0178 -0.4062 -0.3092
16117TIP3    H169842   6.410   5.958  12.634 -1.3362  2.0935  0.1553
16117TIP3    H269843   6.483   6.074  12.570  1.1283  1.2563  1.3432
16118TIP3   OH269844   6.332   0.217   4.950  0.3430 -0.3818  0.1129
16118TIP3    H169845   6.333   0.182   5.039  1.0699 -0.8315 -0.0612
16118TIP3    H269846   6.245   0.195   4.916  1.2732 -3.5103 -0.5566
16119TIP3   OH269847   6.424   1.837  15.874 -0.5959 -0.0533 -0.2281
16119TIP3    H169848   6.386   1.815  15.789 -3.9624 -1.5490  1.4804
16119TIP3    H269849   6.396   1.927  15.891 -1.6459 -0.4213  0.0844
16120TIP3   OH269850   6.721   3.859   4.293 -0.0533 -0.1364  0.3768
16120TIP3    H169851   6.698   3.952   4.300  1.4180  0.3257 -0.5355
16120TIP3    H269852   6.761   3.850   4.207  0.7183 -1.4193  0.8424
16121TIP3   OH269853   0.410   3.933   3.767  0.3631 -0.3261  0.0479
16121TIP3    H169854   0.470   3.904   3.837  0.7723  2.1220  0.8189
16121TIP3    H269855   0.333   3.963   3.814  0.0195 -0.0579 -0.6905
16122TIP3   OH269856   5.459   4.340  12.074 -0.2110  0.2599 -0.2123
16122TIP3    H169857   5.486   4.330  11.983  1.8338 -1.4749  0.5048
16122TIP3    H269858   5.531   4.389  12.115  0.9782 -2.5182  1.2751
16123TIP3   OH269859   5.174   3.096  15.192  0.0584 -0.8024 -0.4194
16123TIP3    H169860   5.153   3.003  15.188 -1.3915 -0.5620  0.4061
16123TIP3    H269861   5.193   3.121  15.102 -3.7324 -1.0701 -1.5024
16124TIP3   OH269862   2.269   5.113  16.758  0.3345 -0.3185 -0.3167
16124TIP3    H169863   2.268   5.152  16.846 -2.1728 -0.5569 -0.1698
16124TIP3    H269864   2.273   5.018  16.774  2.2703 -0.3313 -0.5802
16125TIP3   OH269865   1.926   4.705  12.398  0.0852  0.1880  0.4564
16125TIP3    H169866   1.881   4.636  12.446 -0.4636  1.1382  1.3708
16125TIP3    H269867   1.867   4.726  12.325 -0.1912  0.3334  0.7214
16126TIP3   OH269868   2.591   5.954  16.997 -0.0955 -0.1065  0.0097
16126TIP3    H169869   2.515   6.002  17.028  0.0916 -0.4244  0.9984
16126TIP3    H269870   2.654   6.021  16.973 -0.5318  0.1526 -0.4215
16127TIP3   OH269871   3.278   1.943  13.069  0.2357 -0.0932 -0.4755
16127TIP3    H169872   3.241   2.006  13.008  0.4969  0.1785 -0.3513
16127TIP3    H269873   3.222   1.866  13.060  1.2922 -0.7054 -2.3379
16128TIP3   OH269874   2.227   5.473  11.167  0.0919  0.2470 -0.0617
16128TIP3    H169875   2.309   5.450  11.210 -0.1287 -0.4813 -0.0138
16128TIP3    H269876   2.191   5.389  11.137 -0.0864  0.6718 -1.0728
16129TIP3   OH269877   3.977   4.974   6.150 -0.3104  0.0641  0.0093
16129TIP3    H169878   3.910   5.039   6.169  0.2625  1.0022 -1.0653
16129TIP3    H269879   3.941   4.924   6.076 -0.8878 -1.0763  1.0318
16130TIP3   OH269880   1.066   0.647   0.079 -0.0319 -0.5369  0.0955
16130TIP3    H169881   1.068   0.613   0.168 -0.3583 -2.2796 -0.5161
16130TIP3    H269882   1.154   0.681   0.063  0.3844 -1.3238  0.6862
16131TIP3   OH269883   6.009   1.440  16.905  0.0737 -0.1543 -0.0532
16131TIP3    H169884   6.066   1.434  16.828  0.5746 -1.1523  0.3740
16131TIP3    H269885   5.947   1.368  16.894  0.0537 -0.2044  0.3936
16132TIP3   OH269886   1.616   2.537   2.415 -1.0722  0.1951  0.1673
16132TIP3    H169887   1.580   2.454   2.383 -0.0388 -1.1456  2.3122
16132TIP3    H269888   1.554   2.603   2.383 -2.5471 -1.4889 -0.6370
16133TIP3   OH269889   4.200   2.539  15.850 -0.4733  0.2852  0.4161
16133TIP3    H169890   4.152   2.586  15.782 -0.6972  0.6333  0.8115
16133TIP3    H269891   4.153   2.456  15.860 -0.5911  0.3409  0.3265
16134TIP3   OH269892   5.687   6.225   3.825  0.0315  0.7398 -0.8473
16134TIP3    H169893   5.730   6.288   3.882  0.7751 -0.3991 -0.1102
16134TIP3    H269894   5.754   6.199   3.762  1.6086 -3.2693  2.0864
16135TIP3   OH269895   6.316   5.990  13.404 -0.1357  0.1906  0.1697
16135TIP3    H169896   6.319   6.005  13.499  0.3117 -1.6919  0.4949
16135TIP3    H269897   6.308   5.895  13.395 -0.2218  0.3370 -1.6943
16136TIP3   OH269898   2.172   0.990   1.936  0.2807 -0.3363 -0.2754
16136TIP3    H169899   2.212   1.077   1.944  0.5174 -0.4678  0.0063
16136TIP3    H269900   2.094   1.005   1.883 -0.0632  0.1653  0.3616
16137TIP3   OH269901   2.530   5.266   5.345  0.2666 -0.0718  0.3344
16137TIP3    H169902   2.475   5.311   5.281  1.4054 -0.4514 -0.9657
16137TIP3    H269903   2.619   5.297   5.325  1.0145 -2.3687 -0.1961
16138TIP3   OH269904   5.959   6.670   4.734  0.1137  0.4222  0.0821
16138TIP3    H169905   5.984   6.604   4.669  0.5042  0.2875  0.3711
16138TIP3    H269906   5.928   6.744   4.681 -0.2202  0.0590 -0.2456
16139TIP3   OH269907   1.227   5.089   2.819 -0.8779  0.0465 -0.3587
16139TIP3    H169908   1.227   5.014   2.878  0.5455  0.1212 -0.2264
16139TIP3    H269909   1.276   5.060   2.743  1.6198  1.4578  0.5922
16140TIP3   OH269910   2.761   1.946   2.090 -0.3880  0.0177  0.2097
16140TIP3    H169911   2.748   1.866   2.039  0.7584  0.2401 -0.4725
16140TIP3    H269912   2.697   2.008   2.054 -0.1146 -0.0694 -0.4555
16141TIP3   OH269913   3.855   5.122  11.866  0.4893 -0.4841  0.1297
16141TIP3    H169914   3.896   5.155  11.945  1.5974 -0.0604 -0.5989
16141TIP3    H269915   3.775   5.079  11.896  2.4617 -3.2598  1.8780
16142TIP3   OH269916   2.770   1.698   4.733  0.4248 -0.0869 -0.0203
16142TIP3    H169917   2.852   1.722   4.690 -0.8480  0.0436 -2.5985
16142TIP3    H269918   2.704   1.706   4.664 -1.5868 -1.3787  1.6307
16143TIP3   OH269919   0.915   1.003  12.330  0.1631  0.3040  0.1052
16143TIP3    H169920   0.913   1.091  12.291 -0.2957  0.4926  0.5604
16143TIP3    H269921   0.968   0.952  12.268 -0.1469  0.7243 -0.5224
16144TIP3   OH269922   5.800   2.018   4.397 -0.2672 -0.2877  0.0729
16144TIP3    H169923   5.893   2.038   4.400 -0.4654  0.6005  1.2800
16144TIP3    H269924   5.765   2.075   4.330 -0.3045  1.1939  1.2972
16145TIP3   OH269925   2.486   3.943  14.843 -0.0544  0.0614  0.3729
16145TIP3    H169926   2.538   3.978  14.915 -2.2513  1.9307  1.1872
16145TIP3    H269927   2.484   4.013  14.778  1.6633 -1.5003 -1.4874
16146TIP3   OH269928   0.800   3.640   6.048  0.5183  1.1959  0.4303
16146TIP3    H169929   0.864   3.676   6.109  0.5994  1.4936  0.1684
16146TIP3    H269930   0.816   3.545   6.049  2.4561  1.4356 -1.3003
16147TIP3   OH269931   4.203   0.870   0.953  0.0125  0.3133 -0.4155
16147TIP3    H169932   4.110   0.854   0.942  0.2554 -1.2657 -0.4610
16147TIP3    H269933   4.240   0.858   0.866  0.4476 -0.6781 -0.1119
16148TIP3   OH269934   6.797   6.040   5.541 -0.3336  0.5610 -0.2730
16148TIP3    H169935   6.764   6.023   5.629 -0.2950  1.3043 -0.1115
16148TIP3    H269936   6.746   5.980   5.485  0.5616 -0.8752  0.3873
16149TIP3   OH269937   0.914   4.765   4.924 -0.4299 -0.1867 -0.4075
16149TIP3    H169938   0.879   4.805   5.003 -0.3343  0.8729 -0.8779
16149TIP3    H269939   1.008   4.755   4.942 -0.6579 -1.3387  0.1692
16150TIP3   OH269940   4.109   2.294  15.503  0.3976 -0.3696  0.2234
16150TIP3    H169941   4.078   2.204  15.513  0.1295 -0.1962  1.0239
16150TIP3    H269942   4.029   2.347  15.496  0.5250 -0.0772  0.8749
16151TIP3   OH269943   4.259   5.489   3.516 -0.4296 -0.0222 -0.1785
16151TIP3    H169944   4.344   5.446   3.526 -0.4818 -0.0050  0.3840
16151TIP3    H269945   4.240   5.524   3.603 -1.5141 -0.9887  0.0039
16152TIP3   OH269946   6.564   3.771  12.159  0.1103  0.2982  0.8548
16152TIP3    H169947   6.523   3.845  12.202 -1.1629  0.8434 -1.1783
16152TIP3    H269948   6.553   3.698  12.220 -4.4874  0.2385  0.2681
16153TIP3   OH269949   3.151   2.280  12.423 -0.2308  0.3530  0.1840
16153TIP3    H169950   3.203   2.224  12.365 -0.5209 -0.4913  0.7234
16153TIP3    H269951   3.171   2.249  12.511 -0.5949  0.9429  0.4841
16154TIP3   OH269952   4.112   3.877   4.378  0.4067 -0.4822  0.5346
16154TIP3    H169953   4.037   3.839   4.423  0.0835 -1.2922 -0.6494
16154TIP3    H269954   4.140   3.809   4.316  2.4660 -0.4291  1.3279
16155TIP3   OH269955   1.652   5.703  16.244 -0.0859  0.0247 -0.1289
16155TIP3    H169956   1.652   5.777  16.183 -0.8994 -0.0807 -0.2723
16155TIP3    H269957   1.634   5.743  16.329  1.5608  0.2355  0.1445
16156TIP3   OH269958   5.243   4.710   2.826 -0.0915  0.1469  0.1971
16156TIP3    H169959   5.309   4.697   2.893  0.8769 -1.4377 -0.9800
16156TIP3    H269960   5.172   4.757   2.870  0.8448 -0.1295  2.0827
16157TIP3   OH269961   6.526   2.535   2.074  0.6812 -0.0151 -0.5624
16157TIP3    H169962   6.471   2.613   2.065 -0.8258 -0.6961  1.7694
16157TIP3    H269963   6.506   2.483   1.996 -1.3689  0.1491 -0.2006
16158TIP3   OH269964   3.303   0.883  12.220  0.1031 -0.4372  0.0875
16158TIP3    H169965   3.334   0.972  12.205 -0.2571 -0.2147  0.6109
16158TIP3    H269966   3.327   0.835  12.141 -1.1706  0.5220 -0.9156
16159TIP3   OH269967   1.422   6.417  13.455 -0.0111 -0.4997 -0.0779
16159TIP3    H169968   1.381   6.466  13.384 -0.0433  0.1194  0.3572
16159TIP3    H269969   1.393   6.327  13.443 -1.2979 -0.1186  0.0811
16160TIP3   OH269970   2.433   2.592  16.505  0.3010  0.3157  0.4925
16160TIP3    H169971   2.446   2.498  16.490  0.0061  0.4773 -0.8827
16160TIP3    H269972   2.521   2.626  16.520  0.6264  0.0910 -0.7805
16161TIP3   OH269973   2.527   2.266   5.353 -0.3235 -0.0144 -0.2762
16161TIP3    H169974   2.517   2.211   5.275 -0.0107  0.6888 -0.8291
16161TIP3    H269975   2.438   2.292   5.376 -0.2809  1.9153 -1.9978
16162TIP3   OH269976   2.111   6.289  13.606  0.7141  0.4431  0.2465
16162TIP3    H169977   2.038   6.296  13.545  0.4369 -0.9617  0.3850
16162TIP3    H269978   2.140   6.198  13.599 -0.3310 -0.2326  3.3400
16163TIP3   OH269979   2.455   5.594   3.969  0.2718  0.4138  0.2272
16163TIP3    H169980   2.426   5.643   4.046  0.5308  1.0290 -0.0648
16163TIP3    H269981   2.501   5.658   3.915  1.5929 -0.3801  0.3614
16164TIP3   OH269982   3.796   0.245  13.880 -0.3041 -0.4367  0.2023
16164TIP3    H169983   3.795   0.338  13.903 -1.7924 -0.3376 -0.1949
16164TIP3    H269984   3.876   0.235  13.828 -0.2158  0.6492  0.0903
16165TIP3   OH269985   5.303   6.794   2.347 -0.2441  0.5224  0.6391
16165TIP3    H169986   5.233   6.777   2.285  0.8545 -2.1819 -0.0386
16165TIP3    H269987   5.267   6.769   2.432  0.0152 -1.4819  0.2060
16166TIP3   OH269988   2.230   0.290   1.117  0.3066 -0.2871  0.5040
16166TIP3    H169989   2.306   0.292   1.175  0.1296  2.1186  0.7566
16166TIP3    H269990   2.202   0.382   1.111 -1.4096 -0.8532 -1.1249
16167TIP3   OH269991   5.628   0.425  14.324  0.2803  0.2749  0.2709
16167TIP3    H169992   5.558   0.360  14.316  1.3972 -0.8834 -0.5530
16167TIP3    H269993   5.584   0.509  14.315 -1.0315 -0.4190 -0.0255
16168TIP3   OH269994   2.218   5.115   1.363  0.2321  0.2332 -0.3914
16168TIP3    H169995   2.212   5.020   1.355 -0.3922  0.1607  0.7982
16168TIP3    H269996   2.231   5.131   1.457 -2.2223  1.4254 -0.1773
16169TIP3   OH269997   4.182   2.032   3.958 -0.3181  0.0309 -0.2733
16169TIP3    H169998   4.174   2.056   4.050  1.2218  1.4406 -0.4554
16169TIP3    H269999   4.264   1.983   3.953 -1.3989 -1.8378 -0.5992
16170TIP3   OH270000   0.828   0.105   4.059 -0.6025 -0.3541  0.5283
16170TIP3    H170001   0.773   0.180   4.079 -3.8633 -2.2954 -0.4510
16170TIP3    H270002   0.799   0.037   4.119  0.4786 -1.6024 -0.3183
16171TIP3   OH270003   1.974   0.487   5.465  0.0749  0.7241 -0.5108
16171TIP3    H170004   2.017   0.441   5.392  0.5625 -0.6152  0.5828
16171TIP3    H270005   2.038   0.553   5.492  0.4026  0.4113 -0.5154
16172TIP3   OH270006   6.030   5.227   0.839  0.2861  0.4596  0.2461
16172TIP3    H170007   6.061   5.195   0.754 -0.5819  2.0260 -0.6956
16172TIP3    H270008   5.948   5.271   0.820 -0.2912  0.2387  2.0336
16173TIP3   OH270009   3.987   1.409   0.889 -0.5132 -0.0226  0.6037
16173TIP3    H170010   4.022   1.333   0.842 -1.1724  0.7158 -1.1179
16173TIP3    H270011   4.054   1.476   0.879  0.7531 -0.7186  3.3535
16174TIP3   OH270012   2.638   0.436  15.061  0.0701 -0.4991 -0.0168
16174TIP3    H170013   2.644   0.341  15.062  0.5691 -0.4727  1.1708
16174TIP3    H270014   2.697   0.465  15.131 -0.5167  0.6464  0.0380
16175TIP3   OH270015   4.208   0.568  12.550  0.9259 -0.7274  0.2928
16175TIP3    H170016   4.165   0.650  12.571  0.7036 -1.1914  1.7509
16175TIP3    H270017   4.264   0.589  12.475 -2.1243 -0.2317 -2.0420
16176TIP3   OH270018   6.499   1.098  15.095 -0.1482  0.0667  0.9288
16176TIP3    H170019   6.467   1.142  15.016  1.0924 -1.5486 -0.5762
16176TIP3    H270020   6.562   1.159  15.132 -2.0339  1.6163  1.7563
16177TIP3   OH270021   5.190   1.402   0.020  0.4193 -0.2423 -0.0183
16177TIP3    H170022   5.136   1.350  -0.039  0.9971 -0.4684 -0.3589
16177TIP3    H270023   5.269   1.349   0.032 -0.3533 -1.0058  2.2871
16178TIP3   OH270024   5.609   5.692  11.461  0.7382  0.4329 -0.8103
16178TIP3    H170025   5.528   5.716  11.417 -0.3987  0.3784  1.1470
16178TIP3    H270026   5.659   5.773  11.465  0.5260  0.6037 -1.4800
16179TIP3   OH270027   1.453   5.647   0.806  0.5060 -0.0735 -0.1256
16179TIP3    H170028   1.485   5.727   0.849  1.4272 -0.1711 -0.6190
16179TIP3    H270029   1.522   5.583   0.820 -0.9934 -1.4019  1.8858
16180TIP3   OH270030   5.390   2.406   4.226 -0.2176 -0.1607  0.3391
16180TIP3    H170031   5.467   2.431   4.176 -0.5858  2.1173  0.7913
16180TIP3    H270032   5.424   2.367   4.307  0.3943 -1.2382 -0.4188
16181TIP3   OH270033   1.241   4.069   1.062 -0.5795 -0.0502  0.4717
16181TIP3    H170034   1.322   4.119   1.068 -1.1241  1.1010 -0.9534
16181TIP3    H270035   1.207   4.068   1.151  0.3969  0.5148  0.8696
16182TIP3   OH270036   2.184   6.406   5.854  0.4312  0.5281 -0.3968
16182TIP3    H170037   2.209   6.454   5.932 -0.2275  0.2102  0.0236
16182TIP3    H270038   2.146   6.472   5.796 -2.2116  0.3147  0.9167
16183TIP3   OH270039   4.665   3.909   3.080  0.0410  0.4223  0.2032
16183TIP3    H170040   4.581   3.903   3.033 -0.6589  1.3694  1.2738
16183TIP3    H270041   4.730   3.883   3.015 -1.0813 -0.4367 -0.6310
16184TIP3   OH270042   5.481   5.232   4.356  0.1760 -0.3657  0.0651
16184TIP3    H170043   5.575   5.220   4.338  0.3883 -2.0154  1.8194
16184TIP3    H270044   5.462   5.165   4.422 -1.8658  1.0638  1.0040
16185TIP3   OH270045   4.638   4.949  16.666  0.4982 -0.7936 -0.1881
16185TIP3    H170046   4.550   4.913  16.682 -0.5129  1.8361  0.8983
16185TIP3    H270047   4.629   4.996  16.582  0.0958  1.3509  0.9687
16186TIP3   OH270048   2.322   1.624   0.627  0.1363  0.1454 -0.0991
16186TIP3    H170049   2.325   1.529   0.634  1.7495  0.1657 -0.1577
16186TIP3    H270050   2.252   1.650   0.687 -0.5931 -1.0809 -0.3734
16187TIP3   OH270051   5.427   1.402   0.650 -0.0815 -0.1370  0.8347
16187TIP3    H170052   5.361   1.367   0.709  0.9306 -0.7994  1.6031
16187TIP3    H270053   5.419   1.349   0.571 -0.2127 -0.4669  1.0696
16188TIP3   OH270054   0.753   3.739  15.473 -0.5885 -0.4232  0.2636
16188TIP3    H170055   0.687   3.808  15.476  0.4515  0.8078 -2.1642
16188TIP3    H270056   0.826   3.774  15.526 -0.1137  0.3410 -0.8552
16189TIP3   OH270057   0.104   1.995   6.172 -0.4156 -0.2579  0.5922
16189TIP3    H170058   0.161   2.046   6.116 -0.4321  0.5988  1.3378
16189TIP3    H270059   0.024   1.982   6.120  0.8501 -2.5174 -0.9422
16190TIP3   OH270060   1.609   4.933  16.326  0.1052 -0.6825 -0.0083
16190TIP3    H170061   1.548   5.006  16.329 -0.7992 -1.4227  0.3318
16190TIP3    H270062   1.666   4.946  16.402  0.0312 -0.2651 -0.0255
16191TIP3   OH270063   5.086   5.649  14.478 -0.6069  0.3433  0.2431
16191TIP3    H170064   5.114   5.714  14.542 -0.2802  0.3735  0.0742
16191TIP3    H270065   5.165   5.632  14.426 -0.6713 -0.2419  0.3343
16192TIP3   OH270066   2.904   5.889  10.534 -0.1002  0.5391  0.1750
16192TIP3    H170067   2.920   5.953  10.465 -0.5497 -0.4237 -0.8768
16192TIP3    H270068   2.904   5.805  10.488  1.2343 -0.3096  1.6152
16193TIP3   OH270069   0.509   4.413   5.249  0.8028  0.1397 -0.5754
16193TIP3    H170070   0.438   4.471   5.277  1.3795  0.0777  1.0892
16193TIP3    H270071   0.548   4.381   5.330  2.3244 -0.3608 -1.4643
16194TIP3   OH270072   1.460   1.183  12.360  0.3603 -0.2879 -0.3919
16194TIP3    H170073   1.368   1.191  12.387 -0.0369 -0.6116 -1.6124
16194TIP3    H270074   1.486   1.273  12.338  0.7006 -0.0113  1.0317
16195TIP3   OH270075   2.542   2.007   0.591  0.2812 -0.1041  0.2194
16195TIP3    H170076   2.533   1.918   0.626  0.9272 -0.6514 -0.9454
16195TIP3    H270077   2.452   2.039   0.583  0.0676 -0.4709  1.0871
16196TIP3   OH270078   6.402   6.192  12.457  0.3308  0.3709  0.2428
16196TIP3    H170079   6.407   6.280  12.419 -1.4247  0.0520 -0.8576
16196TIP3    H270080   6.381   6.136  12.383 -2.0087 -0.4621  1.4487
16197TIP3   OH270081   2.823   0.866   5.731  0.3906 -0.5035 -0.1515
16197TIP3    H170082   2.765   0.839   5.802  1.6959 -3.6983 -0.1732
16197TIP3    H270083   2.906   0.887   5.774 -0.2091  2.6468 -0.2858
16198TIP3   OH270084   4.353   6.174  16.276 -0.2897  0.8582  0.2474
16198TIP3    H170085   4.421   6.113  16.247 -0.9197 -0.2388  1.0251
16198TIP3    H270086   4.281   6.160  16.215  0.2271  2.2070 -0.7383
16199TIP3   OH270087   3.854   2.676  14.232  0.3057 -0.4244 -0.5656
16199TIP3    H170088   3.933   2.687  14.286 -0.4409  1.4478  0.2352
16199TIP3    H270089   3.887   2.679  14.142  1.3468 -1.6112 -0.2546
16200TIP3   OH270090   6.367   6.263  13.517 -0.3445  0.1460 -0.2693
16200TIP3    H170091   6.350   6.229  13.429 -1.0338  0.8904 -0.4267
16200TIP3    H270092   6.458   6.293  13.514  0.5084 -2.1777  0.0433
16201TIP3   OH270093   5.493   2.746  15.398  0.6544 -0.0385  1.2051
16201TIP3    H170094   5.512   2.833  15.363  1.5603 -0.5506  0.3848
16201TIP3    H270095   5.397   2.741  15.399  0.5267 -0.1204 -1.6559
16202TIP3   OH270096   4.085   2.653  14.393  0.1151 -0.4210  0.0251
16202TIP3    H170097   4.045   2.664  14.479 -1.6006  0.1016 -0.7904
16202TIP3    H270098   4.172   2.692  14.402 -0.3991  0.5281  1.2692
16203TIP3   OH270099   5.354   5.501   5.228 -0.1319 -0.3440  0.0532
16203TIP3    H170100   5.289   5.491   5.298 -0.4402  0.5333 -0.0990
16203TIP3    H270101   5.368   5.412   5.196  0.8737 -0.9520  1.9889
16204TIP3   OH270102   1.743   0.285  11.912  0.3927  0.0668  0.2183
16204TIP3    H170103   1.695   0.301  11.831 -1.7839 -0.2344  1.3570
16204TIP3    H270104   1.744   0.189  11.921 -1.5356  0.1123  1.6547
16205TIP3   OH270105   6.721   2.971  13.416 -0.2644 -0.5012  0.7152
16205TIP3    H170106   6.735   3.060  13.381 -1.7257 -0.2602  0.6850
16205TIP3    H270107   6.809   2.933  13.421  0.2332  0.3769 -0.7936
16206TIP3   OH270108   3.656   1.107  14.371 -0.1073  0.3061  0.1202
16206TIP3    H170109   3.571   1.088  14.412 -0.3642  1.0283 -0.0571
16206TIP3    H270110   3.642   1.088  14.278  0.0125  0.1430  0.1365
16207TIP3   OH270111   2.540   3.486   0.157  0.2991  0.0216  0.0531
16207TIP3    H170112   2.549   3.449   0.069 -1.1087 -0.1034 -0.0585
16207TIP3    H270113   2.570   3.417   0.215 -2.4119 -1.4615 -0.1438
16208TIP3   OH270114   4.915   6.339  11.864 -0.1970  0.1144  0.0344
16208TIP3    H170115   4.915   6.245  11.882  0.1819 -0.2281 -1.6126
16208TIP3    H270116   4.835   6.353  11.812 -0.6232  0.8436  0.8593
16209TIP3   OH270117   4.396   5.926  12.981  0.8973 -0.2482 -0.4546
16209TIP3    H170118   4.487   5.903  13.002  0.2441 -1.4930  1.3144
16209TIP3    H270119   4.361   5.846  12.941  0.4850  0.1062 -0.7980
16210TIP3   OH270120   3.758   5.400   3.330 -0.1881  0.5754  0.3713
16210TIP3    H170121   3.819   5.392   3.257 -0.2037  1.1020  0.2959
16210TIP3    H270122   3.732   5.310   3.349  0.4625  0.3651  0.2819
16211TIP3   OH270123   0.928   5.165  11.411  0.1739  0.1521  0.1595
16211TIP3    H170124   0.984   5.090  11.392  2.0133  1.6554 -0.7258
16211TIP3    H270125   0.979   5.219  11.471 -0.4372  1.4250 -0.4242
16212TIP3   OH270126   1.510   4.120   5.145  0.1874  0.4193  0.1913
16212TIP3    H170127   1.428   4.168   5.149 -0.1459 -0.2028  1.2628
16212TIP3    H270128   1.488   4.033   5.179  0.8751 -0.3535 -1.2704
16213TIP3   OH270129   0.871   2.964  16.429 -0.7166 -0.8194 -0.4462
16213TIP3    H170130   0.917   3.048  16.424  1.1163 -1.5359  2.0533
16213TIP3    H270131   0.828   2.955  16.345  1.3354  1.3249 -1.8595
16214TIP3   OH270132   5.100   3.645  12.075  0.5812  0.1645 -0.2686
16214TIP3    H170133   5.015   3.686  12.089  1.6128  2.5126 -0.3948
16214TIP3    H270134   5.107   3.634  11.980  0.4595  0.0595 -0.2651
16215TIP3   OH270135   3.173   6.338   6.566 -0.0071 -0.2021 -0.4072
16215TIP3    H170136   3.240   6.269   6.571 -0.1748 -0.2851  0.9115
16215TIP3    H270137   3.216   6.408   6.517  1.8526  0.5874  2.1433
16216TIP3   OH270138   4.270   3.787   5.906  0.3782  0.4025  0.5152
16216TIP3    H170139   4.248   3.804   5.998 -0.4541 -1.6843  0.7549
16216TIP3    H270140   4.351   3.836   5.891  0.2421  1.2001  2.2006
16217TIP3   OH270141   1.806   5.311   2.720 -0.0737 -0.0101 -0.6211
16217TIP3    H170142   1.716   5.340   2.705 -0.2246 -1.2292 -2.3729
16217TIP3    H270143   1.798   5.242   2.787 -0.2362  0.8836  0.3034
16218TIP3   OH270144   4.110   6.659   1.226  0.1226  0.1463  0.2722
16218TIP3    H170145   4.056   6.732   1.258 -0.6495 -0.4788  0.4450
16218TIP3    H270146   4.195   6.672   1.267 -0.1447  0.6903  0.6701
16219TIP3   OH270147   2.653   1.050   0.674 -0.5733  0.2425 -0.2968
16219TIP3    H170148   2.626   1.055   0.765 -1.1773  2.1442 -0.5309
16219TIP3    H270149   2.690   1.137   0.655  1.6275 -0.8134 -1.2592
16220TIP3   OH270150   3.391   0.477   4.912 -0.1831 -0.1564  0.3363
16220TIP3    H170151   3.430   0.430   4.985  1.4168  0.1878 -0.2407
16220TIP3    H270152   3.396   0.570   4.937 -0.6951 -0.1054  0.2703
16221TIP3   OH270153   3.614   0.026   1.443  0.0731 -0.4252  0.0069
16221TIP3    H170154   3.602   0.096   1.506  1.0588  0.5474 -0.8359
16221TIP3    H270155   3.705   0.036   1.413 -0.4737 -0.6055 -1.8303
16222TIP3   OH270156   0.939   2.249   4.513 -0.0619  0.5585 -0.0524
16222TIP3    H170157   0.985   2.238   4.596 -1.0167 -2.4007  0.1941
16222TIP3    H270158   0.851   2.277   4.537 -1.2274 -2.9677  0.2940
16223TIP3   OH270159   3.169   0.621   2.437  0.4816  0.4162  0.5012
16223TIP3    H170160   3.217   0.674   2.373 -0.4204  0.6585  0.0172
16223TIP3    H270161   3.236   0.595   2.501  1.4190  0.0869 -0.5865
16224TIP3   OH270162   6.821   2.113  16.986  0.0373  0.1142  0.1331
16224TIP3    H170163   6.900   2.060  16.971 -0.0221 -0.1291  0.6605
16224TIP3    H270164   6.837   2.155  17.071 -0.0459  0.7133 -0.1449
16225TIP3   OH270165   0.092   2.647   0.914  0.0632  0.4407  0.3067
16225TIP3    H170166   0.153   2.581   0.882  0.5842  0.7828  0.5784
16225TIP3    H270167   0.007   2.605   0.911  0.1740  0.2603 -0.9576
16226TIP3   OH270168   1.937   4.460  14.449 -0.1685  0.1495  0.4201
16226TIP3    H170169   1.901   4.529  14.504  0.4540  1.7388 -1.0893
16226TIP3    H270170   2.032   4.471  14.456 -0.0723 -0.2291 -0.2266
16227TIP3   OH270171   1.028   6.745  12.518 -0.1008 -0.1600 -0.1464
16227TIP3    H170172   0.971   6.819  12.497  1.8088  1.3720 -0.1819
16227TIP3    H270173   1.088   6.778  12.585  1.5579 -1.2905 -0.9957
16228TIP3   OH270174   4.732   4.108   1.312 -0.2587 -0.7466  0.2777
16228TIP3    H170175   4.657   4.166   1.323  0.5424  0.1413  1.3252
16228TIP3    H270176   4.780   4.116   1.395  0.5371 -1.9463 -0.0522
16229TIP3   OH270177   2.209   5.699  16.674  0.2829 -1.0418  0.1566
16229TIP3    H170178   2.231   5.631  16.737 -0.2032 -2.1345 -0.8284
16229TIP3    H270179   2.230   5.662  16.589  2.4902  0.9987 -0.3009
16230TIP3   OH270180   2.534   3.785  11.931 -0.1913 -0.0729  0.2071
16230TIP3    H170181   2.605   3.814  11.874 -0.0057 -0.0784  0.4336
16230TIP3    H270182   2.498   3.709  11.886 -1.0221  0.8027 -0.6523
16231TIP3   OH270183   3.395   3.542   0.018  0.1821 -0.0758  0.0061
16231TIP3    H170184   3.353   3.617   0.061  0.5597 -0.1995  0.5993
16231TIP3    H270185   3.357   3.541  -0.070 -2.2278 -1.0943  0.9715
16232TIP3   OH270186   1.519   4.904  16.720 -0.2974  0.0769 -0.8315
16232TIP3    H170187   1.456   4.973  16.701  1.5783  1.9235 -0.6920
16232TIP3    H270188   1.560   4.930  16.802  2.6230  0.5424 -2.3187
16233TIP3   OH270189   3.036   5.490   0.596  0.3464 -0.0378  0.0259
16233TIP3    H170190   2.949   5.452   0.601  0.3825 -0.4025 -1.6023
16233TIP3    H270191   3.036   5.542   0.516  1.1953  1.1233  0.7365
16234TIP3   OH270192   5.530   2.634   3.329 -0.2852 -0.2637 -0.0571
16234TIP3    H170193   5.603   2.578   3.356 -0.2837 -0.6808 -0.8734
16234TIP3    H270194   5.522   2.618   3.235 -1.5598 -0.3818  0.0545
16235TIP3   OH270195   4.100   5.986   5.275 -0.2260 -0.3586 -0.3608
16235TIP3    H170196   4.009   5.998   5.304 -0.2037 -0.2413 -0.3382
16235TIP3    H270197   4.106   5.893   5.254 -1.0124  0.0458 -2.6519
16236TIP3   OH270198   3.105   0.940  13.176  0.0644  0.0102 -0.0998
16236TIP3    H170199   3.167   0.881  13.131  0.1206 -0.8724  1.0821
16236TIP3    H270200   3.067   0.992  13.105 -0.1368 -1.5885 -1.2495
16237TIP3   OH270201   0.774   6.054  16.125  0.2271  0.1095 -0.4357
16237TIP3    H170202   0.700   6.099  16.165  1.2961  2.2881 -0.7801
16237TIP3    H270203   0.833   6.124  16.096  1.6088 -1.4965 -1.7611
16238TIP3   OH270204   0.583   1.348   1.088 -0.1249 -0.0175 -0.0499
16238TIP3    H170205   0.633   1.268   1.071 -0.2134 -0.3004  0.9603
16238TIP3    H270206   0.540   1.332   1.172  1.0963  1.6740  0.9494
16239TIP3   OH270207   2.064   2.529  15.373 -0.7695  0.6593 -0.0491
16239TIP3    H170208   1.995   2.534  15.439 -0.8072 -1.7268  0.1823
16239TIP3    H270209   2.073   2.436  15.355  1.9968  0.9249 -0.5120
16240TIP3   OH270210   6.563   6.070   3.461 -0.3401  0.2635 -0.0361
16240TIP3    H170211   6.625   6.072   3.533 -1.5562 -0.5371  1.0582
16240TIP3    H270212   6.597   6.003   3.402  1.4923  1.9434 -1.0619
16241TIP3   OH270213   5.281   3.178  11.706 -0.2607 -0.0627  0.0104
16241TIP3    H170214   5.198   3.199  11.662  0.6848 -0.8390 -2.2397
16241TIP3    H270215   5.280   3.234  11.784 -1.7292  1.8812 -1.2820
16242TIP3   OH270216   2.308   1.794  13.495 -0.0777 -0.0914  0.1885
16242TIP3    H170217   2.223   1.763  13.525 -0.0489  1.4781  2.0475
16242TIP3    H270218   2.290   1.879  13.456  0.6962  0.4715  1.0405
16243TIP3   OH270219   0.904   0.456  11.822 -0.8499  0.5319 -0.4211
16243TIP3    H170220   0.906   0.493  11.910  0.2401  1.0845 -0.6568
16243TIP3    H270221   0.887   0.363  11.835  1.4617  0.1704  0.5594
16244TIP3   OH270222   1.978   3.596  15.373  0.0773  0.2056  0.7411
16244TIP3    H170223   2.012   3.541  15.444  2.9596 -1.3908 -1.6039
16244TIP3    H270224   2.039   3.669  15.369  0.1971  0.0689 -0.2645
16245TIP3   OH270225   1.087   0.853  12.135 -0.0591 -0.4268 -0.3369
16245TIP3    H170226   1.149   0.894  12.074  0.6333 -2.1559 -0.8870
16245TIP3    H270227   1.014   0.826  12.080 -0.2337 -0.4331 -0.1008
16246TIP3   OH270228   4.917   4.869  10.927  0.7167 -0.1434  0.2237
16246TIP3    H170229   4.890   4.897  10.839  0.2267 -1.6413 -0.1502
16246TIP3    H270230   4.960   4.945  10.965 -0.8827  1.2017 -0.5407
16247TIP3   OH270231   3.324   6.273   4.945  0.0036 -0.1319  0.1933
16247TIP3    H170232   3.380   6.342   4.912  1.0664 -1.0365  0.0407
16247TIP3    H270233   3.275   6.242   4.868  0.4565 -0.3947  0.0095
16248TIP3   OH270234   6.084   0.606   0.952 -0.0660 -0.3616 -0.2602
16248TIP3    H170235   6.027   0.580   0.879 -0.4889  0.5954 -0.2878
16248TIP3    H270236   6.035   0.674   0.998 -0.0191 -1.2827  1.2268
16249TIP3   OH270237   3.723   6.171   2.413 -0.5087  0.0428  0.0272
16249TIP3    H170238   3.678   6.092   2.384 -0.3141 -1.1208  2.6342
16249TIP3    H270239   3.793   6.184   2.349 -1.1945 -1.2880 -1.0302
16250TIP3   OH270240   0.262   2.841  13.751 -0.2604  0.0593 -0.2262
16250TIP3    H170241   0.277   2.751  13.725  0.2072  0.7898 -2.7335
16250TIP3    H270242   0.341   2.866  13.799  0.0478 -0.5681 -0.4059
16251TIP3   OH270243   5.974   0.430  12.861  0.4275  0.8764  0.0941
16251TIP3    H170244   6.027   0.452  12.785  1.3862 -0.1675  0.4310
16251TIP3    H270245   5.993   0.499  12.925  0.5129  1.1119 -0.1834
16252TIP3   OH270246   6.484   4.132   3.688 -0.0803  0.0817 -0.1595
16252TIP3    H170247   6.443   4.075   3.623  0.1426 -0.7544  0.4131
16252TIP3    H270248   6.578   4.111   3.683  0.1746  1.3434 -0.8497
16253TIP3   OH270249   3.745   4.580  15.511 -0.2749  0.6051  0.4480
16253TIP3    H170250   3.674   4.637  15.483 -1.1055 -1.1602 -1.2278
16253TIP3    H270251   3.706   4.523  15.577 -0.2263  0.1471  0.0875
16254TIP3   OH270252   4.303   2.124  16.222  0.8229 -0.5661  0.3796
16254TIP3    H170253   4.209   2.132  16.236  0.8268 -1.1904  0.8070
16254TIP3    H270254   4.317   2.154  16.132  0.3354  0.3189  0.5936
16255TIP3   OH270255   4.578   6.756   1.987 -0.2918 -0.3253  0.2431
16255TIP3    H170256   4.549   6.666   1.974  0.4128 -0.5086 -0.0892
16255TIP3    H270257   4.597   6.788   1.899 -0.7599  0.2308  0.3357
16256TIP3   OH270258   0.907   5.080  15.062  0.5123 -0.0193 -0.2754
16256TIP3    H170259   0.815   5.053  15.065  0.3812  0.1185 -1.9313
16256TIP3    H270260   0.953   5.004  15.028  0.8045  0.3426 -0.7065
16257TIP3   OH270261   2.117   3.168  13.435 -0.2120 -0.7511 -0.0757
16257TIP3    H170262   2.160   3.083  13.426 -2.1959 -1.6833 -1.7497
16257TIP3    H270263   2.032   3.147  13.475  0.0306  0.7280  1.2990
16258TIP3   OH270264   3.771   5.043   5.649  0.0061  0.4782 -0.0587
16258TIP3    H170265   3.842   5.034   5.712  0.3591  1.2631 -0.3408
16258TIP3    H270266   3.774   4.962   5.599  0.2677  0.2151  0.3721
16259TIP3   OH270267   5.682   3.904   4.942 -0.1475  0.0859  0.1680
16259TIP3    H170268   5.632   3.844   4.887  1.1257 -1.3161  0.4516
16259TIP3    H270269   5.667   3.873   5.031 -1.8001  2.0356  0.6479
16260TIP3   OH270270   0.505   3.895  11.932  0.3370 -0.2629  0.1330
16260TIP3    H170271   0.526   3.804  11.915 -0.1909 -0.4814  0.5968
16260TIP3    H270272   0.449   3.921  11.859  0.8498 -0.1744 -0.2305
16261TIP3   OH270273   4.345   2.550  13.298 -0.4224  0.4321 -0.0945
16261TIP3    H170274   4.364   2.599  13.218  2.0802  0.1919  0.2687
16261TIP3    H270275   4.301   2.614  13.355  0.3665  1.4777 -0.6225
16262TIP3   OH270276   5.755   0.369   5.470 -0.4733  0.4761  0.3639
16262TIP3    H170277   5.665   0.339   5.461 -0.5325  0.8612 -0.4318
16262TIP3    H270278   5.747   0.463   5.490 -0.2879  0.0870  2.5339
16263TIP3   OH270279   6.730   3.990   2.994  0.2793 -0.1355  0.3069
16263TIP3    H170280   6.824   3.979   3.009 -0.0881 -2.0804  1.5610
16263TIP3    H270281   6.716   3.954   2.907  0.7474  0.5778 -0.0743
16264TIP3   OH270282   2.491   2.190   5.939 -0.2777  0.6354  0.0250
16264TIP3    H170283   2.406   2.234   5.940 -0.0519  1.1517 -1.6072
16264TIP3    H270284   2.488   2.132   6.016 -1.8806  1.0320  0.3049
16265TIP3   OH270285   6.200   5.293  11.821  0.1168  0.0599 -0.6806
16265TIP3    H170286   6.191   5.240  11.900  0.0707  0.6087 -0.3109
16265TIP3    H270287   6.294   5.297  11.805  0.2251  0.9458  0.0539
16266TIP3   OH270288   6.194   5.667   5.907 -0.2137 -0.0781  0.1620
16266TIP3    H170289   6.215   5.652   5.999 -0.4271  0.7003  0.3401
16266TIP3    H270290   6.245   5.744   5.883 -1.4554  0.7459  0.1010
16267TIP3   OH270291   6.370   5.533   6.495  0.3992 -0.8693 -0.0052
16267TIP3    H170292   6.336   5.567   6.578  1.2846  0.3442 -0.1180
16267TIP3    H270293   6.311   5.460   6.473 -1.5423  0.5559  0.2657
16268TIP3   OH270294   0.324   1.041   0.079 -0.6307 -0.4061 -0.0722
16268TIP3    H170295   0.309   1.090  -0.002  0.2992 -1.0602 -0.6556
16268TIP3    H270296   0.418   1.024   0.080 -0.5762 -0.1091  1.3290
16269TIP3   OH270297   6.410   2.988   0.510 -0.4349  0.1530  0.2596
16269TIP3    H170298   6.448   2.947   0.432 -1.0851  0.9155 -0.4724
16269TIP3    H270299   6.320   3.008   0.485 -0.7016  0.2624  1.2720
16270TIP3   OH270300   4.340   5.626  16.228 -0.4538  0.6932 -0.2580
16270TIP3    H170301   4.387   5.592  16.305  0.2089  1.1360 -0.4560
16270TIP3    H270302   4.301   5.708  16.258 -1.9702 -0.1517  0.1950
16271TIP3   OH270303   1.097   1.542  14.394 -0.7225  0.1341  0.0669
16271TIP3    H170304   1.174   1.574  14.346 -0.9156  1.7745  0.7612
16271TIP3    H270305   1.023   1.559  14.335 -0.7035 -0.0765 -0.0164
16272TIP3   OH270306   1.317   2.154   5.384  0.3260 -0.6144  0.1822
16272TIP3    H170307   1.276   2.223   5.437 -2.8384  0.3429 -3.0750
16272TIP3    H270308   1.279   2.073   5.417  0.6330 -0.3690  1.1819
16273TIP3   OH270309   1.055   4.256   1.646  0.0412 -0.1779  0.4440
16273TIP3    H170310   1.004   4.192   1.597  0.9825  0.2498 -1.1787
16273TIP3    H270311   1.027   4.341   1.610  3.9699  0.0239 -2.9145
16274TIP3   OH270312   6.091   6.613  10.814  0.8243 -0.3125 -0.2154
16274TIP3    H170313   6.067   6.705  10.807 -0.5667 -0.2907  2.9965
16274TIP3    H270314   6.058   6.573  10.734  0.3444  1.7476 -1.1051
16275TIP3   OH270315   4.344   2.243  15.968 -0.0964  0.4588  0.6925
16275TIP3    H170316   4.301   2.328  15.968 -0.2141  0.4454 -1.3148
16275TIP3    H270317   4.398   2.243  15.889  1.4525 -0.5859  1.6868
16276TIP3   OH270318   2.371   6.533  16.688  0.1492 -0.2961 -0.1339
16276TIP3    H170319   2.309   6.518  16.760  0.7138  0.9823  0.6665
16276TIP3    H270320   2.327   6.499  16.611 -2.5459  2.4007  0.0006
16277TIP3   OH270321   0.864   6.283   5.259 -0.1135  0.6089  0.3844
16277TIP3    H170322   0.805   6.279   5.183 -0.2846  1.4376  0.4653
16277TIP3    H270323   0.890   6.192   5.273  0.7130  0.5397 -1.2872
16278TIP3   OH270324   1.484   0.641   1.115  0.3171  0.6253 -0.1174
16278TIP3    H170325   1.400   0.623   1.072 -0.2697  2.4234  0.1833
16278TIP3    H270326   1.484   0.736   1.128  0.9790  0.3089  2.7942
16279TIP3   OH270327   5.287   3.010  17.172 -0.4838 -0.1464  0.4243
16279TIP3    H170328   5.306   2.941  17.108 -0.9240 -0.7689  0.9429
16279TIP3    H270329   5.361   3.071  17.164  0.0173 -0.7770  0.0841
16280TIP3   OH270330   2.126   3.251   4.653 -0.1549 -0.1836 -0.5227
16280TIP3    H170331   2.049   3.307   4.652 -0.6398 -0.8005 -2.3167
16280TIP3    H270332   2.191   3.300   4.702 -1.0712  1.2439 -0.6822
16281TIP3   OH270333   4.416   4.814  15.242 -0.4116 -0.1929  0.2718
16281TIP3    H170334   4.473   4.887  15.264  1.2427 -0.4310 -2.6683
16281TIP3    H270335   4.332   4.854  15.220  0.1590  0.7309 -0.2860
16282TIP3   OH270336   3.523   4.624  16.035  0.3274  0.7816 -0.4909
16282TIP3    H170337   3.477   4.699  15.996 -1.7399  0.9891  2.1064
16282TIP3    H270338   3.570   4.661  16.110  2.1265 -0.0272 -1.1642
16283TIP3   OH270339   2.092   6.003  15.372 -0.0938  0.1592  0.0663
16283TIP3    H170340   2.173   6.037  15.410  0.0440  0.6588 -0.6684
16283TIP3    H270341   2.090   5.911  15.399  1.0328 -0.0314 -0.4308
16284TIP3   OH270342   0.848   2.234   2.648  0.0478 -0.1752  0.0162
16284TIP3    H170343   0.891   2.158   2.607  0.5131  0.2106 -0.2179
16284TIP3    H270344   0.771   2.249   2.594  0.1360 -0.2720 -0.1392
16285TIP3   OH270345   5.882   2.297   1.456  0.0089 -0.0702 -0.4755
16285TIP3    H170346   5.863   2.265   1.368 -0.6646 -2.1977  0.3851
16285TIP3    H270347   5.797   2.322   1.492  0.4656  2.4668 -0.9638
16286TIP3   OH270348   4.366   4.931   4.524  0.1117  0.0432  0.5442
16286TIP3    H170349   4.455   4.900   4.506  0.2315  0.4792  0.3792
16286TIP3    H270350   4.312   4.852   4.517  0.4980 -0.2436  0.7539
16287TIP3   OH270351   2.472   3.527  13.990  0.4810  0.5166 -0.0994
16287TIP3    H170352   2.479   3.435  13.965  1.1019  0.7318 -0.7285
16287TIP3    H270353   2.380   3.549  13.976  0.7620  0.5843 -2.0566
16288TIP3   OH270354   2.354   3.457  12.196 -0.1357  0.3567  0.0141
16288TIP3    H170355   2.284   3.495  12.144  0.1626 -0.7106 -1.2136
16288TIP3    H270356   2.325   3.467  12.287 -0.7023  2.1843 -0.3231
16289TIP3   OH270357   4.676   2.764   5.124 -0.2621  0.2705 -0.2496
16289TIP3    H170358   4.718   2.807   5.199  1.3847 -0.2204 -0.8431
16289TIP3    H270359   4.601   2.820   5.104  2.7540  4.1834 -2.1521
16290TIP3   OH270360   1.236   3.734  15.363  0.1794  0.3388 -0.0890
16290TIP3    H170361   1.164   3.784  15.325  1.4798  1.1364 -1.6355
16290TIP3    H270362   1.254   3.665  15.300  1.3845  0.7530 -0.2351
16291TIP3   OH270363   2.714   6.047   3.853 -0.1041 -0.2693  0.1157
16291TIP3    H170364   2.678   5.964   3.882 -0.7238  0.4679  1.5590
16291TIP3    H270365   2.737   6.093   3.934  2.2010  0.1329 -0.6816
16292TIP3   OH270366   1.264   0.441   4.956  0.0591 -0.0156  0.2931
16292TIP3    H170367   1.268   0.378   4.884  0.2025 -0.6236  0.8230
16292TIP3    H270368   1.210   0.513   4.922  2.7131  1.2583 -1.5772
16293TIP3   OH270369   1.181   0.294   4.387 -0.0883  0.4271  0.2694
16293TIP3    H170370   1.132   0.304   4.306  0.5533 -2.4437 -0.5536
16293TIP3    H270371   1.115   0.303   4.456 -0.8784  1.4813 -0.5913
16294TIP3   OH270372   3.037   1.043  12.943 -0.1797  0.0566  0.3751
16294TIP3    H170373   3.023   1.135  12.919 -0.2660 -0.5146 -1.9176
16294TIP3    H270374   2.980   0.994  12.885  1.5407 -1.5904 -0.0089
16295TIP3   OH270375   5.376   4.681   1.424 -0.4783 -1.0686  0.4026
16295TIP3    H170376   5.386   4.588   1.402  0.9206 -1.5657  2.8167
16295TIP3    H270377   5.377   4.726   1.340 -1.3885 -3.2290 -0.8478
16296TIP3   OH270378   2.417   1.857  13.102 -0.5318  0.1640  0.6156
16296TIP3    H170379   2.353   1.927  13.090 -0.1139  0.3332 -0.7483
16296TIP3    H270380   2.494   1.900  13.139  0.1396  0.6970 -1.2555
16297TIP3   OH270381   4.264   1.164   1.020  0.7327  0.4306 -0.0778
16297TIP3    H170382   4.248   1.156   0.926  3.4102 -1.8148 -0.4729
16297TIP3    H270383   4.253   1.075   1.054  1.1357  0.9395  1.4740
16298TIP3   OH270384   2.769   5.087   1.411  0.2952 -0.3598 -0.5655
16298TIP3    H170385   2.774   5.015   1.473  0.2929  1.0510  1.1424
16298TIP3    H270386   2.675   5.097   1.393  0.1923  0.0112  0.1712
16299TIP3   OH270387   4.574   2.444  10.759 -0.0584 -0.3104 -0.0353
16299TIP3    H170388   4.539   2.533  10.760  1.0382  0.1317  0.0596
16299TIP3    H270389   4.508   2.392  10.805  0.1239  0.7941  1.5912
16300TIP3   OH270390   2.160   1.656  15.791 -0.3019 -0.3448 -0.3510
16300TIP3    H170391   2.227   1.689  15.731 -0.1202  1.4978  0.7886
16300TIP3    H270392   2.205   1.589  15.842  0.0587 -0.6011 -0.9838
16301TIP3   OH270393   1.370   0.428  13.297  0.6578 -0.0471  0.3059
16301TIP3    H170394   1.376   0.471  13.212 -1.2727 -0.2676  0.0210
16301TIP3    H270395   1.365   0.499  13.361  3.5579  0.1473  0.4420
16302TIP3   OH270396   1.542   3.423   4.668 -0.1970 -0.4513  0.0789
16302TIP3    H170397   1.545   3.515   4.641 -0.8042  0.5140  2.9469
16302TIP3    H270398   1.587   3.376   4.598  1.8903  2.2501 -0.5629
16303TIP3   OH270399   2.906   3.176   0.918  0.8198  0.1789 -0.2466
16303TIP3    H170400   2.813   3.173   0.897  0.9284  0.9741 -0.8953
16303TIP3    H270401   2.921   3.266   0.948  1.1806 -0.2302  0.8295
16304TIP3   OH270402   3.458   0.388  13.547  0.4236 -0.1771  0.3801
16304TIP3    H170403   3.475   0.429  13.462  1.1341 -1.0693  0.0766
16304TIP3    H270404   3.527   0.322  13.556 -0.8228 -1.4676  0.7440
16305TIP3   OH270405   1.353   2.758   4.892  0.5907  0.1294 -0.2913
16305TIP3    H170406   1.411   2.701   4.943 -0.8236 -1.5350 -0.4359
16305TIP3    H270407   1.411   2.821   4.851  2.0086  0.0921  1.5522
16306TIP3   OH270408   4.097   1.789  15.749 -0.2567 -0.2389  0.1422
16306TIP3    H170409   4.089   1.770  15.655 -0.3461 -0.6919  0.2401
16306TIP3    H270410   4.118   1.882  15.753  2.4738 -0.7484 -0.4722
16307TIP3   OH270411   0.295   1.444   2.725 -0.3589 -0.0096  0.4921
16307TIP3    H170412   0.324   1.383   2.658  0.5290  2.0422 -1.0664
16307TIP3    H270413   0.332   1.528   2.700 -3.8429  1.8538  0.9266
16308TIP3   OH270414   5.482   5.519   3.333 -0.6022  0.1329 -0.3921
16308TIP3    H170415   5.468   5.576   3.257 -1.7457  0.1416 -0.1902
16308TIP3    H270416   5.511   5.578   3.402 -3.9654  0.9529  0.5003
16309TIP3   OH270417   1.056   0.815  13.022  0.2863  0.4034 -0.4542
16309TIP3    H170418   0.996   0.766  13.078  1.2445 -1.1234 -0.7022
16309TIP3    H270419   1.027   0.906  13.028 -0.3802  0.0882  1.5289
16310TIP3   OH270420   3.211   4.620  13.952  0.0419 -0.4845  0.5174
16310TIP3    H170421   3.286   4.634  14.010  0.1102  0.1105  0.2944
16310TIP3    H270422   3.181   4.708  13.929 -1.7568 -0.6822  1.9065
16311TIP3   OH270423   6.065   2.122   4.400 -0.7274 -0.3052  0.5121
16311TIP3    H170424   6.025   2.202   4.434 -0.6083  0.5025 -1.1438
16311TIP3    H270425   6.147   2.113   4.449 -1.5028 -0.3282  1.8416
16312TIP3   OH270426   5.280   4.387   5.184  0.0729  0.4231 -0.0692
16312TIP3    H170427   5.367   4.354   5.207  0.0434 -0.9462 -1.7822
16312TIP3    H270428   5.225   4.310   5.181 -0.4964  0.8530 -2.0173
16313TIP3   OH270429   5.691   5.974   2.629  0.0675 -0.2070 -0.7458
16313TIP3    H170430   5.756   5.945   2.693  0.4992  1.1407 -0.5432
16313TIP3    H270431   5.610   5.985   2.680  0.7311  2.1626 -0.0875
16314TIP3   OH270432   0.720   2.474  13.257  0.0237  0.0402  0.9576
16314TIP3    H170433   0.674   2.501  13.178 -0.8611  0.1225  1.4827
16314TIP3    H270434   0.797   2.427  13.226 -0.4524 -0.1572  0.0549
16315TIP3   OH270435   3.013   6.439  14.489 -0.8422  0.4314  0.3331
16315TIP3    H170436   3.026   6.382  14.565  0.1691  1.1160  0.6840
16315TIP3    H270437   2.950   6.391  14.435 -1.2303 -0.2801  1.3750
16316TIP3   OH270438   3.386   2.157  14.808  0.1999 -0.0700  0.3283
16316TIP3    H170439   3.312   2.214  14.788  1.3936  1.5450  0.3430
16316TIP3    H270440   3.347   2.083  14.855 -1.5434  0.1408 -0.6775
16317TIP3   OH270441   6.568   4.521   3.142  0.0875 -0.1909  0.1858
16317TIP3    H170442   6.584   4.543   3.234 -2.8899  1.6720  0.3986
16317TIP3    H270443   6.489   4.467   3.144  0.0755 -0.2610 -1.3054
16318TIP3   OH270444   3.806   6.138  14.031 -0.0337  0.2965  0.6533
16318TIP3    H170445   3.856   6.200  14.084 -2.7201  1.3608  2.1360
16318TIP3    H270446   3.795   6.061  14.087  0.8146 -0.4060 -0.0969
16319TIP3   OH270447   3.123   3.001   5.412  0.0623  0.4801 -0.3311
16319TIP3    H170448   3.088   2.937   5.349 -2.2179  2.2920 -1.0366
16319TIP3    H270449   3.218   2.990   5.407 -0.2133 -2.5308 -0.7087
16320TIP3   OH270450   6.604   2.390  14.872 -0.0832 -0.0405 -0.1600
16320TIP3    H170451   6.565   2.329  14.810 -0.2048  0.5170 -0.6488
16320TIP3    H270452   6.676   2.431  14.823  1.0932 -1.0042  0.7001
16321TIP3   OH270453   0.826   4.043  10.845 -0.5284 -0.0514 -0.3019
16321TIP3    H170454   0.895   3.976  10.850 -0.7751 -0.2992 -0.1271
16321TIP3    H270455   0.865   4.120  10.885 -0.5259 -0.3491  0.2917
16322TIP3   OH270456   0.861   2.043   4.354 -0.6345 -0.6519  0.4748
16322TIP3    H170457   0.899   2.124   4.389 -0.3656 -0.5422 -0.0434
16322TIP3    H270458   0.891   1.974   4.412  0.1912 -0.5356  0.1965
16323TIP3   OH270459   6.765   1.051  14.493  0.0431  0.4982  0.0356
16323TIP3    H170460   6.824   0.978  14.480 -0.0283  0.5992 -0.9394
16323TIP3    H270461   6.790   1.115  14.425 -0.3305  1.0876  0.4393
16324TIP3   OH270462   1.029   5.548   2.744 -0.1034 -0.1632  0.0422
16324TIP3    H170463   1.093   5.603   2.789  0.3138 -1.5084  1.1653
16324TIP3    H270464   0.980   5.609   2.689  2.5255  0.8219 -1.3745
16325TIP3   OH270465   1.898   5.829  16.440  0.3327  0.3360 -0.1294
16325TIP3    H170466   1.853   5.912  16.422  0.5714  0.6890  0.8135
16325TIP3    H270467   1.827   5.764  16.441 -0.0931  0.7856  0.6812
16326TIP3   OH270468   3.055   6.384   0.047 -0.5008  0.0568 -0.6342
16326TIP3    H170469   3.099   6.469   0.041 -0.7151  0.3423  1.1792
16326TIP3    H270470   2.962   6.405   0.054 -0.4700 -0.2338  0.9586
16327TIP3   OH270471   1.692   4.094   3.376 -0.1002 -0.4409 -0.1278
16327TIP3    H170472   1.690   4.080   3.282 -0.6933 -0.7434 -0.0776
16327TIP3    H270473   1.732   4.015   3.412  1.2446  0.1732 -0.1972
16328TIP3   OH270474   1.374   2.518  13.382 -0.1343  0.2673 -0.4975
16328TIP3    H170475   1.333   2.449  13.433  1.2350  0.6509  1.2289
16328TIP3    H270476   1.456   2.479  13.350 -0.8144  0.1422 -2.1634
16329TIP3   OH270477   2.989   1.394  13.357 -0.3483  0.1090 -0.3339
16329TIP3    H170478   2.935   1.316  13.348 -0.2387  0.0083 -0.1250
16329TIP3    H270479   2.926   1.465  13.374 -0.3328 -0.2764  1.5935
16330TIP3   OH270480   1.553   0.786  13.416 -0.3007  0.3112 -0.3002
16330TIP3    H170481   1.473   0.837  13.401  0.8452  2.0723 -0.6948
16330TIP3    H270482   1.582   0.762  13.328 -0.0324  0.2720 -0.2005
16331TIP3   OH270483   1.276   6.493   5.577  0.1245  0.1697 -0.0604
16331TIP3    H170484   1.232   6.525   5.498 -0.1088  1.0344  0.4165
16331TIP3    H270485   1.366   6.476   5.549 -0.0676  0.0542 -0.6180
16332TIP3   OH270486   1.410   2.394   5.890 -0.1510  0.3618 -0.1571
16332TIP3    H170487   1.326   2.348   5.897  1.5572 -2.8290  5.5349
16332TIP3    H270488   1.473   2.327   5.866  1.4428  1.5937  0.4282
16333TIP3   OH270489   2.449   3.078   6.434  0.0476 -0.2684  0.4096
16333TIP3    H170490   2.442   3.123   6.519  0.5557  0.8382 -0.1152
16333TIP3    H270491   2.410   2.992   6.449 -1.4304  0.5218  1.3223
16334TIP3   OH270492   4.669   4.006  14.413 -0.8876 -0.8240 -0.2683
16334TIP3    H170493   4.614   4.078  14.442 -1.6200 -1.7975  0.8350
16334TIP3    H270494   4.758   4.041  14.415 -0.9907 -0.5167  2.2545
16335TIP3   OH270495   6.781   3.489   1.356  0.3188 -0.0296 -0.4312
16335TIP3    H170496   6.688   3.473   1.372  0.0626  0.6162 -1.1820
16335TIP3    H270497   6.812   3.533   1.435 -0.0514 -0.1072 -0.2429
16336TIP3   OH270498   3.061   5.029   2.457  0.5625 -0.1408 -0.5250
16336TIP3    H170499   3.108   5.040   2.540  1.6530 -0.4175 -1.0813
16336TIP3    H270500   3.085   4.941   2.428  0.9747  0.3164 -1.6081
16337TIP3   OH270501   0.673   5.024   3.510  0.3036 -0.5159  0.4288
16337TIP3    H170502   0.630   4.939   3.522 -0.6193  0.0776  1.6164
16337TIP3    H270503   0.674   5.037   3.416 -3.1308 -0.1318  0.3080
16338TIP3   OH270504   1.143   0.009  13.759  0.1946  0.4858 -0.1120
16338TIP3    H170505   1.080   0.080  13.752 -0.3475  0.1877  1.4405
16338TIP3    H270506   1.128  -0.045  13.681 -0.8227  0.9367 -0.2397
16339TIP3   OH270507   1.137   6.075   5.248  0.0548 -0.4516  0.1610
16339TIP3    H170508   1.121   6.008   5.314 -2.4661  0.0956  0.1968
16339TIP3    H270509   1.092   6.043   5.170  0.1220  0.4768 -0.2741
16340TIP3   OH270510   6.076   5.757   1.528 -0.0524 -0.0206  0.1207
16340TIP3    H170511   6.154   5.780   1.479  0.5629 -1.7223  0.2422
16340TIP3    H270512   6.021   5.710   1.465 -0.7550  0.7090  0.1762
16341TIP3   OH270513   0.834   1.655  10.690 -0.1186  0.3096 -0.1326
16341TIP3    H170514   0.907   1.669  10.750 -1.5970  3.0775  1.2034
16341TIP3    H270515   0.874   1.642  10.604  1.9285  1.1406  0.6481
16342TIP3   OH270516   2.099   6.733   4.591 -0.2661  0.0840  0.3770
16342TIP3    H170517   2.146   6.703   4.513 -2.3737  0.8150 -1.2797
16342TIP3    H270518   2.082   6.825   4.575 -2.1887 -0.1329  0.8989
16343TIP3   OH270519   6.042   2.138  12.029  0.2712 -0.3182  0.2910
16343TIP3    H170520   6.080   2.210  12.079 -0.9849 -0.2728  1.1962
16343TIP3    H270521   5.961   2.117  12.074 -0.5086 -0.7990 -1.2841
16344TIP3   OH270522   6.387   5.744   5.314 -0.4791 -0.1389 -0.2825
16344TIP3    H170523   6.381   5.649   5.305  1.3462 -0.2266 -1.0159
16344TIP3    H270524   6.380   5.759   5.408 -0.6518 -1.0000 -0.1428
16345TIP3   OH270525   5.354   6.108  11.683  0.0300 -0.1306 -0.0680
16345TIP3    H170526   5.364   6.057  11.603  1.7615  0.6653 -0.4076
16345TIP3    H270527   5.414   6.181  11.672  1.8651 -1.0416  2.7608
16346TIP3   OH270528   2.186   0.727  17.061 -0.2434  0.4807 -0.2325
16346TIP3    H170529   2.198   0.677  16.980 -0.1967  1.9811 -1.1933
16346TIP3    H270530   2.091   0.739  17.068 -0.4794 -1.5293  1.1878
16347TIP3   OH270531   0.063   1.382  14.929 -0.2887  0.2476 -0.0521
16347TIP3    H170532   0.157   1.380  14.948 -0.7234  1.0135  2.7221
16347TIP3    H270533   0.036   1.470  14.955 -1.7267  0.1859 -1.2430
16348TIP3   OH270534   3.685   0.724  13.395 -0.2469 -0.3786 -0.5128
16348TIP3    H170535   3.683   0.819  13.393 -1.2350 -0.3601  0.5193
16348TIP3    H270536   3.593   0.698  13.395 -0.0462 -1.2416  1.5499
16349TIP3   OH270537   3.532   5.420  11.994  0.4634 -0.0210 -0.0758
16349TIP3    H170538   3.530   5.477  11.917  0.9211 -2.0092 -1.6465
16349TIP3    H270539   3.440   5.402  12.013  0.3565  0.2476 -0.3282
16350TIP3   OH270540   0.634   3.874   4.715  0.1804 -0.4451 -0.6334
16350TIP3    H170541   0.589   3.956   4.735  1.2092 -0.4336  1.8343
16350TIP3    H270542   0.572   3.827   4.658 -1.3526  1.0976 -0.3167
16351TIP3   OH270543   1.020   0.990   1.752 -0.0562  0.3354 -0.4240
16351TIP3    H170544   1.037   0.897   1.738 -0.1415  0.2428  0.0795
16351TIP3    H270545   0.984   1.021   1.669  1.2619  0.2249 -1.0690
16352TIP3   OH270546   0.034   6.435   3.944  0.5184  0.4289  0.9171
16352TIP3    H170547  -0.012   6.473   3.869  1.8205 -1.6250 -1.0573
16352TIP3    H270548  -0.036   6.399   3.999 -0.4115  0.6708 -0.0652
16353TIP3   OH270549   5.265   0.773  12.124 -0.1298 -0.0529  0.2869
16353TIP3    H170550   5.248   0.820  12.206  2.3655  1.1218  0.2342
16353TIP3    H270551   5.193   0.797  12.067 -1.2520  0.1157  1.7071
16354TIP3   OH270552   4.919   2.414  12.993 -0.1291  0.3832  0.2648
16354TIP3    H170553   5.007   2.449  13.000 -0.2106  0.4798  0.8735
16354TIP3    H270554   4.922   2.356  12.917  0.4186  0.4897  0.2015
16355TIP3   OH270555   2.525   5.021   2.646 -0.1312 -0.4524 -0.0995
16355TIP3    H170556   2.600   5.042   2.701  0.4180 -1.1699 -0.5606
16355TIP3    H270557   2.550   4.942   2.598 -1.0857 -0.5734 -0.4420
16356TIP3   OH270558   2.306   1.980   3.167  0.2249  0.6294  0.0496
16356TIP3    H170559   2.218   1.953   3.192  1.1252 -3.7731 -0.7198
16356TIP3    H270560   2.311   1.963   3.073  2.0918  0.0746  0.2103
16357TIP3   OH270561   3.649   0.656   5.173 -0.0748  0.5907 -0.0717
16357TIP3    H170562   3.554   0.656   5.164 -0.1076  1.9554  0.0204
16357TIP3    H270563   3.666   0.623   5.261 -0.3800 -0.9584 -0.5724
16358TIP3   OH270564   3.812   2.562   4.998 -0.1247 -0.0269 -0.8489
16358TIP3    H170565   3.747   2.632   5.012  0.3403  0.0015  1.5289
16358TIP3    H270566   3.786   2.522   4.915 -2.6747  0.5337 -0.4028
16359TIP3   OH270567   6.573   3.088  15.521  0.5695  0.4042 -0.2018
16359TIP3    H170568   6.635   3.079  15.448  0.5379  0.7944 -0.2792
16359TIP3    H270569   6.591   3.013  15.577 -0.9967 -1.2812 -1.7953
16360TIP3   OH270570   3.259   5.340  11.605  0.0478 -0.0201  0.2650
16360TIP3    H170571   3.215   5.257  11.624  1.1197 -0.2731  1.8432
16360TIP3    H270572   3.202   5.406  11.643 -0.6750 -0.0178 -0.7637
16361TIP3   OH270573   0.322   0.493  15.187  0.0228 -0.5089  0.4705
16361TIP3    H170574   0.349   0.454  15.269 -0.0712 -1.6958 -0.0427
16361TIP3    H270575   0.403   0.509  15.139  0.1077  0.5836  0.9494
16362TIP3   OH270576   2.721   1.605   1.290  0.0373 -0.0639 -0.3752
16362TIP3    H170577   2.680   1.635   1.209  0.3110  1.7087  0.0973
16362TIP3    H270578   2.751   1.516   1.271  2.3461  1.1568 -3.0558
16363TIP3   OH270579   5.028   0.836  16.162 -0.0181  0.2848  0.0549
16363TIP3    H170580   5.075   0.830  16.245  1.1408  1.3186 -0.4971
16363TIP3    H270581   4.943   0.873  16.184  0.4284  0.9201  0.7447
16364TIP3   OH270582   5.731   6.319  12.523  0.2236 -0.2475  0.0930
16364TIP3    H170583   5.693   6.406  12.534 -1.2880 -0.6262 -1.5803
16364TIP3    H270584   5.789   6.308  12.598 -0.2953  1.8048  0.8556
16365TIP3   OH270585   6.766   0.356  10.818 -0.3518 -0.3149 -0.0440
16365TIP3    H170586   6.778   0.425  10.754 -0.1392  0.0090  0.3365
16365TIP3    H270587   6.710   0.395  10.886  1.3563  0.1758  1.1670
16366TIP3   OH270588   6.246   0.730   5.174 -0.5494  0.7807 -0.2599
16366TIP3    H170589   6.160   0.713   5.137  0.6141  2.5740 -4.3214
16366TIP3    H270590   6.286   0.643   5.182 -1.7332  0.1241 -1.0517
16367TIP3   OH270591   2.869   6.407  10.787 -0.0062 -0.7661 -0.2788
16367TIP3    H170592   2.947   6.396  10.841 -0.5149 -0.2279  0.5933
16367TIP3    H270593   2.902   6.427  10.700  0.9261 -4.7188 -1.0094
16368TIP3   OH270594   2.583   1.085   0.930 -0.4813  0.4799  0.4635
16368TIP3    H170595   2.510   1.032   0.962 -0.3233 -0.2692 -0.3999
16368TIP3    H270596   2.573   1.169   0.976 -1.0523 -0.0933  1.4232
16369TIP3   OH270597   6.100   1.426   1.866  0.0424  0.3680  0.1259
16369TIP3    H170598   6.030   1.437   1.801 -1.1462 -0.8220  1.1343
16369TIP3    H270599   6.090   1.501   1.924  0.3310  0.7935 -0.3665
16370TIP3   OH270600   1.669   1.088   1.981 -0.1501  0.7271  0.5093
16370TIP3    H170601   1.644   0.997   1.966  0.3112  0.3091  2.0919
16370TIP3    H270602   1.693   1.121   1.894 -0.6780 -0.5384 -0.1423
16371TIP3   OH270603   2.069   1.267  11.332  0.3740 -0.0687 -0.1730
16371TIP3    H170604   2.051   1.174  11.322  0.7577 -0.2831  1.0339
16371TIP3    H270605   2.044   1.288  11.421  1.9775  0.5598  0.1760
16372TIP3   OH270606   3.566   3.592  10.935 -0.3555  0.5245 -0.3652
16372TIP3    H170607   3.580   3.686  10.946 -1.0472  0.3797  2.9242
16372TIP3    H270608   3.643   3.552  10.976 -0.7173 -0.3381 -0.4997
16373TIP3   OH270609   4.766   1.740   5.296 -0.4909  0.3036 -0.1817
16373TIP3    H170610   4.787   1.828   5.265 -0.9715  0.5765  0.2446
16373TIP3    H270611   4.670   1.737   5.295 -0.5129  0.2483  1.0386
16374TIP3   OH270612   4.534   4.700   5.411  0.2129 -0.3853 -0.2776
16374TIP3    H170613   4.595   4.773   5.419 -0.4006  0.2072 -0.9620
16374TIP3    H270614   4.562   4.654   5.332  1.0608 -1.3638  0.5362
16375TIP3   OH270615   4.287   4.740   2.152 -0.4445  0.4819  0.7022
16375TIP3    H170616   4.305   4.791   2.231  1.8759 -1.1641  1.3033
16375TIP3    H270617   4.320   4.795   2.081  1.9038 -0.0017  1.3328
16376TIP3   OH270618   5.144   5.062   4.379 -0.0552  0.1211  0.2526
16376TIP3    H170619   5.226   5.021   4.407 -1.0012 -1.5495  0.7110
16376TIP3    H270620   5.110   5.002   4.312 -0.7074  1.0102 -0.2223
16377TIP3   OH270621   5.185   4.224  17.136 -0.2113 -0.7673 -0.6001
16377TIP3    H170622   5.262   4.179  17.100  1.8653  1.5226  0.6589
16377TIP3    H270623   5.162   4.289  17.069 -1.7456 -2.0953 -1.4112
16378TIP3   OH270624   2.568   5.622   2.092  0.0655  0.3510  0.3088
16378TIP3    H170625   2.513   5.577   2.028 -0.6876  0.3715  0.9159
16378TIP3    H270626   2.558   5.570   2.172  0.1354  0.9154  0.6912
16379TIP3   OH270627   2.924   0.931   3.537 -0.0240 -0.0073  0.1721
16379TIP3    H170628   2.969   0.982   3.470  0.5009  0.9412  1.2006
16379TIP3    H270629   2.857   0.990   3.571  0.6749  0.0753  1.4712
16380TIP3   OH270630   0.257   4.047  16.059  0.5096  0.3049  0.7371
16380TIP3    H170631   0.237   3.980  15.994  1.7522  1.4224 -0.8657
16380TIP3    H270632   0.335   4.014  16.104 -0.6581 -0.7198  2.0971
16381TIP3   OH270633   1.010   2.027   3.470 -0.4807  0.4783 -0.1405
16381TIP3    H170634   1.091   1.986   3.500  0.6129  1.5518 -1.5330
16381TIP3    H270635   0.943   1.961   3.487  0.4484  0.0215  2.1790
16382TIP3   OH270636   4.773   1.922   1.098 -0.3064 -0.8420 -0.3178
16382TIP3    H170637   4.752   1.866   1.173 -1.2821 -0.0268  0.0472
16382TIP3    H270638   4.793   2.007   1.137  0.6136 -0.7894 -0.8980
16383TIP3   OH270639   1.253   5.824  17.175 -0.2026 -0.7306 -0.7018
16383TIP3    H170640   1.258   5.918  17.192 -0.2780 -0.7027 -0.8255
16383TIP3    H270641   1.342   5.799  17.150 -0.5393 -0.3305 -2.4486
16384TIP3   OH270642   4.660   0.149  14.563  0.4676 -0.1831 -0.4290
16384TIP3    H170643   4.724   0.212  14.597  1.5750 -0.7478 -1.3719
16384TIP3    H270644   4.694   0.125  14.477 -0.9646 -0.6153 -0.9037
16385TIP3   OH270645   2.743   0.198   1.639 -0.3381 -0.3545 -0.5276
16385TIP3    H170646   2.702   0.145   1.708  1.5926 -2.4500 -0.9126
16385TIP3    H270647   2.812   0.247   1.685 -1.2053  0.8218 -0.4304
16386TIP3   OH270648   2.641   6.284  12.820  0.1022  0.4033 -0.2700
16386TIP3    H170649   2.557   6.240  12.836  0.8572 -1.2565 -0.6393
16386TIP3    H270650   2.618   6.376  12.812 -1.7609 -0.0499 -0.8017
16387TIP3   OH270651   1.215   0.800   5.914 -0.2474  0.4053  0.6307
16387TIP3    H170652   1.202   0.879   5.968 -1.1425  0.4328  0.3919
16387TIP3    H270653   1.180   0.824   5.828  1.0234  0.3068  0.0607
16388TIP3   OH270654   4.452   4.252   3.333  0.0133 -0.2166 -0.4656
16388TIP3    H170655   4.418   4.341   3.336  2.2314  0.7374 -1.4429
16388TIP3    H270656   4.438   4.223   3.243  0.7851 -0.1945 -0.6043
16389TIP3   OH270657   1.765   1.615  17.114  0.4626  0.2011  0.5555
16389TIP3    H170658   1.691   1.664  17.149 -0.6590  0.1366 -1.5387
16389TIP3    H270659   1.842   1.669  17.132 -0.4102  1.4145  0.7091
16390TIP3   OH270660   4.383   1.892   1.705  0.4125 -0.0115  0.6917
16390TIP3    H170661   4.435   1.912   1.782  0.0437 -0.9969  1.2013
16390TIP3    H270662   4.325   1.821   1.732  1.2442 -1.3667 -0.8827
16391TIP3   OH270663   3.823   3.583   6.394 -0.4756  0.0171  0.2544
16391TIP3    H170664   3.884   3.655   6.379 -1.7359  0.7117 -1.9865
16391TIP3    H270665   3.878   3.505   6.393  0.3833  0.5011 -2.9066
16392TIP3   OH270666   3.901   5.696  14.241  0.1071 -0.2326  0.5817
16392TIP3    H170667   3.933   5.658  14.159 -0.1897 -0.7917  0.7221
16392TIP3    H270668   3.976   5.693  14.300  0.1637 -0.3460  0.5042
16393TIP3   OH270669   4.693   5.733  13.631  0.7869 -0.3632 -0.0295
16393TIP3    H170670   4.744   5.719  13.711 -1.3453 -1.9411  1.1497
16393TIP3    H270671   4.622   5.669  13.636  0.2622 -0.1601 -2.9538
16394TIP3   OH270672   0.396   2.222   0.047 -0.2285 -0.2045  0.1396
16394TIP3    H170673   0.353   2.283  -0.013  0.0705  0.2481  0.3815
16394TIP3    H270674   0.377   2.135   0.011  2.0417  0.1046 -2.0851
16395TIP3   OH270675   0.282   1.104   4.514 -0.0824  0.2295 -0.0233
16395TIP3    H170676   0.270   1.093   4.609  0.0514 -0.3931 -0.0709
16395TIP3    H270677   0.230   1.181   4.492  1.4819  1.6221  0.8871
16396TIP3   OH270678   0.371   1.048   3.442  0.4598 -0.0516  0.1963
16396TIP3    H170679   0.450   1.073   3.489  0.3356  0.0211  0.3670
16396TIP3    H270680   0.403   1.001   3.364  0.6589 -0.3195  0.4371
16397TIP3   OH270681   1.787   6.245  16.216 -0.7578  0.0690  0.0290
16397TIP3    H170682   1.850   6.313  16.238 -0.1073 -0.3641 -0.4471
16397TIP3    H270683   1.778   6.250  16.121  1.1953 -2.0741 -0.3674
16398TIP3   OH270684   6.114   1.256   3.331 -0.1002  0.5041 -0.3430
16398TIP3    H170685   6.181   1.322   3.311 -0.1649  0.6145 -0.2009
16398TIP3    H270686   6.131   1.185   3.270  0.8915  0.0097  0.4650
16399TIP3   OH270687   4.647   0.326   4.044  0.0102 -0.0497 -0.0442
16399TIP3    H170688   4.560   0.320   4.083 -0.4320  0.8650 -0.8448
16399TIP3    H270689   4.696   0.383   4.102  0.4456 -1.4534  1.0134
16400TIP3   OH270690   4.822   2.576  11.669  0.6098  0.3382  0.0840
16400TIP3    H170691   4.765   2.503  11.690 -1.1235  1.5066 -0.2971
16400TIP3    H270692   4.895   2.537  11.621 -1.5264 -0.8995 -2.4195
16401TIP3   OH270693   0.068   2.029  15.645 -0.3113 -0.2844 -0.6636
16401TIP3    H170694   0.153   2.002  15.681  0.4620  2.4895 -0.1915
16401TIP3    H270695   0.006   2.016  15.717  0.4951  1.4063  0.3993
16402TIP3   OH270696   3.285   5.477   2.669 -0.0943  0.3371 -0.2061
16402TIP3    H170697   3.264   5.554   2.616  0.4281  0.4818 -0.2110
16402TIP3    H270698   3.377   5.489   2.693  0.2726 -0.7253 -0.9774
16403TIP3   OH270699   0.543   5.720  13.876  0.1602 -0.0749  0.1656
16403TIP3    H170700   0.506   5.806  13.861 -0.6089 -0.6722 -1.6261
16403TIP3    H270701   0.477   5.674  13.928 -0.4846 -0.3063 -0.8364
16404TIP3   OH270702   5.419   3.931  14.730 -0.9391  0.3671 -0.0841
16404TIP3    H170703   5.467   3.910  14.650  1.8569 -0.7228  1.7107
16404TIP3    H270704   5.430   3.853  14.785 -1.3184  1.6952  1.9735
16405TIP3   OH270705   5.001   0.733  11.108  0.1098 -0.0113 -0.0903
16405TIP3    H170706   5.041   0.805  11.156  0.0442 -0.5832  0.8514
16405TIP3    H270707   4.987   0.767  11.020  1.0088  0.7867  0.0616
16406TIP3   OH270708   0.488   5.364   0.120 -0.1914 -0.0947  0.0516
16406TIP3    H170709   0.451   5.279   0.146  0.0114  0.1194  1.0582
16406TIP3    H270710   0.582   5.355   0.135 -0.2411  0.5203  0.7653
16407TIP3   OH270711   1.294   4.848  17.245  0.7062 -0.4643 -0.1460
16407TIP3    H170712   1.376   4.804  17.267  0.9512 -0.7388 -1.5130
16407TIP3    H270713   1.315   4.901  17.168  0.2068  1.4030  0.9459
16408TIP3   OH270714   2.239   4.792   4.228  0.0954 -0.4355  0.0423
16408TIP3    H170715   2.293   4.789   4.306 -0.6579 -0.0848  0.5897
16408TIP3    H270716   2.193   4.708   4.227  0.4871 -0.6534 -0.3173
16409TIP3   OH270717   5.757   1.054   4.047  0.4971 -0.1996  0.0797
16409TIP3    H170718   5.812   1.016   4.116  0.6403 -1.7299 -0.8315
16409TIP3    H270719   5.795   1.140   4.031  0.5277  0.1535  1.8150
16410TIP3   OH270720   3.337   3.331   3.171 -0.1106 -0.2299 -0.1212
16410TIP3    H170721   3.380   3.312   3.087  0.0244 -1.4940  0.2150
16410TIP3    H270722   3.355   3.424   3.187  1.6998 -0.4949 -0.4445
16411TIP3   OH270723   4.693   0.916   3.709 -0.5254 -0.3052 -0.1971
16411TIP3    H170724   4.698   0.864   3.790 -0.1445  0.3877  0.2457
16411TIP3    H270725   4.785   0.934   3.688 -0.6744  1.5873  0.6098
16412TIP3   OH270726   4.089   1.868   2.633 -0.6000  1.0027  0.3351
16412TIP3    H170727   4.067   1.813   2.709  0.3658  1.1566  0.7374
16412TIP3    H270728   4.056   1.954   2.655 -1.6788  0.7085 -0.0839
16413TIP3   OH270729   2.685   6.524  10.299  0.3236  0.0626  0.0778
16413TIP3    H170730   2.681   6.616  10.271  1.0357  0.1113  0.1177
16413TIP3    H270731   2.593   6.500  10.313  0.2287  1.4007  2.1485
16414TIP3   OH270732   2.317   2.727   5.258  0.2876  0.1255 -0.0623
16414TIP3    H170733   2.397   2.778   5.248  0.5529 -0.6897 -3.3152
16414TIP3    H270734   2.289   2.743   5.348  2.3156  3.0223  0.1918
16415TIP3   OH270735   4.869   5.010   0.516  0.6923 -0.4657 -0.1638
16415TIP3    H170736   4.878   4.926   0.562  0.4200 -0.4884 -0.1497
16415TIP3    H270737   4.940   5.064   0.549 -0.3933  0.0554  1.4459
16416TIP3   OH270738   0.140   5.927   5.216  0.2657 -0.4986 -0.2874
16416TIP3    H170739   0.062   5.878   5.190  0.2296 -1.4411  1.4269
16416TIP3    H270740   0.137   6.007   5.164 -0.9311 -1.2801 -1.4695
16417TIP3   OH270741   5.073   3.964  16.883 -0.5011 -0.5803  0.0853
16417TIP3    H170742   5.137   4.017  16.836 -1.4734  0.3340 -0.2558
16417TIP3    H270743   5.069   4.004  16.970 -1.7844  0.4050 -0.4071
16418TIP3   OH270744   4.167   1.844   4.251 -0.5411  0.1353  0.0605
16418TIP3    H170745   4.183   1.920   4.307 -0.4788  0.0050  0.2225
16418TIP3    H270746   4.125   1.781   4.309  0.4453 -0.3857  0.2298
16419TIP3   OH270747   5.614   2.902   2.144  0.4766 -0.0742  0.3716
16419TIP3    H170748   5.680   2.970   2.152  1.0426 -0.4995 -0.5019
16419TIP3    H270749   5.656   2.823   2.177  0.2224 -0.2326  0.3218
16420TIP3   OH270750   6.485   4.247   6.101  0.4411 -0.7021 -0.9274
16420TIP3    H170751   6.473   4.336   6.067  1.2386  0.8857  2.5583
16420TIP3    H270752   6.576   4.245   6.130 -0.1956 -1.8533  1.1426
16421TIP3   OH270753   5.255   1.653  15.735 -0.6626  0.6481 -0.8893
16421TIP3    H170754   5.229   1.716  15.667  1.9404  1.2029 -1.4540
16421TIP3    H270755   5.180   1.651  15.795 -0.7604  4.6469 -0.5814
16422TIP3   OH270756   1.418   4.831  13.864  0.2623  0.0780  0.1068
16422TIP3    H170757   1.467   4.874  13.793  1.5264 -1.3353  0.0876
16422TIP3    H270758   1.428   4.890  13.939  1.9097 -0.1066  0.0615
16423TIP3   OH270759   3.459   2.349  17.179 -0.0260 -0.3492  0.1073
16423TIP3    H170760   3.500   2.266  17.205 -1.8898 -0.9785  1.2728
16423TIP3    H270761   3.370   2.343  17.214 -0.6033  1.6284 -0.8970
16424TIP3   OH270762   0.068   6.448  13.365  0.2914  0.1199 -0.3370
16424TIP3    H170763   0.072   6.504  13.287  1.7643  1.3497  0.5410
16424TIP3    H270764   0.108   6.365  13.337  3.0626  1.3337 -0.3892
16425TIP3   OH270765   1.074   0.100   0.400  0.5793  0.3603 -0.0274
16425TIP3    H170766   1.104   0.156   0.329  1.9312  0.3298  0.4822
16425TIP3    H270767   1.073   0.157   0.477 -2.3979  0.8078 -0.3092
16426TIP3   OH270768   6.267   6.042   3.119 -0.2792 -0.2532 -0.3545
16426TIP3    H170769   6.340   6.007   3.068 -0.8327  0.0837 -1.4095
16426TIP3    H270770   6.190   6.028   3.063 -0.8486  0.4711  0.2301
16427TIP3   OH270771   0.006   4.692   3.805  0.0981  0.0734 -0.5814
16427TIP3    H170772  -0.032   4.605   3.818  0.5020 -0.0090  0.0626
16427TIP3    H270773   0.057   4.709   3.884 -0.2981  1.0698 -0.5199
16428TIP3   OH270774   2.335   1.368  16.180  0.0414 -0.7336 -0.7385
16428TIP3    H170775   2.316   1.349  16.272  0.6346  2.0672  0.0560
16428TIP3    H270776   2.425   1.338  16.168  0.6517  0.6373  0.2030
16429TIP3   OH270777   6.730   0.369   4.147 -0.0394  0.7453  0.0846
16429TIP3    H170778   6.698   0.430   4.080  0.4648 -0.7461 -1.6206
16429TIP3    H270779   6.682   0.392   4.226 -2.4258  1.1326 -1.3772
16430TIP3   OH270780   2.803   2.071  13.012  0.3519 -0.3884 -0.3285
16430TIP3    H170781   2.800   2.162  12.984 -1.2947 -0.5007 -0.6275
16430TIP3    H270782   2.878   2.066  13.071  0.0622  1.3296  0.2411
16431TIP3   OH270783   2.001   6.104   1.846  0.0449 -0.3150 -0.1944
16431TIP3    H170784   2.059   6.028   1.840  1.3439  0.6233  0.2158
16431TIP3    H270785   1.987   6.131   1.755 -0.8337 -1.3140 -0.3808
16432TIP3   OH270786   2.733   6.658  11.820 -0.0300  0.4534 -0.2918
16432TIP3    H170787   2.683   6.666  11.902  1.8103 -1.9148  1.1976
16432TIP3    H270788   2.745   6.564  11.808  0.8479  0.8005 -2.6211
16433TIP3   OH270789   2.951   0.201   3.575  0.8019 -0.4821 -0.0295
16433TIP3    H170790   2.858   0.212   3.595  0.6478 -1.4520 -0.1238
16433TIP3    H270791   2.996   0.262   3.634  0.1200 -0.1722  0.1836
16434TIP3   OH270792   4.407   1.879   2.921 -0.0291 -0.1891 -0.1397
16434TIP3    H170793   4.458   1.799   2.935  0.9566 -0.0019 -2.1563
16434TIP3    H270794   4.327   1.849   2.878  0.8386 -0.0678 -1.9462
16435TIP3   OH270795   3.552   0.225   5.092  0.4960  0.6347 -0.4221
16435TIP3    H170796   3.540   0.164   5.020 -1.3007  0.5414 -0.0822
16435TIP3    H270797   3.632   0.195   5.136 -0.0974 -1.1900 -0.5298
16436TIP3   OH270798   0.168   5.381   1.817  0.2520 -0.1226  0.0650
16436TIP3    H170799   0.213   5.392   1.733  0.0028 -1.2015 -0.2177
16436TIP3    H270800   0.090   5.330   1.796 -0.0958  0.0693  0.8684
16437TIP3   OH270801   5.791   0.741   2.533  0.3486 -0.0704 -0.6826
16437TIP3    H170802   5.836   0.714   2.613 -0.3365 -0.9923 -0.5981
16437TIP3    H270803   5.735   0.667   2.511  0.6504  0.1028 -2.1141
16438TIP3   OH270804   5.691   4.817  12.706  0.6842 -0.3264  0.0050
16438TIP3    H170805   5.661   4.847  12.620 -0.1323  1.9150  1.0243
16438TIP3    H270806   5.771   4.768  12.687 -0.8415 -2.1844 -2.2651
16439TIP3   OH270807   4.443   5.369   6.087  0.0237  0.3386 -0.1188
16439TIP3    H170808   4.492   5.301   6.133  1.4580  0.9180 -0.7401
16439TIP3    H270809   4.400   5.419   6.157  0.4855 -0.0537  0.4542
16440TIP3   OH270810   1.937   6.439  17.042 -0.3506  0.3808 -0.1207
16440TIP3    H170811   1.954   6.509  17.105  0.0449  0.4672 -0.3254
16440TIP3    H270812   1.857   6.398  17.075 -0.0834  0.3469  0.5074
16441TIP3   OH270813   4.872   5.058   2.417  0.0812  0.0305 -0.5324
16441TIP3    H170814   4.882   5.131   2.479  2.1361  0.3557 -1.1717
16441TIP3    H270815   4.823   4.992   2.466 -0.0782  1.0611  0.7545
16442TIP3   OH270816   5.672   0.163  16.229 -0.0477 -0.5690  0.1653
16442TIP3    H170817   5.760   0.168  16.191 -0.8838  1.5589 -1.7882
16442TIP3    H270818   5.660   0.071  16.250  2.5411 -0.9654  0.3044
16443TIP3   OH270819   3.681   5.894   4.024 -0.3777 -0.1854  0.5455
16443TIP3    H170820   3.723   5.878   3.940 -1.4071  0.2879 -0.0827
16443TIP3    H270821   3.595   5.852   4.017 -0.7057  0.3537  1.1374
16444TIP3   OH270822   5.313   0.094   1.304  0.3648  0.0408 -0.1498
16444TIP3    H170823   5.342   0.184   1.287  2.5029 -0.8116 -1.3631
16444TIP3    H270824   5.366   0.040   1.246 -2.0780 -1.9196 -0.7075
16445TIP3   OH270825   4.617   0.906   2.114  0.1895  0.3804  0.1993
16445TIP3    H170826   4.623   0.970   2.184  0.4563  0.7576 -0.1646
16445TIP3    H270827   4.525   0.878   2.114  0.0260  0.9219  0.2175
16446TIP3   OH270828   4.751   4.702   6.143 -1.0180  0.5067  0.6102
16446TIP3    H170829   4.669   4.674   6.103 -1.0582 -0.0872  1.1016
16446TIP3    H270830   4.789   4.623   6.180  0.3817  0.5483 -0.6419
16447TIP3   OH270831   4.707   0.095   3.906  0.2316  0.0670  0.3241
16447TIP3    H170832   4.802   0.103   3.899  0.0482  1.2909 -1.3834
16447TIP3    H270833   4.681   0.165   3.966  0.3588  0.1854  0.2418
16448TIP3   OH270834   1.187   3.563   1.202 -0.1536 -0.3254  0.4367
16448TIP3    H170835   1.175   3.479   1.158  0.3351 -0.7986  1.1733
16448TIP3    H270836   1.266   3.551   1.256  0.1313  0.7263  0.2757
16449TIP3   OH270837   3.252   5.722   2.496  0.2895  0.3723  0.6550
16449TIP3    H170838   3.283   5.813   2.506  1.8173  0.0272 -0.4287
16449TIP3    H270839   3.278   5.699   2.407  0.4188 -1.3050  1.1009
16450TIP3   OH270840   5.238   4.503  16.153  0.1078 -0.7370 -0.6678
16450TIP3    H170841   5.236   4.537  16.063  0.4104  0.0554 -0.3877
16450TIP3    H270842   5.228   4.581  16.208 -1.8841 -1.3866 -0.0116
16451TIP3   OH270843   5.153   5.931  11.152  0.6569 -0.2548 -0.2123
16451TIP3    H170844   5.214   5.864  11.119  1.0397  0.3573 -0.7751
16451TIP3    H270845   5.091   5.882  11.206  0.6113 -1.1460 -1.0419
16452TIP3   OH270846   3.957   0.186   4.179 -0.3412  0.0158 -0.1106
16452TIP3    H170847   3.929   0.208   4.268  0.9147  0.1449  0.2731
16452TIP3    H270848   4.040   0.140   4.191 -0.8877 -1.2797 -1.1450
16453TIP3   OH270849   3.818   3.847  13.031 -0.4290  0.2290  0.0812
16453TIP3    H170850   3.899   3.897  13.023 -0.1746 -0.3018 -0.7486
16453TIP3    H270851   3.749   3.913  13.042 -0.3902  0.9500 -3.0912
16454TIP3   OH270852   4.784   2.924  16.938  0.4029  0.6918 -0.5904
16454TIP3    H170853   4.768   2.863  16.866 -0.5178  1.0025 -0.6579
16454TIP3    H270854   4.879   2.922  16.950  0.4086 -0.6685 -0.6718
16455TIP3   OH270855   4.502   5.038  15.943 -0.2357 -0.3126  0.8921
16455TIP3    H170856   4.550   5.038  15.861 -0.0959 -1.3270  0.9590
16455TIP3    H270857   4.447   5.116  15.939  0.3754  0.0903  0.2010
16456TIP3   OH270858   0.137   3.745  11.604 -0.1147 -0.0752  0.1614
16456TIP3    H170859   0.068   3.786  11.552 -0.3653 -3.2346 -2.2847
16456TIP3    H270860   0.090   3.694  11.670  0.1343  1.5609  1.6839
16457TIP3   OH270861   5.917   4.025   3.421  0.8420  0.3329 -0.3364
16457TIP3    H170862   5.865   4.105   3.431  2.2736  1.2176  0.2476
16457TIP3    H270863   5.992   4.037   3.479  2.3587 -0.3654 -2.0463
16458TIP3   OH270864   6.609   3.397   5.518 -0.1618  0.2031 -0.0938
16458TIP3    H170865   6.646   3.485   5.510 -0.0426  0.0703 -1.1948
16458TIP3    H270866   6.624   3.373   5.609  0.9847  0.8013 -0.1028
16459TIP3   OH270867   5.154   0.084  16.301  0.2894  0.4049 -0.2037
16459TIP3    H170868   5.101   0.012  16.336  1.1684  0.3411  1.0851
16459TIP3    H270869   5.092   0.156  16.290 -0.3351 -0.1044 -0.0952
16460TIP3   OH270870   0.950   6.456  10.725 -0.6628  0.0127  0.2697
16460TIP3    H170871   1.045   6.460  10.717 -0.7588  1.7592 -0.4598
16460TIP3    H270872   0.925   6.382  10.670  0.2798 -0.6291  0.6792
16461TIP3   OH270873   6.016   1.290  13.957 -0.1883 -0.6782 -0.1618
16461TIP3    H170874   6.013   1.327  14.045 -2.3485 -2.0600  0.4309
16461TIP3    H270875   5.971   1.356  13.903  0.1745 -0.3187 -0.0303
16462TIP3   OH270876   2.784   4.211   4.151 -0.7663 -0.5116 -0.1608
16462TIP3    H170877   2.834   4.149   4.097 -1.5264 -0.3729 -1.0520
16462TIP3    H270878   2.699   4.168   4.164 -0.1091 -1.2353  2.2487
16463TIP3   OH270879   0.635   5.316   1.344  0.0749  0.2305  0.4825
16463TIP3    H170880   0.726   5.286   1.340  0.3428  0.9185  1.1978
16463TIP3    H270881   0.621   5.361   1.260  0.0375 -0.8154 -0.0905
16464TIP3   OH270882   4.677   3.496   2.506  0.6617 -0.4498  0.5100
16464TIP3    H170883   4.602   3.554   2.493  1.7685  1.3158  1.6601
16464TIP3    H270884   4.641   3.420   2.551 -0.5368  0.0797  0.4783
16465TIP3   OH270885   0.331   1.586   2.410  0.0474  0.0368 -0.6289
16465TIP3    H170886   0.252   1.532   2.418  0.3322 -0.4154 -0.8544
16465TIP3    H270887   0.346   1.618   2.499 -1.6500  1.9537 -0.9648
16466TIP3   OH270888   4.456   1.812   1.963  0.1098 -0.6821 -0.9368
16466TIP3    H170889   4.485   1.720   1.957 -3.7934 -2.2287  0.6297
16466TIP3    H270890   4.456   1.830   2.057  0.6281  0.9046 -1.2246
16467TIP3   OH270891   1.558   1.049   4.236 -0.8053 -0.3606  0.3443
16467TIP3    H170892   1.502   0.982   4.273  0.1409 -1.9331 -0.9387
16467TIP3    H270893   1.624   1.066   4.304 -1.5137 -0.1332  0.9825
16468TIP3   OH270894   4.614   0.865  15.892 -0.1186 -0.0136  0.2948
16468TIP3    H170895   4.613   0.840  15.800  0.4656  0.8028  0.0437
16468TIP3    H270896   4.651   0.790  15.938 -0.6407 -0.5157 -0.1025
16469TIP3   OH270897   2.816   2.077   3.428  0.3663 -0.7881  0.3756
16469TIP3    H170898   2.757   2.106   3.358  2.7426 -0.1706 -1.5040
16469TIP3    H270899   2.762   2.021   3.484 -1.7961 -0.8120 -1.5976
16470TIP3   OH270900   0.061   6.555  15.057  0.0642 -0.1254  0.1202
16470TIP3    H170901  -0.002   6.552  15.130  0.6946 -1.7772  0.6521
16470TIP3    H270902   0.054   6.644  15.023 -0.9234  0.4105  1.6094
16471TIP3   OH270903   0.987   5.153  13.976 -0.0632 -0.6896 -0.2901
16471TIP3    H170904   0.949   5.209  13.909 -1.0022 -0.6458  0.2613
16471TIP3    H270905   0.974   5.064  13.944  0.6922 -0.6356 -0.7792
16472TIP3   OH270906   5.183   4.469   5.781 -0.5180 -0.5667 -0.7645
16472TIP3    H170907   5.197   4.509   5.695 -2.2634 -1.5666 -1.5757
16472TIP3    H270908   5.106   4.414   5.769 -0.4537 -1.1860  1.3129
16473TIP3   OH270909   3.215   5.026   4.482  0.0819 -0.1329 -0.8301
16473TIP3    H170910   3.206   5.030   4.387  0.4882  0.5009 -0.8456
16473TIP3    H270911   3.256   4.941   4.499 -0.1862 -0.3365 -1.2065
16474TIP3   OH270912   1.290   4.479  15.924 -0.1455  0.4571  0.3424
16474TIP3    H170913   1.286   4.386  15.901  1.0016  0.3906  0.3491
16474TIP3    H270914   1.251   4.483  16.011  1.9444 -0.4295  1.3991
16475TIP3   OH270915   5.268   6.331   5.599 -0.2224 -0.1210  0.5084
16475TIP3    H170916   5.360   6.357   5.594 -0.2033 -0.0115  1.3592
16475TIP3    H270917   5.265   6.263   5.666 -0.4901 -1.4317 -0.7764
16476TIP3   OH270918   2.234   3.401  11.129  0.3487  0.1179  0.1608
16476TIP3    H170919   2.219   3.460  11.055 -0.2343  0.0970  0.2531
16476TIP3    H270920   2.226   3.458  11.206  2.5124  0.4655  0.1942
16477TIP3   OH270921   3.565   3.896  12.788  0.5100  0.0268 -0.0686
16477TIP3    H170922   3.549   3.808  12.752  1.3523  0.4595 -1.5470
16477TIP3    H270923   3.659   3.909  12.779  0.0639  2.1916 -2.5778
16478TIP3   OH270924   2.326   3.802   3.206  0.3403  0.2713 -0.2271
16478TIP3    H170925   2.370   3.878   3.244  0.1932 -0.0489  0.6078
16478TIP3    H270926   2.233   3.824   3.206  0.3929  0.5066 -0.9631
16479TIP3   OH270927   4.663   2.135   5.743  0.6671 -0.4856 -0.4396
16479TIP3    H170928   4.693   2.180   5.822  3.1669 -1.5030 -0.7324
16479TIP3    H270929   4.623   2.054   5.776  0.1083 -0.0963 -0.1465
16480TIP3   OH270930   6.068   5.111  16.080 -0.1636 -0.1556 -0.0968
16480TIP3    H170931   6.035   5.143  16.164 -0.9586  0.6178 -0.6838
16480TIP3    H270932   6.163   5.122  16.085 -0.1114 -0.9266  1.0174
16481TIP3   OH270933   5.568   6.241   2.286  0.2920 -0.0499  0.2964
16481TIP3    H170934   5.551   6.296   2.210 -0.3911  0.6453  0.9337
16481TIP3    H270935   5.541   6.153   2.259  0.9322  0.0084 -0.5643
16482TIP3   OH270936   3.021   1.433  13.724 -0.0501 -0.2157 -0.0581
16482TIP3    H170937   3.060   1.516  13.750  0.7561 -0.7045  0.3482
16482TIP3    H270938   3.017   1.382  13.805 -1.7193 -0.1243 -0.0570
16483TIP3   OH270939   6.748   5.355   5.293  0.4170 -0.0094 -0.0104
16483TIP3    H170940   6.675   5.330   5.236  0.5412 -0.9178  0.2030
16483TIP3    H270941   6.759   5.449   5.279  0.0754 -0.1121 -1.0579
16484TIP3   OH270942   5.619   1.795   4.131  0.6972  0.2457 -0.2759
16484TIP3    H170943   5.659   1.827   4.050 -0.0649  0.0452 -0.7387
16484TIP3    H270944   5.681   1.729   4.164  1.9774  1.7010  0.3598
16485TIP3   OH270945   2.763   6.254   5.362 -0.6008  0.4101  0.5194
16485TIP3    H170946   2.805   6.236   5.446  0.4893  1.2076  0.1592
16485TIP3    H270947   2.806   6.194   5.300 -0.7160  0.5071  0.3450
16486TIP3   OH270948   0.528   5.584   2.947 -0.2508  0.5626 -0.3383
16486TIP3    H170949   0.442   5.552   2.973 -0.1565  1.0721  0.6604
16486TIP3    H270950   0.521   5.596   2.853 -1.2911  0.6266 -0.2698
16487TIP3   OH270951   5.158   6.654   4.412 -0.0054 -0.6416 -0.3354
16487TIP3    H170952   5.217   6.586   4.445 -0.5314 -0.9373  0.0257
16487TIP3    H270953   5.185   6.668   4.322  1.4727  0.1816  0.2050
16488TIP3   OH270954   3.692   4.567  12.909  0.3428  0.2009 -0.0685
16488TIP3    H170955   3.743   4.588  12.830 -1.4533 -0.9302 -1.6112
16488TIP3    H270956   3.727   4.483  12.939  2.1309  1.3766  1.4019
16489TIP3   OH270957   2.352   4.386   5.066  0.3674  0.6786 -0.2023
16489TIP3    H170958   2.362   4.330   5.144  3.1487 -0.1480 -1.0328
16489TIP3    H270959   2.328   4.325   4.996  0.4948  0.9983 -0.5243
16490TIP3   OH270960   2.614   6.741  12.303  0.1676  0.4463  0.1740
16490TIP3    H170961   2.591   6.702  12.388 -0.2361  1.0296  0.3424
16490TIP3    H270962   2.687   6.688  12.271 -0.8500 -0.9270  0.0289
16491TIP3   OH270963   0.804   5.340  15.468  0.3337 -0.4041 -0.2336
16491TIP3    H170964   0.889   5.382  15.453 -0.7231  1.8237 -0.4411
16491TIP3    H270965   0.813   5.298  15.554  1.8972 -0.9350 -0.6307
16492TIP3   OH270966   0.248   6.745   3.895 -0.3029 -0.4599 -0.3675
16492TIP3    H170967   0.164   6.792   3.895  0.0438  0.1977 -1.3151
16492TIP3    H270968   0.310   6.807   3.933 -0.6043 -1.7165  2.3774
16493TIP3   OH270969   5.022   0.942  15.876  1.3752  0.4886  0.5562
16493TIP3    H170970   5.078   0.886  15.823  0.4922 -0.0676  0.2016
16493TIP3    H270971   5.028   0.904  15.964 -0.1926 -0.9651  0.0883
16494TIP3   OH270972   1.566   1.639  14.141 -0.3223 -0.2759  0.5384
16494TIP3    H170973   1.526   1.710  14.091 -2.2012 -2.4253 -1.2602
16494TIP3    H270974   1.652   1.627  14.101 -0.2063  0.5951  0.4957
16495TIP3   OH270975   3.648   2.193  12.470 -0.3379  0.1050 -0.0549
16495TIP3    H170976   3.686   2.213  12.555 -0.3567 -1.0766  0.2501
16495TIP3    H270977   3.665   2.100  12.457  1.3492  0.6121 -2.2024
16496TIP3   OH270978   2.382   2.700   0.512 -0.1877 -0.1657  0.0816
16496TIP3    H170979   2.396   2.793   0.528 -1.0395  0.1448 -0.8824
16496TIP3    H270980   2.289   2.693   0.491 -0.1071 -1.2155  0.0084
16497TIP3   OH270981   5.713   2.468  11.922  0.0928  0.2596  0.6004
16497TIP3    H170982   5.618   2.477  11.927  0.0022 -0.4831  0.2850
16497TIP3    H270983   5.728   2.374  11.911  0.9262  0.1378  2.3311
16498TIP3   OH270984   4.953   1.797  11.714  0.2937  0.3939 -0.3174
16498TIP3    H170985   4.933   1.781  11.806  0.4869 -0.5757 -0.4307
16498TIP3    H270986   4.926   1.717  11.669  0.2287  0.8450 -1.1006
16499TIP3   OH270987   1.743   0.164   2.692 -0.7215  0.2224  0.1967
16499TIP3    H170988   1.677   0.158   2.761 -0.5530 -0.2791  0.3126
16499TIP3    H270989   1.820   0.202   2.735 -0.6056 -0.1204  0.2940
16500TIP3   OH270990   3.780   0.266  14.278  0.4915 -0.2687  0.3809
16500TIP3    H170991   3.869   0.247  14.248  0.5293 -0.9508  0.8800
16500TIP3    H270992   3.731   0.286  14.198  0.6828 -1.6276 -0.1106
16501TIP3   OH270993   5.696   1.388   2.373 -0.0469 -0.0587 -1.0536
16501TIP3    H170994   5.618   1.403   2.425  0.1011 -1.1867 -0.4731
16501TIP3    H270995   5.669   1.327   2.305  0.2427 -0.1824 -1.0615
16502TIP3   OH270996   1.777   5.907  11.306  0.0449 -0.7232 -0.1483
16502TIP3    H170997   1.745   5.997  11.308  0.2187 -0.5857 -1.7446
16502TIP3    H270998   1.709   5.858  11.259  0.1543 -1.3355  0.3172
16503TIP3   OH270999   5.230   0.919   0.330  0.5825  0.3293 -0.3348
16503TIP3    H171000   5.310   0.868   0.321 -0.8615 -2.1856  0.2538
16503TIP3    H271001   5.212   0.920   0.424 -1.0163 -0.7875 -0.5819
16504TIP3   OH271002   2.228   5.312   4.002  0.2621 -0.2359 -0.3421
16504TIP3    H171003   2.184   5.395   4.020  0.6786 -0.1793  0.4734
16504TIP3    H271004   2.310   5.337   3.960  0.1879 -0.2595 -0.5009
16505TIP3   OH271005   0.751   0.368   5.839 -0.1234 -0.0204 -0.4538
16505TIP3    H171006   0.779   0.344   5.927  1.1064  0.4696 -0.6881
16505TIP3    H271007   0.821   0.336   5.782 -1.2493 -0.9970 -1.3513
16506TIP3   OH271008   3.667   5.085   1.970 -0.0742 -0.1198 -0.0092
16506TIP3    H171009   3.717   5.163   1.947  0.5065 -0.5460 -0.1940
16506TIP3    H271010   3.576   5.110   1.953 -0.0578  1.0537  1.4529
16507TIP3   OH271011   6.314   4.147  13.292 -0.9763  0.4399 -0.2546
16507TIP3    H171012   6.303   4.056  13.321  0.2345  0.5044  0.5035
16507TIP3    H271013   6.391   4.144  13.235  1.2556  1.4793  2.4892
16508TIP3   OH271014   0.821   6.264   0.349  0.1132 -1.0717 -0.5221
16508TIP3    H171015   0.901   6.314   0.333 -1.0880  0.5617 -1.6643
16508TIP3    H271016   0.813   6.206   0.274  0.6967 -1.9524  0.0675
16509TIP3   OH271017   1.922   1.258   0.669 -0.2605  0.2420 -0.0059
16509TIP3    H171018   1.934   1.178   0.618 -0.3618 -0.8858  1.6391
16509TIP3    H271019   1.832   1.285   0.649 -1.2637 -1.6893  1.4841
16510TIP3   OH271020   1.726   0.289  15.378 -0.4588 -0.0738 -0.3376
16510TIP3    H171021   1.678   0.247  15.307 -0.8064  0.6521 -0.5355
16510TIP3    H271022   1.671   0.276  15.455  0.0698 -1.1448 -0.1168
16511TIP3   OH271023   4.635   5.502   3.661  0.6458 -0.1774  0.0416
16511TIP3    H171024   4.574   5.479   3.591  1.7914 -1.6644 -0.5158
16511TIP3    H271025   4.587   5.482   3.741 -0.6703  1.5257 -0.2472
16512TIP3   OH271026   6.749   3.017   6.714  0.4596  0.5509  0.2549
16512TIP3    H171027   6.771   2.928   6.741  0.3906  0.4497 -0.0151
16512TIP3    H271028   6.653   3.018   6.713  0.4605  0.3484 -0.6381
16513TIP3   OH271029   3.560   5.291   0.369 -0.5800  0.5700 -0.2094
16513TIP3    H171030   3.625   5.323   0.432 -0.1130 -1.4142  0.4139
16513TIP3    H271031   3.600   5.212   0.333 -0.6768  1.8068 -3.3266
16514TIP3   OH271032   6.689   5.812   2.807  0.0905  0.5708 -0.2461
16514TIP3    H171033   6.705   5.784   2.717 -0.1838 -0.6669  0.0765
16514TIP3    H271034   6.764   5.868   2.828  0.9499 -0.3664 -0.7344
16515TIP3   OH271035   6.548   5.657  14.883  0.4129  0.1265 -0.5353
16515TIP3    H171036   6.482   5.705  14.934  1.6894 -0.0009  1.3349
16515TIP3    H271037   6.502   5.630  14.804 -0.8307  2.9796 -0.9312
16516TIP3   OH271038   1.360   3.040   3.933 -0.3698 -0.1688  0.5207
16516TIP3    H171039   1.394   2.981   3.866 -2.3821 -1.5947  0.6362
16516TIP3    H271040   1.321   3.112   3.884 -0.8106 -0.6222  0.1910
16517TIP3   OH271041   4.845   3.717   2.627  0.2097  0.3129 -0.1427
16517TIP3    H171042   4.897   3.661   2.569 -0.3307  1.5699 -1.9395
16517TIP3    H271043   4.754   3.690   2.610  0.0474  0.7061  0.1004
16518TIP3   OH271044   1.966   6.000   1.566  0.2228  0.4350  0.2626
16518TIP3    H171045   2.054   5.983   1.531  0.2740  0.4326  0.3913
16518TIP3    H271046   1.959   5.941   1.641 -0.6789 -1.1183 -0.9678
16519TIP3   OH271047   5.975   0.632   0.599  0.0757 -0.0037 -0.7042
16519TIP3    H171048   6.068   0.624   0.577  0.1703 -2.6555  0.3217
16519TIP3    H271049   5.969   0.715   0.647  1.8669  0.2425 -0.8122
16520TIP3   OH271050   5.248   3.291   0.874 -0.4146  0.4301  0.0342
16520TIP3    H171051   5.167   3.252   0.909 -1.6038  1.8457 -0.9856
16520TIP3    H271052   5.226   3.384   0.862  1.0218  0.6419 -1.2648
16521TIP3   OH271053   3.608   3.485   3.193  0.2552 -0.2286  0.3073
16521TIP3    H171054   3.673   3.552   3.173 -1.8335  2.0722  0.7350
16521TIP3    H271055   3.583   3.450   3.108  0.7373  0.1668 -0.0066
16522TIP3   OH271056   0.915   5.746  11.111 -0.5373  0.1603 -0.1376
16522TIP3    H171057   0.974   5.728  11.037 -0.0118  0.8502  0.1038
16522TIP3    H271058   0.877   5.832  11.092 -1.0232 -0.0186 -0.0005
16523TIP3   OH271059   5.877   2.681   4.214 -0.1750  0.7871 -0.1447
16523TIP3    H171060   5.866   2.776   4.220  0.1915  0.8509 -0.4287
16523TIP3    H271061   5.955   2.669   4.159  0.0823  0.3340  0.3034
16524TIP3   OH271062   1.588   6.629  12.640  0.1935  0.6688 -0.1976
16524TIP3    H171063   1.577   6.581  12.723 -0.7227  0.1433 -0.6145
16524TIP3    H271064   1.532   6.583  12.578  0.3599  1.4693 -0.9553
16525TIP3   OH271065   4.259   3.846  13.941 -0.0830  0.0763 -0.2749
16525TIP3    H171066   4.240   3.908  14.011  0.9621  1.3578 -1.0750
16525TIP3    H271067   4.183   3.852  13.883 -0.7525 -0.6743  0.4867
16526TIP3   OH271068   0.171   5.079   3.604 -0.3958 -0.0243  0.2427
16526TIP3    H171069   0.249   5.024   3.594 -0.5425 -0.2180  0.1426
16526TIP3    H271070   0.194   5.141   3.672 -0.1301 -0.0397  0.1699
16527TIP3   OH271071   0.329   3.250   5.696 -0.1055 -0.1916  0.0550
16527TIP3    H171072   0.300   3.294   5.616 -1.4946 -0.4154  0.4130
16527TIP3    H271073   0.401   3.305   5.729  0.4362 -0.0633 -1.2985
16528TIP3   OH271074   3.199   5.088  12.804 -0.0047 -0.0176  0.5537
16528TIP3    H171075   3.245   5.051  12.729 -0.3613 -0.2030  0.4238
16528TIP3    H271076   3.266   5.096  12.872 -0.0442 -1.4313  0.7736
16529TIP3   OH271077   4.986   1.305   5.612 -0.6134  0.4406 -0.1297
16529TIP3    H171078   4.947   1.228   5.571 -1.4528  1.0724 -0.5554
16529TIP3    H271079   4.940   1.379   5.572  1.8174  1.2944 -1.5588
16530TIP3   OH271080   3.638   3.577  14.314  0.1383  0.2272 -0.5086
16530TIP3    H171081   3.577   3.525  14.366  0.7940 -1.3405 -1.2243
16530TIP3    H271082   3.669   3.516  14.247  3.1017  0.7173  0.2954
16531TIP3   OH271083   4.004   5.595  13.704  0.1197  0.8785  0.0139
16531TIP3    H171084   4.060   5.645  13.645  1.4394 -1.5479 -0.9715
16531TIP3    H271085   3.928   5.570  13.651  0.6730 -0.1901 -0.3164
16532TIP3   OH271086   2.530   0.429   1.715  0.2202 -0.1406 -0.5296
16532TIP3    H171087   2.504   0.339   1.696  1.6866 -0.6505 -0.2792
16532TIP3    H271088   2.554   0.466   1.630  1.7149 -0.7225 -0.3972
16533TIP3   OH271089   3.533   3.916   3.433  0.3228  0.5638  0.4609
16533TIP3    H171090   3.553   3.841   3.490  0.0837  0.8156  0.8830
16533TIP3    H271091   3.611   3.971   3.437  0.6521  0.1511 -0.1589
16534TIP3   OH271092   2.681   4.438   2.303 -0.7144 -0.0435  0.2701
16534TIP3    H171093   2.621   4.510   2.281  0.7349  2.2303  3.1399
16534TIP3    H271094   2.637   4.393   2.375 -0.8916 -1.1006 -0.4854
16535TIP3   OH271095   4.787   5.071   0.127 -0.0525  0.5395  0.6828
16535TIP3    H171096   4.834   5.019   0.192  1.3545  0.6087 -0.2232
16535TIP3    H271097   4.825   5.044   0.043 -1.7147  0.5384 -0.1223
16536TIP3   OH271098   1.532   2.260  17.107  0.4240  0.0302  0.4159
16536TIP3    H171099   1.452   2.208  17.094  0.2052 -0.0186  1.8429
16536TIP3    H271100   1.505   2.349  17.086  0.1836 -0.0876  0.2099
16537TIP3   OH271101   1.772   3.724  16.196 -0.0991 -0.1890 -0.2106
16537TIP3    H171102   1.801   3.640  16.161 -0.1396  0.0899 -0.9249
16537TIP3    H271103   1.697   3.747  16.142 -0.1570  0.2564  0.0598
16538TIP3   OH271104   2.716   5.742  16.842 -0.0017  0.4589  0.5923
16538TIP3    H171105   2.790   5.744  16.903  0.3909  0.9812  0.1120
16538TIP3    H271106   2.648   5.794  16.883 -0.1013 -0.0088  1.0295
16539TIP3   OH271107   5.818   4.637  16.809 -0.4603 -0.7710  0.4441
16539TIP3    H171108   5.867   4.711  16.772 -2.7951 -0.4249 -2.2823
16539TIP3    H271109   5.882   4.566  16.812  1.5516  0.9370  2.0869
16540TIP3   OH271110   4.526   6.584   1.541  0.2193 -0.1231 -0.1329
16540TIP3    H171111   4.526   6.651   1.610  0.6761 -0.3631  0.1032
16540TIP3    H271112   4.600   6.608   1.485  0.0396 -0.1092 -0.3643
16541TIP3   OH271113   1.250   0.262  15.413  0.3236 -0.2492  0.0337
16541TIP3    H171114   1.171   0.260  15.358  0.9406  0.2691 -0.9057
16541TIP3    H271115   1.240   0.187  15.471 -1.9996  1.1432  1.5944
16542TIP3   OH271116   2.466   5.931  11.813  0.0532 -0.8921  0.1247
16542TIP3    H171117   2.495   5.867  11.878 -0.8752 -1.8651 -0.3827
16542TIP3    H271118   2.423   5.878  11.745 -2.9279  0.3842  0.8402
16543TIP3   OH271119   0.814   0.604  12.548 -0.0506 -0.3360 -0.0428
16543TIP3    H171120   0.822   0.697  12.526 -0.8954 -0.0475  0.8182
16543TIP3    H271121   0.759   0.568  12.478 -0.8953  0.1227  0.3595
16544TIP3   OH271122   5.957   3.498  13.494 -0.4336  0.5558 -0.3922
16544TIP3    H171123   5.889   3.497  13.427 -2.0860 -0.8115  1.1736
16544TIP3    H271124   5.912   3.527  13.574  1.2287  1.2265  0.3708
16545TIP3   OH271125   4.959   2.997  14.812  0.3311 -0.7796 -0.8077
16545TIP3    H171126   4.932   2.933  14.745  0.9375 -1.0020 -0.8444
16545TIP3    H271127   5.052   2.981  14.824  0.5668  0.3267 -1.0562
16546TIP3   OH271128   6.240   2.027  16.543 -0.3375  0.2048 -0.1285
16546TIP3    H171129   6.198   2.111  16.562 -0.4867  0.7238 -2.4633
16546TIP3    H271130   6.304   2.016  16.613 -2.0186  1.0366  1.6189
16547TIP3   OH271131   5.021   0.144  12.829  0.3235 -0.9894 -0.1124
16547TIP3    H171132   5.110   0.158  12.862 -0.2194 -0.2889  1.1237
16547TIP3    H271133   4.989   0.068  12.878 -0.2516 -0.3610  0.5029
16548TIP3   OH271134   5.904   4.070  12.204 -0.2585 -0.0327  0.2366
16548TIP3    H171135   5.859   4.052  12.287  0.7193 -1.8392  0.4092
16548TIP3    H271136   5.840   4.045  12.137 -0.7573  0.6823  0.4287
16549TIP3   OH271137   5.126   4.457   4.298  0.5091  0.0905  0.0162
16549TIP3    H171138   5.044   4.501   4.278  0.0742 -0.0504  1.4071
16549TIP3    H271139   5.122   4.374   4.249  0.0609  0.3130 -0.3269
16550TIP3   OH271140   5.690   1.134  10.555 -0.5024  0.0268  0.0893
16550TIP3    H171141   5.647   1.049  10.547 -0.4206  0.0825 -1.0941
16550TIP3    H271142   5.634   1.194  10.505  0.3014  0.3409 -0.4384
16551TIP3   OH271143   1.547   4.624  13.097  0.0553  0.4979 -0.3717
16551TIP3    H171144   1.505   4.538  13.094 -1.5576  1.2646 -0.4973
16551TIP3    H271145   1.640   4.604  13.107  0.1101 -1.3588 -3.1739
16552TIP3   OH271146   6.765   6.455  12.325  0.3205 -0.6673  0.2439
16552TIP3    H171147   6.753   6.493  12.412  1.4229  0.8308 -0.2058
16552TIP3    H271148   6.758   6.361  12.338 -1.9145 -0.3875  1.5312
16553TIP3   OH271149   2.039   6.307  10.407  0.3111 -0.5671 -0.2446
16553TIP3    H171150   2.107   6.253  10.448  0.9500  1.8049  2.0152
16553TIP3    H271151   1.960   6.253  10.412  1.3740 -2.2036 -0.2422
16554TIP3   OH271152   5.817   0.092   4.232  0.3683  0.4272  0.4996
16554TIP3    H171153   5.885   0.159   4.226  0.8139  0.0960  1.6059
16554TIP3    H271154   5.761   0.122   4.304  0.3367 -0.1772  0.7310
16555TIP3   OH271155   2.129   2.809  15.931 -0.1766 -0.3286 -0.1300
16555TIP3    H171156   2.045   2.812  15.885 -1.4005 -1.2554  1.9188
16555TIP3    H271157   2.120   2.870  16.004  1.9760  1.6257 -1.3728
16556TIP3   OH271158   2.740   5.335   1.814  0.7308  0.3256  1.4047
16556TIP3    H171159   2.741   5.372   1.725  0.5462  1.4094  1.8313
16556TIP3    H271160   2.650   5.347   1.844  0.7729 -0.1170  1.7088
16557TIP3   OH271161   3.896   4.185   4.452  0.1894 -0.8915  0.0380
16557TIP3    H171162   3.959   4.131   4.499  1.5473 -0.9069 -1.7005
16557TIP3    H271163   3.950   4.240   4.394 -1.3062  0.3573 -0.2387
16558TIP3   OH271164   0.924   3.023  15.868 -0.6062 -0.1298 -0.8338
16558TIP3    H171165   0.936   3.053  15.958 -1.5850 -0.7472 -0.4879
16558TIP3    H271166   0.904   3.102  15.818  1.4249  0.4557 -0.8224
16559TIP3   OH271167   5.802   5.311  14.392 -0.3464  0.8978  0.7351
16559TIP3    H171168   5.835   5.267  14.470  0.0115  1.2062  0.7621
16559TIP3    H271169   5.776   5.398  14.423  0.1021  1.1346  0.4466
16560TIP3   OH271170   0.345   5.242  15.304  0.4852 -0.5399 -0.0715
16560TIP3    H171171   0.349   5.147  15.298 -0.2954 -0.5822 -0.1456
16560TIP3    H271172   0.428   5.272  15.268  0.7222 -1.1920 -0.0853
16561TIP3   OH271173   2.630   5.065  14.880  0.1003 -0.2921 -0.5004
16561TIP3    H171174   2.549   5.015  14.888 -0.5459  0.5582 -1.5665
16561TIP3    H271175   2.625   5.130  14.950 -0.3352  0.0313 -0.8326
16562TIP3   OH271176   6.196   4.457  15.734 -0.2289  0.0875  0.1898
16562TIP3    H171177   6.218   4.549  15.719  0.5708 -0.3884 -1.8116
16562TIP3    H271178   6.158   4.427  15.652 -0.5810 -1.3600  0.8522
16563TIP3   OH271179   5.182   2.993  15.934 -0.2863 -0.2092  0.2732
16563TIP3    H171180   5.252   3.026  15.989 -0.8742  1.0203  0.3192
16563TIP3    H271181   5.138   3.072  15.901 -0.8963 -0.9402 -0.7080
16564TIP3   OH271182   6.503   4.525   0.919  0.7573 -0.4734  0.1678
16564TIP3    H171183   6.544   4.540   1.004  0.3641 -0.0181  0.2844
16564TIP3    H271184   6.504   4.430   0.908  2.9373 -0.4278 -0.3901
16565TIP3   OH271185   1.206   5.036  12.442 -0.4372  0.6019 -0.1774
16565TIP3    H171186   1.266   5.100  12.404  0.2781 -0.1031 -0.2506
16565TIP3    H271187   1.261   4.977  12.492 -1.4067  1.7873  2.4523
16566TIP3   OH271188   4.816   6.183   3.696 -0.1663  0.1524 -0.3949
16566TIP3    H171189   4.751   6.188   3.626 -1.4910 -0.3512  0.7525
16566TIP3    H271190   4.792   6.105   3.746 -0.2934  1.3706  1.5724
16567TIP3   OH271191   2.609   6.467   3.943 -0.3723  0.1967 -0.0283
16567TIP3    H171192   2.589   6.445   3.852  0.8300 -1.0298 -0.0271
16567TIP3    H271193   2.699   6.498   3.941 -0.3091  0.0820  0.7633
16568TIP3   OH271194   2.868   2.478   0.079 -0.3416  0.1013 -0.5237
16568TIP3    H171195   2.861   2.395   0.033 -2.0541 -0.2220  0.2639
16568TIP3    H271196   2.885   2.454   0.170 -0.0266  0.6449 -0.4320
16569TIP3   OH271197   3.298   1.474  15.064  0.5889 -0.3199 -0.5572
16569TIP3    H171198   3.284   1.446  15.155  0.9729  0.2249 -0.3241
16569TIP3    H271199   3.225   1.436  15.016 -1.4224  1.8975  0.5186
16570TIP3   OH271200   0.772   1.762  15.201 -0.0994  0.3793  0.4888
16570TIP3    H171201   0.758   1.670  15.179  0.1403  0.4214  0.1559
16570TIP3    H271202   0.805   1.760  15.291  0.4316  0.1015  0.2919
16571TIP3   OH271203   3.035   3.017   4.442 -0.0031  0.0510 -0.2799
16571TIP3    H171204   3.109   3.012   4.501  0.4541  1.4383 -0.6902
16571TIP3    H271205   3.049   2.947   4.378 -0.4123 -1.3401  1.1017
16572TIP3   OH271206   4.589   5.526  12.304  0.0069 -0.0247  0.5400
16572TIP3    H171207   4.603   5.539  12.210  1.4067  0.4016  0.7927
16572TIP3    H271208   4.497   5.548  12.317 -0.3083 -0.4321 -0.7885
16573TIP3   OH271209   4.329   6.322   6.330 -0.1231 -0.1004  0.1760
16573TIP3    H171210   4.338   6.228   6.343 -0.6003 -0.4143 -1.4588
16573TIP3    H271211   4.413   6.350   6.294 -0.9391 -0.5345 -2.2922
16574TIP3   OH271212   2.435   4.174  11.988  0.5793  0.1795 -0.0270
16574TIP3    H171213   2.490   4.226  12.046  0.2391  0.7233 -0.1843
16574TIP3    H271214   2.406   4.235  11.921 -0.1124 -0.1226 -0.0134
16575TIP3   OH271215   1.798   3.101   2.271  0.3909 -0.1504  0.4627
16575TIP3    H171216   1.828   3.129   2.184 -1.8119 -0.4407 -0.4489
16575TIP3    H271217   1.861   3.140   2.332  2.0722 -0.0378 -1.2388
16576TIP3   OH271218   2.835   3.278   4.707  0.4531 -0.1307  0.4368
16576TIP3    H171219   2.869   3.197   4.668 -0.3580  0.1336 -0.8793
16576TIP3    H271220   2.741   3.276   4.689 -0.2392 -0.5973  3.5650
16577TIP3   OH271221   3.432   0.980  14.401  0.0662  0.6891 -0.6178
16577TIP3    H171222   3.440   0.894  14.361  1.1879  0.3896  0.1972
16577TIP3    H271223   3.384   1.032  14.337  0.2524 -0.2621 -1.5567
16578TIP3   OH271224   0.555   2.341   4.184  0.0564  0.5361 -0.1498
16578TIP3    H171225   0.502   2.308   4.257  2.1858 -1.7842  0.4942
16578TIP3    H271226   0.549   2.272   4.118 -0.7802  2.0193 -1.6986
16579TIP3   OH271227   1.254   0.057  13.212  0.1626 -0.5349 -1.0936
16579TIP3    H171228   1.205   0.014  13.142  0.2861 -0.0557 -1.4863
16579TIP3    H271229   1.187   0.096  13.268  0.0768 -0.0731 -1.5047
16580TIP3   OH271230   2.790   6.076   6.654  0.1606 -0.5540 -0.5474
16580TIP3    H171231   2.841   6.155   6.672 -0.0448 -0.5130 -0.1168
16580TIP3    H271232   2.852   6.014   6.616  0.9084 -1.0636  1.3925
16581TIP3   OH271233   1.270   2.388  13.835  0.7369  0.1911  0.1453
16581TIP3    H171234   1.243   2.415  13.747 -0.5105 -0.5498  0.2673
16581TIP3    H271235   1.302   2.298  13.824  2.7882  0.8717  0.0957
16582TIP3   OH271236   4.778   5.564   5.550 -0.4976  0.2716  0.6248
16582TIP3    H171237   4.852   5.623   5.541  0.0547 -0.6201 -1.2695
16582TIP3    H271238   4.719   5.607   5.612 -0.5739  3.2693 -1.3155
16583TIP3   OH271239   0.104   2.386  16.911  0.4503 -0.1904 -0.2307
16583TIP3    H171240   0.050   2.423  16.841  0.3243  0.6382  0.2955
16583TIP3    H271241   0.050   2.316  16.948 -0.3950  0.8101  0.4701
16584TIP3   OH271242   0.715   3.978  13.214 -0.0973  0.0192 -0.2359
16584TIP3    H171243   0.645   4.019  13.266  0.1968  0.5155 -0.2240
16584TIP3    H271244   0.691   3.997  13.124  0.6855  1.3225 -0.1976
16585TIP3   OH271245   3.546   4.117   4.187 -0.0358 -0.6722 -0.4347
16585TIP3    H171246   3.583   4.197   4.223 -0.7814 -0.8901  0.8809
16585TIP3    H271247   3.621   4.057   4.179  0.2453 -0.4131  0.2104
16586TIP3   OH271248   3.525   0.376   0.773  0.6543 -0.6801 -0.0313
16586TIP3    H171249   3.478   0.359   0.692 -1.0439  1.0874  0.4951
16586TIP3    H271250   3.534   0.472   0.775  1.2332 -0.7367  1.5423
16587TIP3   OH271251   1.129   3.746  17.120 -0.2844 -0.0705  0.2588
16587TIP3    H171252   1.131   3.800  17.199  2.0347  0.9140 -0.4082
16587TIP3    H271253   1.148   3.658  17.151 -0.5495  0.0987  0.9192
16588TIP3   OH271254   1.967   0.967  13.783 -0.0873  0.1071  0.5731
16588TIP3    H171255   2.053   0.953  13.822 -0.2244  0.6476  1.0920
16588TIP3    H271256   1.907   0.975  13.857 -0.7107 -0.9782  0.2042
16589TIP3   OH271257   1.861   5.103   5.401 -0.0915 -0.6552  0.6240
16589TIP3    H171258   1.829   5.187   5.435  0.9127  0.2871 -0.6610
16589TIP3    H271259   1.896   5.058   5.478 -1.9850 -0.5558  1.5824
16590TIP3   OH271260   1.522   0.652   0.447 -0.5038 -0.9767 -0.5965
16590TIP3    H171261   1.479   0.737   0.435 -0.4764 -1.0463 -1.2234
16590TIP3    H271262   1.458   0.588   0.415  0.2487 -1.0466 -2.0614
16591TIP3   OH271263   4.441   0.248   0.345 -0.4671 -0.3919 -0.3951
16591TIP3    H171264   4.458   0.288   0.430 -0.1554  1.7550 -1.3973
16591TIP3    H271265   4.416   0.158   0.365  1.0224 -0.3785  1.8563
16592TIP3   OH271266   3.884   5.398   4.140 -0.2641 -0.5126 -0.6286
16592TIP3    H171267   3.883   5.378   4.047  0.3588  0.2960 -0.8287
16592TIP3    H271268   3.975   5.383   4.167 -0.0401  0.8729 -0.5422
16593TIP3   OH271269   5.384   5.267   3.682 -0.3747  0.0103  0.1576
16593TIP3    H171270   5.413   5.266   3.773  1.6632 -0.5932 -0.4435
16593TIP3    H271271   5.465   5.261   3.631 -1.5028 -0.3306 -1.6904
16594TIP3   OH271272   5.201   0.856  17.220 -0.3685  0.3008  0.0763
16594TIP3    H171273   5.151   0.878  17.142 -1.1707 -0.8473  0.2427
16594TIP3    H271274   5.205   0.760  17.220  2.6374  0.3345 -0.4303
16595TIP3   OH271275   4.068   6.451   5.038  0.1483 -0.0872 -0.3543
16595TIP3    H171276   4.139   6.514   5.027  0.9125 -0.9125 -0.1489
16595TIP3    H271277   4.108   6.375   5.079 -1.0220 -0.2366  0.5787
16596TIP3   OH271278   1.932   6.703   0.260  0.3194  0.6369 -0.1179
16596TIP3    H171279   1.971   6.699   0.347 -1.7197  2.1781  0.9304
16596TIP3    H271280   1.990   6.761   0.210  1.4545 -0.2008  0.1674
16597TIP3   OH271281   2.113   2.702  13.287  0.0013  0.4039  0.2226
16597TIP3    H171282   2.120   2.735  13.198  3.2011  1.7125  0.8196
16597TIP3    H271283   2.123   2.607  13.279  0.2517  0.5123 -0.8355
16598TIP3   OH271284   4.008   5.712  15.573  0.2034  0.0096 -0.9907
16598TIP3    H171285   3.949   5.787  15.575 -0.5774 -0.5559 -1.7881
16598TIP3    H271286   3.957   5.643  15.532  1.4148 -0.5045 -1.6950
16599TIP3   OH271287   4.606   4.992   0.633  0.2035 -0.0437  0.0243
16599TIP3    H171288   4.620   5.023   0.722 -0.8889  0.5689 -0.0086
16599TIP3    H271289   4.666   5.044   0.579 -0.2587  0.6716  0.2038
16600TIP3   OH271290   1.028   4.634  14.026  0.6427  0.5297  0.0652
16600TIP3    H171291   1.123   4.635  14.012  0.5655 -1.3447 -0.8095
16600TIP3    H271292   1.008   4.543  14.048 -0.8685  1.0504  1.0106
16601TIP3   OH271293   5.763   4.223  13.975  0.2606 -0.4391 -0.2298
16601TIP3    H171294   5.752   4.269  14.058  1.2857  1.0535 -0.8911
16601TIP3    H271295   5.677   4.229  13.933  0.4173  1.0687 -0.3811
16602TIP3   OH271296   1.588   3.050  12.624 -0.8407 -0.3961  0.4936
16602TIP3    H171297   1.586   2.996  12.703  1.6596  0.3337  1.1315
16602TIP3    H271298   1.635   3.129  12.650 -1.4462  0.5980 -1.3058
16603TIP3   OH271299   0.064   6.678  12.214  0.3528 -0.1054 -0.8947
16603TIP3    H171300   0.051   6.587  12.242 -0.4535  0.2496 -0.0561
16603TIP3    H271301   0.146   6.676  12.164 -0.2190 -1.4959 -1.8493
16604TIP3   OH271302   5.470   0.516   0.732  0.0777  0.1466  0.1733
16604TIP3    H171303   5.502   0.440   0.780  0.5887 -0.7662 -1.5042
16604TIP3    H271304   5.412   0.479   0.665  0.8040  1.1534 -1.0577
16605TIP3   OH271305   6.383   2.255   5.127 -0.2969 -0.0239  0.1078
16605TIP3    H171306   6.476   2.262   5.149  0.5659 -1.1091 -2.7845
16605TIP3    H271307   6.359   2.343   5.100 -0.3350  0.4165  1.4945
16606TIP3   OH271308   3.662   6.810  14.278 -0.1570 -0.3936  0.1305
16606TIP3    H171309   3.747   6.801  14.235 -0.5549 -1.5632 -0.4351
16606TIP3    H271310   3.674   6.883  14.340  0.2771  1.7551 -2.2967
16607TIP3   OH271311   2.617   3.927  15.473 -0.2541 -0.3108 -0.2183
16607TIP3    H171312   2.597   3.974  15.554  0.3146  0.9963 -0.8153
16607TIP3    H271313   2.712   3.928  15.467 -0.2962 -0.3490 -0.9344
16608TIP3   OH271314   3.344   2.006   4.960 -0.2199  0.2593 -0.3465
16608TIP3    H171315   3.268   2.023   5.015 -0.1212 -0.4759  0.0358
16608TIP3    H271316   3.415   1.989   5.022  0.0356  0.0306 -0.6948
16609TIP3   OH271317   1.307   1.060   1.050 -0.2948  0.4358 -0.2314
16609TIP3    H171318   1.227   1.010   1.068 -1.2597  2.4328  1.3682
16609TIP3    H271319   1.371   0.993   1.025 -2.1581 -1.3302 -0.5738
16610TIP3   OH271320   4.073   3.905   0.703 -0.6434 -0.5731 -0.2307
16610TIP3    H171321   4.031   3.821   0.721  1.4365 -1.8198 -0.9193
16610TIP3    H271322   4.118   3.927   0.784 -0.2132 -0.7185 -0.4303
16611TIP3   OH271323   5.268   0.799  15.671  0.5508 -0.1443 -0.1679
16611TIP3    H171324   5.232   0.716  15.701 -0.3565  0.5081  0.6094
16611TIP3    H271325   5.328   0.826  15.741  0.4705  0.0880 -0.1880
16612TIP3   OH271326   2.626   2.737   2.889  0.0041 -0.5931 -0.5033
16612TIP3    H171327   2.670   2.673   2.944 -0.3682 -0.3592  0.0735
16612TIP3    H271328   2.645   2.822   2.930 -0.7669 -0.4663 -0.3776
16613TIP3   OH271329   3.820   3.325   5.871  0.1611 -0.0482  0.0383
16613TIP3    H171330   3.805   3.356   5.960  0.9056  0.7598 -0.1043
16613TIP3    H271331   3.808   3.230   5.876 -4.0708  0.3075  0.1261
16614TIP3   OH271332   0.154   2.418   0.793 -0.3654 -0.6375  0.1534
16614TIP3    H171333   0.191   2.348   0.848 -0.6647 -0.2744  0.8374
16614TIP3    H271334   0.223   2.437   0.730  1.7842  1.7160  2.8945
16615TIP3   OH271335   2.845   5.248   5.051  0.1931  0.5205  0.2120
16615TIP3    H171336   2.890   5.290   5.123  2.5219 -0.5524 -0.5166
16615TIP3    H271337   2.802   5.319   5.004  0.0828  1.4315  1.6335
16616TIP3   OH271338   3.042   2.533  12.266 -0.0586  0.0337  0.5348
16616TIP3    H171339   3.083   2.620  12.273 -1.8952  1.1523 -1.4064
16616TIP3    H271340   3.063   2.491  12.349  2.3876  1.6401  0.8457
16617TIP3   OH271341   1.115   0.403  12.154 -0.3512  0.3691  0.4432
16617TIP3    H171342   1.139   0.383  12.064 -1.2227  0.9738  0.0657
16617TIP3    H271343   1.176   0.471  12.181 -0.6637  0.8329 -0.0016
16618TIP3   OH271344   0.502   1.277  15.208 -0.3183 -0.0528 -0.3241
16618TIP3    H171345   0.592   1.309  15.222 -0.4147  1.2455 -2.2449
16618TIP3    H271346   0.456   1.301  15.288  0.3741  1.9916 -0.4587
16619TIP3   OH271347   6.075   1.836  13.922  0.0068  0.6195 -0.3179
16619TIP3    H171348   6.031   1.920  13.907  0.3648  0.7126 -0.8942
16619TIP3    H271349   6.168   1.859  13.929  0.3112  0.1228 -2.1064
16620TIP3   OH271350   3.017   3.732  13.703  0.5414 -0.0699 -0.0963
16620TIP3    H171351   3.024   3.790  13.626  1.2786 -2.0805 -1.6367
16620TIP3    H271352   2.982   3.788  13.772  1.2172  2.1955 -1.4917
16621TIP3   OH271353   3.503   1.303   2.045  0.3856  0.2670  0.0248
16621TIP3    H171354   3.490   1.221   2.093  3.4888  0.7626  1.9992
16621TIP3    H271355   3.441   1.365   2.085  1.4224  0.0989  2.0275
16622TIP3   OH271356   4.010   5.171  15.086 -0.0876  0.5009  0.3401
16622TIP3    H171357   4.057   5.223  15.022 -1.5114  1.2689 -0.1400
16622TIP3    H271358   3.922   5.209  15.088 -0.8247 -1.1172  0.8807
16623TIP3   OH271359   3.461   6.794   4.668 -0.0277 -0.2142  0.2480
16623TIP3    H171360   3.480   6.858   4.600  1.5845 -0.2638  0.6106
16623TIP3    H271361   3.381   6.826   4.710 -0.2355  0.5844 -0.7325
16624TIP3   OH271362   4.591   5.172   2.040  0.9247 -0.4453 -0.2540
16624TIP3    H171363   4.541   5.188   1.960  0.1570 -3.9004 -0.6267
16624TIP3    H271364   4.525   5.168   2.109  1.4236  1.0073  0.3415
16625TIP3   OH271365   3.011   3.180   0.238  0.0813  0.2028 -0.4584
16625TIP3    H171366   3.022   3.084   0.236 -0.2717  0.1454 -3.0782
16625TIP3    H271367   3.022   3.203   0.331  3.4969 -1.9768 -0.1193
16626TIP3   OH271368   1.066   3.832  11.720 -0.0127  0.0606 -0.2175
16626TIP3    H171369   1.098   3.921  11.708  3.0168 -0.5286  2.2652
16626TIP3    H271370   0.990   3.841  11.778  1.5747  0.9845  1.8257
16627TIP3   OH271371   3.310   0.598   4.405 -0.0188  0.1882  0.1313
16627TIP3    H171372   3.319   0.556   4.491 -0.1601 -0.1544 -0.0198
16627TIP3    H271373   3.356   0.681   4.415  0.8747 -0.2999  0.2306
16628TIP3   OH271374   1.511   1.106   3.048 -0.4475 -0.2493  0.4627
16628TIP3    H171375   1.534   1.016   3.069 -0.8332 -0.2781  0.7640
16628TIP3    H271376   1.595   1.152   3.045 -0.1922 -0.7682 -0.4210
16629TIP3   OH271377   0.096   1.229  13.672 -0.5333  0.1638  0.4140
16629TIP3    H171378   0.085   1.317  13.706  1.8262  0.4893  0.5223
16629TIP3    H271379   0.176   1.234  13.619  0.0275 -2.0322  0.9573
16630TIP3   OH271380   5.723   2.468   3.483  0.2164  0.3971 -0.4549
16630TIP3    H171381   5.734   2.505   3.570  0.2767 -1.8039  0.5406
16630TIP3    H271382   5.801   2.494   3.435 -0.3671  2.6517 -0.3005
16631TIP3   OH271383   3.154   0.131   5.031  0.0360 -0.0716  0.8807
16631TIP3    H171384   3.184   0.106   4.944 -1.0327 -1.8256  0.9599
16631TIP3    H271385   3.181   0.058   5.087  0.0931  0.7046  1.8932
16632TIP3   OH271386   5.600   1.214   1.874  0.2464 -0.0669  0.5808
16632TIP3    H171387   5.685   1.173   1.862  0.8015  1.4805 -1.2351
16632TIP3    H271388   5.619   1.305   1.895 -0.9683  0.1061  1.0408
16633TIP3   OH271389   5.841   1.906   6.300 -0.4112  0.1709  0.3658
16633TIP3    H171390   5.936   1.909   6.302 -0.2907 -1.9242  2.0051
16633TIP3    H271391   5.821   1.823   6.257 -1.4398  0.0403  1.0548
16634TIP3   OH271392   6.622   6.198  16.075  0.1291  0.1935  0.3373
16634TIP3    H171393   6.582   6.254  16.008  1.9885  2.0972  0.7074
16634TIP3    H271394   6.675   6.135  16.026  0.3382  0.6462 -0.0233
16635TIP3   OH271395   1.195   0.221   2.828  0.2424 -0.3517 -0.6152
16635TIP3    H171396   1.182   0.127   2.836  3.0642 -1.0690 -2.7039
16635TIP3    H271397   1.127   0.250   2.768 -1.8550 -0.5847  1.5053
16636TIP3   OH271398   3.814   3.627   2.257  0.2597  0.1545 -0.1958
16636TIP3    H171399   3.858   3.712   2.256  0.1660  0.2321  1.1151
16636TIP3    H271400   3.869   3.571   2.202  1.5873  0.4512  0.7872
16637TIP3   OH271401   5.374   5.623  14.112  0.1830 -0.2379 -0.2267
16637TIP3    H171402   5.324   5.673  14.047  0.6537 -0.5209 -0.8138
16637TIP3    H271403   5.353   5.531  14.092  0.5745 -0.3362 -0.1817
16638TIP3   OH271404   5.909   6.732   5.214 -0.3296  0.0396 -0.1009
16638TIP3    H171405   5.934   6.683   5.136  1.1815 -0.9885  0.9713
16638TIP3    H271406   5.884   6.819   5.181  0.7574 -0.2053 -1.6689
16639TIP3   OH271407   5.733   4.104   0.319 -0.0269 -0.0823 -0.2848
16639TIP3    H171408   5.816   4.097   0.270  0.1049 -1.0563  0.0610
16639TIP3    H271409   5.716   4.198   0.322  0.4776  0.0650 -1.3448
16640TIP3   OH271410   2.604   5.226  16.088  0.2167 -0.2088 -0.2714
16640TIP3    H171411   2.644   5.200  16.170  3.2163  1.0149 -1.2156
16640TIP3    H271412   2.584   5.319  16.099  0.6963 -0.0211 -0.9185
16641TIP3   OH271413   6.240   6.282   4.415 -0.0448 -0.2850 -0.5141
16641TIP3    H171414   6.185   6.358   4.434 -1.6836 -0.9798 -2.1485
16641TIP3    H271415   6.328   6.317   4.405 -0.5175  1.1668  0.1904
16642TIP3   OH271416   1.949   0.553   2.067 -0.4258  0.1973 -0.0021
16642TIP3    H171417   2.030   0.595   2.040 -0.1205 -0.7193 -0.5458
16642TIP3    H271418   1.977   0.475   2.115 -0.9849 -0.0143 -0.0078
16643TIP3   OH271419   0.692   0.796  16.825  0.2116  0.3669  0.4121
16643TIP3    H171420   0.651   0.814  16.741 -0.0337  0.7901  0.6204
16643TIP3    H271421   0.688   0.879  16.872 -1.4158 -0.3059  1.5886
16644TIP3   OH271422   4.672   5.441   1.169  0.1632 -0.3130 -0.0871
16644TIP3    H171423   4.579   5.418   1.177  0.5295 -1.8262  0.2160
16644TIP3    H271424   4.713   5.360   1.138  1.3457  0.4261 -0.5117
16645TIP3   OH271425   2.398   5.372   6.090 -0.3575  0.1059  0.3864
16645TIP3    H171426   2.351   5.309   6.145 -1.4070  0.2684 -0.2864
16645TIP3    H271427   2.363   5.358   6.002  0.3078  0.7692  0.0023
16646TIP3   OH271428   1.543   1.230  15.224 -0.1853 -0.2454 -0.4597
16646TIP3    H171429   1.605   1.192  15.285  0.2399 -0.7018 -1.1677
16646TIP3    H271430   1.597   1.260  15.150 -0.6235  0.8003 -0.3738
16647TIP3   OH271431   2.112   4.068   5.590 -0.2486  0.0180 -0.0591
16647TIP3    H171432   2.156   4.036   5.511  0.8700  1.3617 -0.0239
16647TIP3    H271433   2.151   4.017   5.661  1.3090  1.1338 -0.0365
16648TIP3   OH271434   4.233   1.162   5.555  0.3692 -0.2423  0.0260
16648TIP3    H171435   4.266   1.197   5.472  0.4967 -1.5926 -0.5222
16648TIP3    H271436   4.247   1.067   5.548  1.4265 -0.2857  2.0622
16649TIP3   OH271437   3.850   2.468   1.952 -0.0294  0.1331  0.0844
16649TIP3    H171438   3.760   2.474   1.920 -0.5314 -1.4243  1.1167
16649TIP3    H271439   3.899   2.427   1.880 -0.6735 -1.2374  0.3966
16650TIP3   OH271440   3.222   2.463   2.373  0.3235  0.6163  0.3913
16650TIP3    H171441   3.203   2.444   2.465  0.6946 -0.9024  0.1779
16650TIP3    H271442   3.165   2.536   2.351 -2.0540 -0.9451  1.0053
16651TIP3   OH271443   4.927   4.848  16.386 -0.0260 -0.3580  0.4770
16651TIP3    H171444   4.852   4.789  16.381 -2.0501  2.0988 -3.0658
16651TIP3    H271445   5.001   4.796  16.354 -0.5230 -2.3336  2.3346
16652TIP3   OH271446   4.219   1.854  10.701 -0.3657 -0.1278  0.2619
16652TIP3    H171447   4.201   1.760  10.705  0.2321 -0.2932 -0.5330
16652TIP3    H271448   4.186   1.889  10.783 -0.9535 -0.9742  0.3956
16653TIP3   OH271449   2.307   0.048   6.430  0.4775 -0.2666 -0.0561
16653TIP3    H171450   2.341   0.138   6.432 -2.6285  1.0750 -1.4739
16653TIP3    H271451   2.214   0.058   6.409  0.2681 -3.8794 -1.4812
16654TIP3   OH271452   3.547   6.214  15.234 -0.4255 -0.2339  0.4415
16654TIP3    H171453   3.478   6.184  15.174  0.2574  0.5205 -0.7745
16654TIP3    H271454   3.627   6.210  15.181  0.3180 -0.2114  1.5388
16655TIP3   OH271455   5.291   3.532  14.771 -0.4215 -0.3055  0.1142
16655TIP3    H171456   5.327   3.613  14.808  3.4757 -1.9612  0.4042
16655TIP3    H271457   5.288   3.548  14.676  2.8495 -0.5071 -0.1445
16656TIP3   OH271458   3.593   3.957  11.288 -0.2503  0.4834  0.0250
16656TIP3    H171459   3.618   3.875  11.331  0.8998 -0.0696 -1.6078
16656TIP3    H271460   3.671   4.012  11.296 -0.8365  1.2293  0.6445
16657TIP3   OH271461   2.231   2.692   3.837  0.0766  0.3674  0.0700
16657TIP3    H171462   2.314   2.719   3.877 -0.5175  0.6264  1.1709
16657TIP3    H271463   2.196   2.627   3.897  0.2147 -0.9129 -1.2094
16658TIP3   OH271464   4.642   0.515   2.902 -0.0699  0.1763  0.0200
16658TIP3    H171465   4.721   0.463   2.885  1.0210  1.7076  0.2199
16658TIP3    H271466   4.605   0.475   2.981  1.5429  0.5325  1.0205
16659TIP3   OH271467   4.204   3.179   4.371 -0.0619  0.1342  0.0823
16659TIP3    H171468   4.184   3.270   4.392 -0.1618  0.1947 -0.2776
16659TIP3    H271469   4.139   3.128   4.419 -0.4317  0.2831 -0.2624
16660TIP3   OH271470   0.857   6.628  13.780  0.0245  0.0825  1.4314
16660TIP3    H171471   0.776   6.657  13.823 -1.9710 -2.2083 -0.4631
16660TIP3    H271472   0.909   6.588  13.849 -2.4859 -2.3008  2.1057
16661TIP3   OH271473   5.726   4.231  15.473 -0.2201 -0.2003  0.6112
16661TIP3    H171474   5.666   4.159  15.495  0.9967 -0.7775  2.2955
16661TIP3    H271475   5.674   4.310  15.487 -0.6228 -0.6867  2.0931
16662TIP3   OH271476   1.197   1.375  14.011 -0.1072 -0.2299 -1.2733
16662TIP3    H171477   1.183   1.469  14.022  0.8156 -0.0304 -1.6765
16662TIP3    H271478   1.198   1.341  14.101  0.3246  0.2746 -1.0778
16663TIP3   OH271479   0.957   6.515  11.734  0.1047 -0.2594 -0.4498
16663TIP3    H171480   0.994   6.443  11.786  0.7927  0.7545  0.5143
16663TIP3    H271481   0.949   6.587  11.797 -1.4876  0.2190 -1.1659
16664TIP3   OH271482   2.561   4.710  12.395  0.1836  0.1072  0.2823
16664TIP3    H171483   2.620   4.673  12.460  1.7435  1.8927 -0.0399
16664TIP3    H271484   2.475   4.676  12.419  1.2536 -2.2585  0.9913
16665TIP3   OH271485   1.313   1.246   2.816  0.0601  0.2517  0.0490
16665TIP3    H171486   1.365   1.187   2.871  1.0848  1.3910  0.3428
16665TIP3    H271487   1.257   1.294   2.877 -0.8605 -0.4722 -0.2009
16666TIP3   OH271488   6.302   6.165   1.214 -0.1214 -0.0813  0.1350
16666TIP3    H171489   6.359   6.096   1.181 -2.4982 -1.9885 -0.2192
16666TIP3    H271490   6.238   6.179   1.145 -1.2416  0.6210  1.2697
16667TIP3   OH271491   5.256   6.050  12.042  0.2567  0.4749 -0.2587
16667TIP3    H171492   5.301   6.132  12.024 -2.0573  2.1540  1.0323
16667TIP3    H271493   5.237   6.053  12.136 -0.7638 -1.0478 -0.3805
16668TIP3   OH271494   2.707   6.671   1.501  0.0961 -0.0755 -0.3387
16668TIP3    H171495   2.734   6.582   1.523  1.4989  0.6611  1.2040
16668TIP3    H271496   2.789   6.720   1.497 -0.7686  1.8678  2.4812
16669TIP3   OH271497   6.299   0.108   1.783 -0.5987  0.0603 -0.2591
16669TIP3    H171498   6.298   0.203   1.772 -2.1201  0.0115 -0.7062
16669TIP3    H271499   6.383   0.090   1.826 -0.4244  1.6271  0.1166
16670TIP3   OH271500   4.257   3.353   3.460  0.4409 -0.5064  0.2336
16670TIP3    H171501   4.257   3.410   3.383  0.3640 -0.8999 -0.0596
16670TIP3    H271502   4.334   3.298   3.448 -0.4050 -1.5988 -0.3355
16671TIP3   OH271503   5.149   3.867  14.791 -0.0328 -0.1080 -0.6042
16671TIP3    H171504   5.125   3.949  14.836  0.6033  0.7136 -1.7155
16671TIP3    H271505   5.245   3.871  14.785  0.0097 -1.0039 -0.5743
16672TIP3   OH271506   5.111   3.749  12.341  0.1663  0.1616  0.3512
16672TIP3    H171507   5.038   3.804  12.370  1.0428  1.4240  0.2627
16672TIP3    H271508   5.074   3.694  12.271 -1.5054 -1.6116  2.4906
16673TIP3   OH271509   4.837   0.006   1.811 -0.3510  0.5985 -0.6373
16673TIP3    H171510   4.929   0.007   1.784 -0.1549 -0.8766 -0.1077
16673TIP3    H271511   4.795  -0.054   1.750 -0.9470  1.1330 -0.7662
16674TIP3   OH271512   4.096   2.279   4.733  0.4155 -0.5688 -0.1699
16674TIP3    H171513   4.045   2.308   4.809  0.4594 -0.1746 -0.2888
16674TIP3    H271514   4.118   2.188   4.752  0.3846 -0.4853  0.2672
16675TIP3   OH271515   6.545   5.516   5.022  0.4597  0.1298 -0.4057
16675TIP3    H171516   6.480   5.581   5.049  0.3957  0.9479 -2.3258
16675TIP3    H271517   6.508   5.477   4.943  0.2404 -2.7036  0.9559
16676TIP3   OH271518   0.668   3.084  13.653  0.3086 -0.0375  0.4019
16676TIP3    H171519   0.636   3.166  13.615 -0.9392 -0.5163  0.3894
16676TIP3    H271520   0.692   3.107  13.742 -3.2219 -0.2794  1.5728
16677TIP3   OH271521   6.645   6.429  13.507 -0.1480 -0.2202  0.5937
16677TIP3    H171522   6.730   6.424  13.464  0.2342 -1.6489  1.4594
16677TIP3    H271523   6.637   6.520  13.534  0.0220  0.5033 -1.5757
16678TIP3   OH271524   6.767   2.614   1.352  0.0396 -0.2311 -0.2119
16678TIP3    H171525   6.787   2.645   1.441  2.3943  0.6969 -0.9920
16678TIP3    H271526   6.700   2.674   1.320 -2.0340 -1.5380  1.4382
16679TIP3   OH271527   3.406   2.614  11.584  0.6111 -0.8664  0.9411
16679TIP3    H171528   3.475   2.569  11.535  1.0593  1.7192 -1.0502
16679TIP3    H271529   3.454   2.675  11.641  0.1963  2.1523 -1.6433
16680TIP3   OH271530   1.169   2.933  14.819 -0.4403  0.7449  0.0628
16680TIP3    H171531   1.213   2.993  14.879  1.5185  0.1924 -0.7422
16680TIP3    H271532   1.240   2.882  14.780 -1.9113 -0.9184 -0.5511
16681TIP3   OH271533   6.523   2.029  11.440  0.0943 -0.2293 -0.1669
16681TIP3    H171534   6.538   2.123  11.443 -0.1445 -0.2024  0.2174
16681TIP3    H271535   6.479   2.014  11.356 -4.2603  0.6705  1.6895
16682TIP3   OH271536   2.934   3.238   4.972 -0.2412  0.1654 -0.0205
16682TIP3    H171537   2.901   3.283   4.894 -3.9909 -1.4159  0.4201
16682TIP3    H271538   2.874   3.264   5.042  0.7769 -1.2852  1.4764
16683TIP3   OH271539   5.839   2.224   6.127  0.8193 -0.1937 -0.6913
16683TIP3    H171540   5.821   2.315   6.148 -1.2197 -0.8225  0.5879
16683TIP3    H271541   5.777   2.174   6.180  2.1342 -2.3623 -1.0539
16684TIP3   OH271542   6.238   2.607   1.173  0.1919 -0.4030 -0.0487
16684TIP3    H171543   6.236   2.695   1.135 -1.6559 -0.8919 -1.2613
16684TIP3    H271544   6.213   2.619   1.264  2.6932  0.5888  0.5685
16685TIP3   OH271545   1.681   6.085   2.161 -0.1154  0.3156  0.0255
16685TIP3    H171546   1.759   6.139   2.169 -0.9590  1.3376  1.9517
16685TIP3    H271547   1.700   6.026   2.087  2.4173  0.5649  0.3933
16686TIP3   OH271548   6.074   6.571   3.296  0.1464 -0.4372 -0.3531
16686TIP3    H171549   6.153   6.526   3.326  0.4994  0.0461 -0.5691
16686TIP3    H271550   6.099   6.662   3.288 -0.6934 -0.1036  0.5297
16687TIP3   OH271551   2.283   5.501  16.866  0.4234  0.2353 -0.1721
16687TIP3    H171552   2.369   5.508  16.906  0.6833  0.6802 -0.7981
16687TIP3    H271553   2.248   5.417  16.898  0.7736  0.4028  0.6715
16688TIP3   OH271554   0.604   1.040   4.376 -0.0518  0.2190 -0.3536
16688TIP3    H171555   0.526   1.092   4.357 -0.3803 -0.2589 -0.3207
16688TIP3    H271556   0.572   0.950   4.384  0.1487  0.2843  1.8711
16689TIP3   OH271557   6.307   6.725   2.934 -0.3230 -0.5008  0.7865
16689TIP3    H171558   6.369   6.771   2.878 -0.2289 -1.4165  0.1008
16689TIP3    H271559   6.228   6.778   2.931  0.3491  0.5635  1.4952
16690TIP3   OH271560   5.625   1.874   1.457  0.3025 -0.0655 -0.3591
16690TIP3    H171561   5.685   1.799   1.460  0.9247  0.4540  0.4692
16690TIP3    H271562   5.658   1.935   1.522 -1.6593 -0.1475  0.8097
16691TIP3   OH271563   3.091   5.682  15.138  0.0620 -0.0850 -0.1743
16691TIP3    H171564   3.150   5.753  15.162  1.8796 -0.6477 -2.5542
16691TIP3    H271565   3.019   5.689  15.200  0.3783  3.5044  0.0097
16692TIP3   OH271566   6.168   2.644  15.883 -0.4120 -0.2225 -0.1297
16692TIP3    H171567   6.174   2.549  15.876  2.1755 -0.1447 -0.1295
16692TIP3    H271568   6.147   2.661  15.975 -0.5862 -0.7855 -0.0646
16693TIP3   OH271569   1.295   5.243   4.414 -0.3653  0.2406  0.1819
16693TIP3    H171570   1.226   5.268   4.352  1.2736  1.2449 -1.3105
16693TIP3    H271571   1.300   5.316   4.476  0.6843  1.1234 -0.9073
16694TIP3   OH271572   3.728   0.395   6.217 -0.0489 -0.0271 -0.3659
16694TIP3    H171573   3.749   0.436   6.133  0.2596  1.5630  0.4566
16694TIP3    H271574   3.790   0.433   6.279 -1.0560 -0.2464  0.8223
16695TIP3   OH271575   3.567   2.842  13.930 -0.5066 -0.0981 -0.4967
16695TIP3    H171576   3.543   2.815  13.841  0.1698 -0.2831 -0.6297
16695TIP3    H271577   3.627   2.773  13.960 -1.2096 -0.3661  0.3364
16696TIP3   OH271578   3.178   1.288   5.858  0.0539 -0.7616  0.8934
16696TIP3    H171579   3.152   1.197   5.841 -0.3143 -0.3067 -1.2131
16696TIP3    H271580   3.273   1.283   5.871  0.7164 -1.0881 -2.9865
16697TIP3   OH271581   2.051   1.735  13.542 -0.1167  0.3839  0.1902
16697TIP3    H171582   1.966   1.776  13.556  0.4830  2.0320 -0.7358
16697TIP3    H271583   2.032   1.657  13.491 -1.1426  0.2893  0.6893
16698TIP3   OH271584   3.612   6.701  13.652 -0.4561  0.3939 -1.0699
16698TIP3    H171585   3.561   6.642  13.707  0.5964  0.7744  0.3839
16698TIP3    H271586   3.547   6.743  13.595 -1.6348  0.2021  0.0901
16699TIP3   OH271587   3.625   3.227  15.651  0.5182 -0.3704  0.1727
16699TIP3    H171588   3.654   3.186  15.570  1.3019  0.4792  0.0115
16699TIP3    H271589   3.534   3.253  15.633  0.5248 -0.6305 -0.2528
16700TIP3   OH271590   5.644   1.709  15.474 -0.1272 -0.0285  0.4531
16700TIP3    H171591   5.665   1.646  15.543 -0.3223  0.4255  0.9261
16700TIP3    H271592   5.565   1.675  15.433  1.1189 -1.4317 -0.9452
16701TIP3   OH271593   5.308   4.603  15.312 -0.7063  0.0145  0.1653
16701TIP3    H171594   5.297   4.560  15.397 -2.4048 -1.7690 -0.8700
16701TIP3    H271595   5.247   4.558  15.254 -0.2974  1.8189 -1.8004
16702TIP3   OH271596   6.656   0.870  14.699 -0.4379 -0.0295 -0.0003
16702TIP3    H171597   6.697   0.910  14.775  1.3419  0.4350 -1.1257
16702TIP3    H271598   6.690   0.919  14.624  0.0290 -2.1374 -1.2827
16703TIP3   OH271599   1.774   1.515  14.462  0.3523  0.3283  0.1137
16703TIP3    H171600   1.797   1.572  14.535 -0.7871  0.6776  0.2239
16703TIP3    H271601   1.678   1.514  14.461  0.3451 -0.9502 -0.3883
16704TIP3   OH271602   6.797   1.740   0.207  0.1950 -0.1588 -0.0290
16704TIP3    H171603   6.777   1.734   0.113  0.0957  2.0054 -0.2021
16704TIP3    H271604   6.752   1.665   0.246  0.5385 -1.3180 -1.7373
16705TIP3   OH271605   5.765   5.428   0.240  0.6943  0.0196  0.8228
16705TIP3    H171606   5.742   5.375   0.164 -1.0148  1.8133 -0.0047
16705TIP3    H271607   5.843   5.477   0.213 -1.5386  2.8513 -1.0463
16706TIP3   OH271608   2.715   0.546   4.647 -0.2412  0.1267  0.1142
16706TIP3    H171609   2.725   0.578   4.736 -0.1789 -3.5778  1.6111
16706TIP3    H271610   2.804   0.524   4.619 -0.1010  2.2944 -1.4230
16707TIP3   OH271611   3.862   0.714  11.097  0.6532 -0.6988  0.8111
16707TIP3    H171612   3.809   0.748  11.169 -1.0680 -0.1482 -0.6183
16707TIP3    H271613   3.916   0.787  11.070  1.2129 -0.8705  1.4470
16708TIP3   OH271614   5.355   4.230   1.157 -0.4123 -0.3973  0.5267
16708TIP3    H171615   5.324   4.143   1.182  0.6873 -0.5942  1.2751
16708TIP3    H271616   5.296   4.257   1.086 -1.2065 -1.4451  0.7584
16709TIP3   OH271617   3.383   6.351  14.223  0.0039  0.3066 -0.4145
16709TIP3    H171618   3.350   6.431  14.265 -1.4311 -0.6831  0.4400
16709TIP3    H271619   3.465   6.333  14.268 -0.4240  0.4791  0.4671
16710TIP3   OH271620   3.513   5.934  12.030 -0.5881  0.2912 -0.5330
16710TIP3    H171621   3.581   5.879  11.991 -0.8705 -0.0197 -0.5934
16710TIP3    H271622   3.467   5.876  12.090 -0.1406  0.7708  0.2948
16711TIP3   OH271623   2.610   1.311  12.495 -0.3781  0.5681  0.5091
16711TIP3    H171624   2.594   1.279  12.584  2.4205 -3.3038 -0.0971
16711TIP3    H271625   2.701   1.338  12.495 -0.0537 -0.3615 -1.3103
16712TIP3   OH271626   2.151   1.366   2.863  0.1025 -0.1865  0.3756
16712TIP3    H171627   2.204   1.441   2.890 -0.4587  0.6345 -0.7196
16712TIP3    H271628   2.170   1.355   2.770 -1.0585 -0.3670  0.1425
16713TIP3   OH271629   6.005   4.386   1.333 -0.0397  0.5314 -0.0626
16713TIP3    H171630   6.074   4.363   1.271 -0.6787 -0.0545 -0.5711
16713TIP3    H271631   6.020   4.329   1.408  0.7908  1.3058  0.3820
16714TIP3   OH271632   6.025   0.341  16.425 -0.1520  0.2921  0.3197
16714TIP3    H171633   5.943   0.310  16.463  0.0081  1.4452  1.6819
16714TIP3    H271634   6.003   0.422  16.380 -0.0123 -0.1745 -0.6235
16715TIP3   OH271635   4.573   6.361   2.098  0.1631 -0.1786  0.1073
16715TIP3    H171636   4.548   6.440   2.146  1.1210 -1.1467  2.3460
16715TIP3    H271637   4.543   6.377   2.008 -2.1437  1.5298  1.0952
16716TIP3   OH271638   0.673   1.599   1.869 -0.0516  0.0486  0.1598
16716TIP3    H171639   0.662   1.508   1.894 -0.3459 -0.0922 -0.4630
16716TIP3    H271640   0.586   1.626   1.837  0.2605  0.2731 -0.5271
16717TIP3   OH271641   1.054   1.582   3.035  0.0312  0.1799  0.2888
16717TIP3    H171642   1.116   1.509   3.026 -1.9280 -1.3570 -1.8799
16717TIP3    H271643   1.052   1.623   2.949 -1.3739  0.6640  0.5229
16718TIP3   OH271644   0.546   6.244   2.781 -0.3533 -0.0510 -0.5034
16718TIP3    H171645   0.551   6.150   2.763 -0.9775 -0.1657 -0.1058
16718TIP3    H271646   0.622   6.262   2.835 -0.5963 -0.4643 -0.0188
16719TIP3   OH271647   0.800   6.768  16.276 -0.2731 -0.6522  0.1401
16719TIP3    H171648   0.890   6.739  16.258  0.3574  0.4321  1.3737
16719TIP3    H271649   0.787   6.749  16.369 -0.9442  0.1698  0.2211
16720TIP3   OH271650   1.761   0.098  16.990  0.1605 -0.7930  0.6934
16720TIP3    H171651   1.704   0.174  16.985 -0.6062 -1.4273 -1.3237
16720TIP3    H271652   1.846   0.133  17.017  0.3367  1.1471 -1.9927
16721TIP3   OH271653   4.257   5.294   0.070  0.1333 -0.0722  0.4442
16721TIP3    H171654   4.187   5.343   0.113 -0.9143  0.5628 -1.8615
16721TIP3    H271655   4.226   5.204   0.070 -0.9101  0.2574 -0.8859
16722TIP3   OH271656   5.693   2.312   0.098  0.2479  0.2181  0.4279
16722TIP3    H171657   5.691   2.405   0.121 -1.5963  0.3041  0.1149
16722TIP3    H271658   5.703   2.312   0.003 -1.5639  0.2017  0.1980
16723TIP3   OH271659   2.145   1.236  12.183 -0.1780 -0.2811  0.7341
16723TIP3    H171660   2.075   1.185  12.142  1.6102  0.0655 -3.1642
16723TIP3    H271661   2.146   1.318  12.135  0.8156  1.0968  2.9587
16724TIP3   OH271662   2.188   2.785   4.841 -0.4790 -0.3317 -0.6029
16724TIP3    H171663   2.121   2.751   4.781 -1.6114 -1.5585  1.2646
16724TIP3    H271664   2.190   2.722   4.913  2.0574  0.1822 -0.1369
16725TIP3   OH271665   4.461   5.988  11.574  0.2823  0.0853  0.2299
16725TIP3    H171666   4.458   5.963  11.667 -0.3077  2.0246  0.7772
16725TIP3    H271667   4.482   5.906  11.528 -0.4210 -1.1352  1.9664
16726TIP3   OH271668   2.829   4.708  11.876 -0.1804 -0.2301 -0.0726
16726TIP3    H171669   2.792   4.781  11.926 -1.5979 -0.7803 -0.2717
16726TIP3    H271670   2.754   4.652  11.858  0.6349 -0.9656 -1.2500
16727TIP3   OH271671   5.275   4.846  11.237 -0.0678 -0.5193  0.6426
16727TIP3    H171672   5.323   4.878  11.160 -1.3834 -2.2006 -0.9799
16727TIP3    H271673   5.342   4.811  11.295  0.9464  0.6158  0.1899
16728TIP3   OH271674   3.558   1.421   5.701 -0.5930  0.0703  0.0515
16728TIP3    H171675   3.609   1.350   5.662 -1.2247 -0.4008  0.0760
16728TIP3    H271676   3.520   1.383   5.780 -0.1108  0.7385  0.6153
16729TIP3   OH271677   4.850   2.717  15.472  0.0848  0.1100  0.6533
16729TIP3    H171678   4.842   2.812  15.473  0.7135  0.1724  1.7103
16729TIP3    H271679   4.765   2.685  15.502  0.1906  0.3864  1.2696
16730TIP3   OH271680   0.800   5.797   3.564 -0.3417  0.1594  0.0073
16730TIP3    H171681   0.784   5.782   3.657  4.2174  1.1351  1.2197
16730TIP3    H271682   0.793   5.892   3.554 -0.0071  0.1391 -0.4306
16731TIP3   OH271683   1.284   6.400  16.506 -0.1857  0.0458 -0.3381
16731TIP3    H171684   1.189   6.407  16.508 -0.1593  0.4202 -0.2524
16731TIP3    H271685   1.315   6.470  16.563  0.1612  0.4717 -1.0270
16732TIP3   OH271686   1.771   2.287   4.803  0.1762  0.2161  0.2281
16732TIP3    H171687   1.812   2.360   4.757  2.2978 -0.0811  1.4991
16732TIP3    H271688   1.677   2.300   4.792  0.5294  2.6381 -0.3146
16733TIP3   OH271689   0.557   4.900  12.839 -0.2729 -0.3236 -0.0444
16733TIP3    H171690   0.520   4.989  12.843 -0.1626 -0.2324 -0.9255
16733TIP3    H271691   0.648   4.913  12.813 -0.0210 -0.6502  0.6483
16734TIP3   OH271692   4.793   6.685   2.803 -0.0121 -0.3501 -0.2932
16734TIP3    H171693   4.866   6.625   2.787  0.8619  0.5910  0.0699
16734TIP3    H271694   4.762   6.708   2.715 -0.7476 -1.7566 -0.4371
16735TIP3   OH271695   5.025   5.933   1.266 -0.1703  0.0401 -0.1253
16735TIP3    H171696   5.097   5.912   1.208  1.2005  0.6174  1.3008
16735TIP3    H271697   4.975   5.851   1.273  0.1870 -0.2890 -1.3286
16736TIP3   OH271698   4.520   3.214   1.078  0.0385 -0.3917 -0.4735
16736TIP3    H171699   4.580   3.138   1.077 -1.6031 -1.7500 -0.3731
16736TIP3    H271700   4.536   3.258   0.995 -1.3414 -2.8662 -2.2118
16737TIP3   OH271701   2.771   0.686   1.752 -0.1354  0.0433 -0.0015
16737TIP3    H171702   2.777   0.756   1.818  0.4392 -0.7502  0.8107
16737TIP3    H271703   2.770   0.605   1.803 -3.8043 -0.5450 -0.7018
16738TIP3   OH271704   2.152   3.646  12.101 -0.4721  0.4606  0.0188
16738TIP3    H171705   2.224   3.633  12.040  0.6779 -1.6400  1.7015
16738TIP3    H271706   2.175   3.725  12.150  1.3166 -0.7814  1.2839
16739TIP3   OH271707   4.739   5.682   2.546 -0.3781  0.0506  0.3957
16739TIP3    H171708   4.662   5.652   2.594 -0.2371  0.5766  0.9695
16739TIP3    H271709   4.744   5.624   2.470  0.0188 -1.5153  1.5665
16740TIP3   OH271710   5.111   1.529   0.893  0.6182  0.2098  0.2978
16740TIP3    H171711   5.132   1.440   0.865 -1.5731  0.2641 -1.8142
16740TIP3    H271712   5.156   1.585   0.830 -0.9944  0.4584 -0.6681
16741TIP3   OH271713   5.634   5.800  12.760  0.4042 -0.0617 -0.2534
16741TIP3    H171714   5.698   5.869  12.743 -1.7780  2.2519  0.1329
16741TIP3    H271715   5.661   5.761  12.843  0.9185  1.3849  0.2957
16742TIP3   OH271716   2.258   5.469  11.990  0.4899 -0.5623 -0.1102
16742TIP3    H171717   2.257   5.492  12.083 -3.1898  1.2647 -0.3953
16742TIP3    H271718   2.181   5.414  11.979  0.8207 -0.6907 -2.0961
16743TIP3   OH271719   3.587   4.453   5.384  0.3340  0.1578  0.4797
16743TIP3    H171720   3.589   4.384   5.451 -0.0674 -1.4325 -1.0958
16743TIP3    H271721   3.506   4.438   5.336  0.5509  1.3647 -0.3015
16744TIP3   OH271722   0.602   3.930   5.518  0.0359  0.4716  0.5281
16744TIP3    H171723   0.567   3.981   5.445  0.4748 -0.6605 -0.5021
16744TIP3    H271724   0.603   3.840   5.486  0.3131 -0.0385  1.9109
16745TIP3   OH271725   1.099   4.106  11.669 -0.4184 -0.6181 -0.1250
16745TIP3    H171726   1.156   4.063  11.606  0.1245  0.0923 -0.1329
16745TIP3    H271727   1.095   4.197  11.640 -2.0360 -0.7635 -0.4636
16746TIP3   OH271728   0.960   4.800   3.173  0.2554 -0.1747 -0.3706
16746TIP3    H171729   0.979   4.890   3.200 -0.6992 -0.4784  1.4689
16746TIP3    H271730   0.886   4.809   3.113 -1.2685  0.1827  1.4542
16747TIP3   OH271731   3.392   6.517  13.501  0.5288  0.1215 -0.2433
16747TIP3    H171732   3.303   6.488  13.518  0.2182  1.7835  1.3237
16747TIP3    H271733   3.383   6.600  13.455  1.2368  0.4359  0.1551
16748TIP3   OH271734   4.209   5.551  12.112 -0.4147  0.3217  0.0739
16748TIP3    H171735   4.173   5.614  12.174 -1.2531  0.4123 -0.4806
16748TIP3    H271736   4.198   5.466  12.154 -2.7732  0.1660 -0.6888
16749TIP3   OH271737   6.346   0.570  11.409 -0.9787  0.0682 -0.0327
16749TIP3    H171738   6.380   0.658  11.424 -2.6362  0.9378 -1.1301
16749TIP3    H271739   6.400   0.535  11.339 -0.0136  0.0011  0.7178
16750TIP3   OH271740   0.896   2.991  14.466 -0.1630 -0.4039  0.1730
16750TIP3    H171741   0.972   2.942  14.435 -0.7735 -1.0307 -0.3324
16750TIP3    H271742   0.870   2.947  14.547 -0.4453 -0.6542 -0.0522
16751TIP3   OH271743   0.463   4.621  15.809 -0.2523  0.2734  0.2105
16751TIP3    H171744   0.389   4.668  15.847 -0.5535  0.6754 -0.8594
16751TIP3    H271745   0.537   4.682  15.818 -0.2798  0.2887  0.3326
16752TIP3   OH271746   3.440   4.055   1.034  0.8883 -0.1552 -0.3053
16752TIP3    H171747   3.367   4.081   0.978 -0.1398  1.0432  1.4819
16752TIP3    H271748   3.411   3.974   1.076  0.4344  0.4433  0.5811
16753TIP3   OH271749   3.205   4.234  12.665  0.4089  0.1563 -0.3834
16753TIP3    H171750   3.280   4.175  12.671  0.8561  0.6964 -0.6272
16753TIP3    H271751   3.158   4.205  12.587  1.5466  1.1576 -1.4878
16754TIP3   OH271752   2.508   0.723   1.630 -0.2346  0.6616  0.4384
16754TIP3    H171753   2.475   0.793   1.685 -0.4829 -0.2303  1.4638
16754TIP3    H271754   2.598   0.709   1.660 -0.6404 -0.3997  1.2523
16755TIP3   OH271755   5.717   6.803  16.504 -0.2108 -1.1508 -0.1880
16755TIP3    H171756   5.688   6.725  16.456  2.6952 -1.8893 -0.9655
16755TIP3    H271757   5.747   6.770  16.588 -2.6069 -0.2487  1.0956
16756TIP3   OH271758   5.934   2.769   1.075  0.0219 -0.3613 -0.7501
16756TIP3    H171759   5.881   2.837   1.033  0.3429 -0.2269 -0.9470
16756TIP3    H271760   6.012   2.815   1.106  0.8306 -0.8399 -1.9979
16757TIP3   OH271761   5.451   4.915  11.990 -0.0930 -0.3125 -0.2363
16757TIP3    H171762   5.495   4.830  11.982  0.3511 -0.0022 -1.1721
16757TIP3    H271763   5.392   4.918  11.915  0.0646  0.3001 -0.3398
16758TIP3   OH271764   3.989   1.897  16.455 -0.5426  0.0584  1.1358
16758TIP3    H171765   3.903   1.914  16.495 -0.6720 -0.7899  1.2364
16758TIP3    H271766   4.024   1.824  16.506 -0.3105 -0.4371  0.2767
16759TIP3   OH271767   6.606   2.911  15.056  0.2449  0.5132  0.1322
16759TIP3    H171768   6.627   2.844  15.121  1.0113 -0.0241 -0.6655
16759TIP3    H271769   6.516   2.890  15.029 -0.8170  1.8148  2.2952
16760TIP3   OH271770   4.597   6.483  16.271 -0.9949 -0.6460 -0.6169
16760TIP3    H171771   4.534   6.411  16.271 -0.6452 -0.9956  1.0943
16760TIP3    H271772   4.581   6.529  16.353 -0.0599  0.2027 -0.8892
16761TIP3   OH271773   4.228   5.301  12.236 -0.1950  0.0900 -0.2851
16761TIP3    H171774   4.262   5.336  12.318 -1.2177  0.7143 -0.1087
16761TIP3    H271775   4.287   5.229  12.214 -0.2481 -0.4660  1.2831
16762TIP3   OH271776   1.005   4.898  15.673 -0.2157 -0.5069 -0.1877
16762TIP3    H171777   1.057   4.822  15.697 -0.0887 -1.0065 -1.8719
16762TIP3    H271778   0.979   4.938  15.756  0.6387 -1.7541  0.7053
16763TIP3   OH271779   4.652   2.995  12.921 -0.7714 -0.2630 -0.0176
16763TIP3    H171780   4.575   3.019  12.974  0.1975 -0.3306  1.4917
16763TIP3    H271781   4.652   3.057  12.849 -0.5412  1.8061  1.6554
16764TIP3   OH271782   5.959   6.816  15.098  0.2945  0.4327 -0.3693
16764TIP3    H171783   5.902   6.758  15.048  2.4460 -1.1287 -1.1574
16764TIP3    H271784   5.935   6.800  15.189 -0.1995 -0.5597 -0.6531
16765TIP3   OH271785   2.214   4.317   0.418  0.6831 -0.3404  0.0197
16765TIP3    H171786   2.274   4.243   0.412  0.5649 -0.4706  0.4254
16765TIP3    H271787   2.127   4.279   0.412  0.6273  0.0107 -2.3528
16766TIP3   OH271788   2.479   6.406  10.786  0.3037  0.4045 -0.1908
16766TIP3    H171789   2.512   6.495  10.801  0.9597  0.0550  0.4985
16766TIP3    H271790   2.531   6.373  10.713 -0.4233  0.8247 -0.9173
16767TIP3   OH271791   2.375   2.468   0.247  0.3410  0.6251  0.5250
16767TIP3    H171792   2.341   2.508   0.167  0.8438 -0.0111 -0.0236
16767TIP3    H271793   2.454   2.421   0.218  0.5484  0.4173  1.4032
16768TIP3   OH271794   2.887   0.135   1.211 -0.1621  0.1291  0.7834
16768TIP3    H171795   2.806   0.107   1.254 -0.9958  1.3516  0.0660
16768TIP3    H271796   2.913   0.060   1.158 -1.7485  0.2649 -0.2672
16769TIP3   OH271797   2.925   3.726  12.381  0.8300 -0.7230 -0.3262
16769TIP3    H171798   2.837   3.712  12.416  0.4113  0.1164 -0.9985
16769TIP3    H271799   2.955   3.638  12.356 -0.0319 -0.9541 -0.5686
16770TIP3   OH271800   6.457   3.632   2.228  0.1519 -0.0261  0.0707
16770TIP3    H171801   6.506   3.703   2.269  0.2106 -0.7978  1.4062
16770TIP3    H271802   6.489   3.552   2.271 -0.0124 -0.8629 -1.2794
16771TIP3   OH271803   6.657   0.679  11.272  0.0291 -0.0998 -0.2312
16771TIP3    H171804   6.588   0.635  11.222 -2.3558  1.6068  1.3498
16771TIP3    H271805   6.625   0.768  11.284  1.3388  0.0862  2.7106
16772TIP3   OH271806   1.362   5.527   6.252 -0.6154  0.6709  0.2889
16772TIP3    H171807   1.367   5.612   6.296  0.8495  0.2434  1.0018
16772TIP3    H271808   1.420   5.534   6.177 -2.7190  1.2203 -1.3871
16773TIP3   OH271809   6.548   2.210  13.978 -0.3517 -0.1678  0.0524
16773TIP3    H171810   6.532   2.223  13.885  0.5635  2.8915  0.2126
16773TIP3    H271811   6.464   2.229  14.020 -1.1053 -2.7294 -0.1156
16774TIP3   OH271812   4.409   5.184  15.035  0.5513 -0.2029 -0.3501
16774TIP3    H171813   4.384   5.152  15.121 -0.4058  1.0799 -0.1140
16774TIP3    H271814   4.504   5.197  15.041  0.5177 -0.3020  0.4593
16775TIP3   OH271815   2.768   6.248  16.403  0.5177  0.0659 -0.6610
16775TIP3    H171816   2.745   6.263  16.495  0.4636  0.2069 -0.6963
16775TIP3    H271817   2.808   6.331  16.375 -0.4643  0.4240 -1.0736
16776TIP3   OH271818   1.259   1.295   0.081  0.2272 -0.4130 -0.5797
16776TIP3    H171819   1.240   1.239   0.006  1.3214 -0.9346 -0.4805
16776TIP3    H271820   1.299   1.373   0.043  0.1221 -0.3632 -0.5896
16777TIP3   OH271821   0.015   3.787   0.287  0.2773  0.6885  0.0283
16777TIP3    H171822  -0.054   3.852   0.272  0.2421  0.6069 -0.1632
16777TIP3    H271823  -0.028   3.717   0.336 -0.2119 -0.1516 -1.5317
16778TIP3   OH271824   3.168   6.531   0.630  0.2558  0.9768  0.0777
16778TIP3    H171825   3.247   6.543   0.579  1.3038 -2.1940  0.7618
16778TIP3    H271826   3.199   6.514   0.719 -1.2082  0.1869  0.4660
16779TIP3   OH271827   2.068   2.954  15.365  0.0133 -0.2405 -0.5145
16779TIP3    H171828   2.127   2.939  15.291 -0.9840 -1.0196 -1.1994
16779TIP3    H271829   2.077   2.875  15.419  1.7916  0.9348  0.9941
16780TIP3   OH271830   4.771   2.905   0.515  0.0997 -0.3681 -0.1587
16780TIP3    H171831   4.756   2.816   0.483 -1.6340  0.3390 -1.4424
16780TIP3    H271832   4.722   2.910   0.597  0.3069 -0.6265 -0.0173
16781TIP3   OH271833   6.636   5.821  14.064  0.3527 -0.0805  0.3312
16781TIP3    H171834   6.560   5.878  14.057 -0.8526 -1.4681  1.4966
16781TIP3    H271835   6.603   5.734  14.039  2.1541 -0.3066 -1.5096
16782TIP3   OH271836   5.294   3.626   5.890 -0.0578  0.3187 -0.5403
16782TIP3    H171837   5.276   3.718   5.871 -0.5923  0.0686 -1.2706
16782TIP3    H271838   5.208   3.585   5.892  0.0528  0.0774  1.2058
16783TIP3   OH271839   4.515   2.261  17.166 -0.1718 -0.5659 -0.5230
16783TIP3    H171840   4.530   2.337  17.110 -0.0717 -1.3966 -1.6626
16783TIP3    H271841   4.486   2.298  17.249  2.0871  0.8361 -0.2642
16784TIP3   OH271842   5.623   4.332   4.196 -0.2559  0.0549 -0.2004
16784TIP3    H171843   5.709   4.341   4.236 -0.8053 -0.7965  1.2194
16784TIP3    H271844   5.580   4.416   4.212  0.2009  0.3804 -0.6653
16785TIP3   OH271845   3.643   0.191   6.378 -0.5091  0.1030 -0.1246
16785TIP3    H171846   3.727   0.170   6.420 -0.8063 -0.5417  0.1623
16785TIP3    H271847   3.665   0.257   6.313  0.1278  0.3768  0.3562
16786TIP3   OH271848   2.265   5.786  12.118  0.0873  0.0593 -0.2257
16786TIP3    H171849   2.281   5.835  12.199 -0.7469 -1.1838  0.7350
16786TIP3    H271850   2.352   5.765  12.085  0.4442  0.2548  0.5645
16787TIP3   OH271851   1.906   6.108   0.693 -0.3043  0.2671  0.0265
16787TIP3    H171852   1.949   6.074   0.614  1.1563 -1.3869  1.4492
16787TIP3    H271853   1.818   6.070   0.689 -0.9765  1.8443 -1.7657
16788TIP3   OH271854   4.186   4.709   3.583 -0.4278 -0.3022 -0.9481
16788TIP3    H171855   4.195   4.767   3.508 -0.6568  0.5903 -0.2961
16788TIP3    H271856   4.219   4.759   3.658 -1.7445 -0.5375 -0.1701
16789TIP3   OH271857   2.825   0.709  13.331 -0.2841 -0.5587 -0.0264
16789TIP3    H171858   2.851   0.723  13.240  0.2683  1.0034  0.3469
16789TIP3    H271859   2.788   0.792  13.360  0.5950 -0.6416  1.5073
16790TIP3   OH271860   6.695   6.520   3.739 -0.2772  0.3946 -0.2840
16790TIP3    H171861   6.606   6.548   3.761 -0.1617  1.4847 -1.0770
16790TIP3    H271862   6.728   6.589   3.681  0.2680 -1.0867 -1.8546
16791TIP3   OH271863   3.943   0.183   6.346 -1.0011 -0.3107  0.2054
16791TIP3    H171864   4.011   0.149   6.403 -0.5395 -0.1671 -0.2461
16791TIP3    H271865   3.914   0.264   6.389 -0.3405  0.0348  0.0135
16792TIP3   OH271866   3.285   5.953   5.323  0.2637 -0.4185  0.0321
16792TIP3    H171867   3.204   5.909   5.349  0.7339 -2.3014 -1.4793
16792TIP3    H271868   3.326   5.976   5.406 -2.0299  1.1039  0.8449
16793TIP3   OH271869   2.752   4.920   1.635 -1.2592  0.2275 -0.4168
16793TIP3    H171870   2.703   4.841   1.660 -1.4257 -0.3641 -2.4451
16793TIP3    H271871   2.841   4.903   1.666 -1.8437  0.4408  1.5204
16794TIP3   OH271872   3.187   2.670  13.035 -0.1182 -0.1484 -0.4360
16794TIP3    H171873   3.180   2.589  12.984  0.1117 -1.1078  1.0038
16794TIP3    H271874   3.276   2.669  13.071  0.0285  0.9549 -0.7149
16795TIP3   OH271875   5.392   3.799   4.865 -0.1793 -0.5456  0.1329
16795TIP3    H171876   5.352   3.818   4.780 -1.4509 -0.7464  0.6534
16795TIP3    H271877   5.377   3.705   4.877  0.3927 -0.6078  0.3886
16796TIP3   OH271878   0.200   6.156   2.668 -0.9837 -0.2517  0.4669
16796TIP3    H171879   0.142   6.169   2.743 -2.5288 -1.1418 -0.5261
16796TIP3    H271880   0.198   6.062   2.652 -0.3764 -0.1245 -0.4498
16797TIP3   OH271881   3.433   3.965   3.141  0.4415  0.0022 -0.3569
16797TIP3    H171882   3.493   3.927   3.205 -0.6555 -3.5329 -1.2278
16797TIP3    H271883   3.374   4.020   3.193  1.7143  0.0472  1.1091
16798TIP3   OH271884   1.505   6.559  13.697  0.0915 -0.0604  0.3684
16798TIP3    H171885   1.464   6.514  13.623 -0.0115  0.8471 -0.1305
16798TIP3    H271886   1.598   6.564  13.673 -0.4086  3.3919 -1.4237
16799TIP3   OH271887   4.047   0.220   3.088  0.4044  0.2567  0.2095
16799TIP3    H171888   3.960   0.181   3.088  0.9617 -1.0459 -0.3529
16799TIP3    H271889   4.065   0.240   3.180  0.6563 -2.1545  0.7301
16800TIP3   OH271890   5.971   3.501  15.942  0.2548  0.0044  0.5572
16800TIP3    H171891   6.026   3.539  15.873  1.9501 -1.8787  0.7728
16800TIP3    H271892   5.910   3.445  15.895  0.2839  0.0423  0.4732
16801TIP3   OH271893   2.361   1.798   5.498  0.3874 -0.2662 -0.0225
16801TIP3    H171894   2.434   1.740   5.475  1.6656  0.4210  2.0060
16801TIP3    H271895   2.332   1.767   5.584 -0.8013  0.3646 -0.1775
16802TIP3   OH271896   3.850   2.412  15.435 -0.5387  0.1075  0.1553
16802TIP3    H171897   3.774   2.358  15.415 -0.5698 -0.1762  1.0233
16802TIP3    H271898   3.900   2.413  15.353 -0.8902 -0.6608 -0.0818
16803TIP3   OH271899   2.807   4.765   0.547  0.3290  0.7001 -0.2461
16803TIP3    H171900   2.846   4.692   0.500  1.1378  0.3382  0.9456
16803TIP3    H271901   2.880   4.810   0.589 -0.4162  0.4657  1.3936
16804TIP3   OH271902   6.738   2.084  14.985 -0.3012 -0.3683 -0.0372
16804TIP3    H171903   6.684   2.054  14.912  0.3427  0.3896 -0.8485
16804TIP3    H271904   6.789   2.156  14.949 -0.8070  0.8118  1.4801
16805TIP3   OH271905   5.928   3.035   2.430  0.3594  0.5381  0.1554
16805TIP3    H171906   5.901   3.111   2.380 -0.4286  1.3632  1.7440
16805TIP3    H271907   6.017   3.016   2.400 -0.2320  0.6999 -1.8107
16806TIP3   OH271908   3.380   3.134  13.680 -0.5580  0.4354  0.1791
16806TIP3    H171909   3.406   3.120  13.771 -0.8045  0.2651  0.2244
16806TIP3    H271910   3.392   3.048  13.639  1.8206  1.0157 -0.5340
16807TIP3   OH271911   3.397   0.732   0.537  0.5261  0.0386  0.1894
16807TIP3    H171912   3.370   0.799   0.600 -1.0060 -1.2736  0.9955
16807TIP3    H271913   3.407   0.779   0.454 -5.3026  0.7387 -0.5233
16808TIP3   OH271914   1.223   5.036   3.313 -0.3162 -0.3182  0.2886
16808TIP3    H171915   1.249   5.127   3.330  0.3853 -0.4473 -0.0675
16808TIP3    H271916   1.133   5.030   3.347 -0.0802  0.2900  1.0456
16809TIP3   OH271917   4.738   6.246  15.063  0.2681  0.5476  0.0409
16809TIP3    H171918   4.770   6.162  15.095 -0.8822  0.5963  1.4586
16809TIP3    H271919   4.803   6.275  15.000  1.4193 -0.7334  0.5984
16810TIP3   OH271920   4.447   0.132   2.716  0.2770 -0.1914 -0.2775
16810TIP3    H171921   4.461   0.063   2.651  0.0910  1.1727 -1.8449
16810TIP3    H271922   4.516   0.119   2.780  0.1716 -1.8953 -0.4474
16811TIP3   OH271923   0.606   1.154   2.064  0.0082 -0.2258  0.7721
16811TIP3    H171924   0.682   1.124   2.014  0.3857 -1.8384  2.2361
16811TIP3    H271925   0.535   1.158   1.999  1.4548  2.1644 -0.8194
16812TIP3   OH271926   0.264   6.020  14.189  0.5086 -0.0510 -0.0702
16812TIP3    H171927   0.183   5.969  14.186  0.6962 -0.3564  0.0771
16812TIP3    H271928   0.254   6.074  14.268  0.1574  0.3987 -0.4184
16813TIP3   OH271929   0.684   1.764  11.524 -0.0395  0.3538 -0.5390
16813TIP3    H171930   0.624   1.699  11.560  0.1231  0.9637  0.8839
16813TIP3    H271931   0.664   1.845  11.571  0.9060  0.9308 -1.0775
16814TIP3   OH271932   6.787   6.817   0.275 -0.8743 -0.4413  0.4179
16814TIP3    H171933   6.742   6.766   0.208 -0.9379  0.2982 -0.1186
16814TIP3    H271934   6.752   6.906   0.265 -0.0335 -0.0717  0.6514
16815TIP3   OH271935   6.294   4.178  12.046 -0.3850  0.2769  0.4334
16815TIP3    H171936   6.282   4.083  12.043  0.4351  0.1731  0.1586
16815TIP3    H271937   6.344   4.199  11.967 -0.7412  0.9682  0.3802
16816TIP3   OH271938   3.764   3.059   5.576 -0.1438  0.1691  0.4635
16816TIP3    H171939   3.693   3.050   5.640 -0.7866 -2.6723 -0.5080
16816TIP3    H271940   3.746   2.992   5.511  2.0804  1.0681 -1.1980
16817TIP3   OH271941   0.005   4.599   1.295 -0.2813  0.0783 -0.1474
16817TIP3    H171942  -0.022   4.657   1.366  0.9763 -1.8679  2.0706
16817TIP3    H271943  -0.076   4.558   1.265 -0.8398  0.9059  0.2108
16818TIP3   OH271944   5.487   4.445  13.278  0.1884 -0.2551  0.1053
16818TIP3    H171945   5.523   4.448  13.366 -2.0641 -0.4680  1.0972
16818TIP3    H271946   5.497   4.354  13.251  2.7674  0.2113 -0.7677
16819TIP3   OH271947   1.618   2.307  12.082  0.1920 -0.1221 -0.5322
16819TIP3    H171948   1.583   2.345  12.163  2.2641 -0.7281  0.7241
16819TIP3    H271949   1.568   2.226  12.071 -0.3266  0.1160 -0.0511
16820TIP3   OH271950   3.619   6.531  12.888 -0.3858  0.1943 -0.0637
16820TIP3    H171951   3.559   6.577  12.946  0.3089  1.6406 -0.4285
16820TIP3    H271952   3.618   6.583  12.807  0.7846 -0.1750 -0.3372
16821TIP3   OH271953   0.971   6.713   3.112  0.7969 -0.2646  0.2144
16821TIP3    H171954   0.938   6.634   3.154 -0.9378  0.8225  1.0505
16821TIP3    H271955   1.017   6.760   3.181  1.3452 -0.2907 -0.1310
16822TIP3   OH271956   1.532   5.186  15.138  0.1072 -0.1832  0.2619
16822TIP3    H171957   1.511   5.277  15.158  0.2637 -0.0843 -0.0274
16822TIP3    H271958   1.579   5.189  15.054 -1.3953 -0.6878 -0.6280
16823TIP3   OH271959   4.735   1.378  15.418 -0.5080  0.1727  0.6113
16823TIP3    H171960   4.682   1.325  15.477 -1.1973 -0.1437 -0.2727
16823TIP3    H271961   4.672   1.419  15.359  0.2892 -1.8587 -1.8354
16824TIP3   OH271962   5.438   2.592  16.973 -0.2073 -0.0048  1.0019
16824TIP3    H171963   5.502   2.624  16.910  0.7490 -0.7734  1.5616
16824TIP3    H271964   5.446   2.652  17.048  0.0790 -0.2875  1.1980
16825TIP3   OH271965   3.239   1.105   5.073  0.3785  0.9695  0.1764
16825TIP3    H171966   3.285   1.029   5.037 -0.2978  0.2937  0.6948
16825TIP3    H271967   3.151   1.100   5.036  0.2374  1.3214  0.4547
16826TIP3   OH271968   2.790   4.085  12.974 -0.0263 -0.3775 -0.1036
16826TIP3    H171969   2.712   4.140  12.972  0.1597 -0.1055 -0.1023
16826TIP3    H271970   2.762   4.002  13.012 -0.7447 -0.9631 -1.8274
16827TIP3   OH271971   4.368   0.766   3.958 -0.3286  0.0468  0.0759
16827TIP3    H171972   4.370   0.859   3.979  0.5943  0.1166 -0.2519
16827TIP3    H271973   4.434   0.727   4.015 -0.8230 -0.4383  0.3254
16828TIP3   OH271974   0.582   5.348  11.514 -0.2954 -0.0743 -0.1801
16828TIP3    H171975   0.501   5.399  11.520  0.4415  0.9694  1.4864
16828TIP3    H271976   0.635   5.395  11.450 -0.5008 -0.0363 -0.3222
16829TIP3   OH271977   2.308   1.108   5.750  0.7724  0.2123 -0.1747
16829TIP3    H171978   2.399   1.125   5.728  1.0992 -2.1828 -0.9852
16829TIP3    H271979   2.298   1.143   5.839  2.7423 -0.1910  0.2577
16830TIP3   OH271980   2.906   4.146  11.351  0.5450 -0.0132  0.0896
16830TIP3    H171981   2.968   4.083  11.387 -0.6750 -1.3771 -0.0706
16830TIP3    H271982   2.870   4.191  11.427 -0.1403 -1.0655  0.4152
16831TIP3   OH271983   1.173   1.442  15.547  0.0435 -0.2625 -0.3086
16831TIP3    H171984   1.191   1.528  15.511 -0.1211 -0.0143  0.1839
16831TIP3    H271985   1.143   1.459  15.637 -0.7309 -0.7722 -0.4542
16832TIP3   OH271986   1.780   3.702   2.632  0.1251 -0.2340  0.1737
16832TIP3    H171987   1.872   3.724   2.650  1.5427 -3.9593 -1.3949
16832TIP3    H271988   1.753   3.652   2.709 -1.0964  1.8364  1.1624
16833TIP3   OH271989   3.474   4.084   5.387 -0.3678 -0.0378  0.7284
16833TIP3    H171990   3.453   4.041   5.304 -0.4063  2.2272 -0.5157
16833TIP3    H271991   3.565   4.059   5.404 -1.0652 -2.4735  1.3500
16834TIP3   OH271992   5.891   0.591   3.089 -0.1977 -0.0180 -0.1930
16834TIP3    H171993   5.894   0.530   3.016 -1.4427 -2.3884  1.6067
16834TIP3    H271994   5.810   0.640   3.077 -0.7714 -0.9202 -0.0008
16835TIP3   OH271995   4.010   5.569   5.473  0.3837  0.0944 -0.0835
16835TIP3    H171996   4.077   5.503   5.492  0.6245  0.7756  1.5776
16835TIP3    H271997   3.927   5.527   5.495  0.3893 -0.2001 -0.6059
16836TIP3   OH271998   1.557   5.483  13.159  0.7941 -0.6640 -0.1809
16836TIP3    H171999   1.533   5.400  13.199 -1.8118 -0.1197 -0.4476
16836TIP3    H272000   1.481   5.539  13.172  2.2203  1.5047 -0.5662
16837TIP3   OH272001   4.514   3.903   3.450  0.4915  0.3570  0.3750
16837TIP3    H172002   4.453   3.909   3.376 -0.3242  0.3141  1.0307
16837TIP3    H272003   4.593   3.865   3.412  0.5979  1.6387 -0.7813
16838TIP3   OH272004   1.721   3.310  10.952 -0.4122  0.1094  0.5929
16838TIP3    H172005   1.669   3.291  11.029  0.0549  0.8232  1.0942
16838TIP3    H272006   1.659   3.307  10.879 -0.9712  0.0443  1.0727
16839TIP3   OH272007   5.983   1.035  12.539 -0.1486  0.6044  0.4473
16839TIP3    H172008   5.922   0.975  12.496  1.6344 -0.8491 -0.2285
16839TIP3    H272009   5.956   1.122  12.510 -1.0390 -0.1012 -0.9614
16840TIP3   OH272010   5.591   5.572   0.049  0.2551  0.3459  0.0287
16840TIP3    H172011   5.521   5.590   0.111  1.8660  3.1802  1.2027
16840TIP3    H272012   5.629   5.658   0.029  2.1882 -0.8596 -2.0158
16841TIP3   OH272013   5.299   5.620   1.016 -0.5479 -0.0363 -0.2801
16841TIP3    H172014   5.360   5.624   1.089 -1.0479 -2.3382  0.3604
16841TIP3    H272015   5.354   5.600   0.940 -0.1021  1.7571 -0.4721
16842TIP3   OH272016   6.517   2.100   5.769 -0.4365  0.1411 -0.3694
16842TIP3    H172017   6.454   2.032   5.791 -0.1450  0.2154  0.7443
16842TIP3    H272018   6.593   2.052   5.734 -1.4238  0.1021 -2.6533
16843TIP3   OH272019   2.781   6.395   3.502  0.3147 -0.0080  0.3082
16843TIP3    H172020   2.705   6.386   3.446  0.9737  0.9205 -0.7750
16843TIP3    H272021   2.855   6.403   3.442  0.8556  2.9733  1.1693
16844TIP3   OH272022   5.808   5.329   0.518  0.3623 -0.3578 -0.7426
16844TIP3    H172023   5.758   5.348   0.439  1.0832 -0.4008 -1.2162
16844TIP3    H272024   5.888   5.380   0.509  0.1828  0.1120  0.2516
16845TIP3   OH272025   1.585   3.747   3.750 -0.6066 -0.0081  0.3895
16845TIP3    H172026   1.633   3.763   3.831  0.0920  1.8126 -0.3340
16845TIP3    H272027   1.650   3.715   3.688 -1.0450 -0.9409  0.3896
16846TIP3   OH272028   1.306   4.188   5.426 -0.3245 -0.0495 -0.2851
16846TIP3    H172029   1.299   4.156   5.516 -2.5098  1.1782  0.0699
16846TIP3    H272030   1.400   4.190   5.408  0.1223 -1.2152  1.6193
16847TIP3   OH272031   1.079   4.373  11.548 -0.2769  0.1243 -0.1840
16847TIP3    H172032   1.135   4.388  11.472  0.2428  2.1065  0.5243
16847TIP3    H272033   1.101   4.445  11.608 -2.8097  0.3606  0.5648
16848TIP3   OH272034   1.031   0.692   3.523 -0.0758 -0.4267  0.6160
16848TIP3    H172035   1.123   0.693   3.497  0.0828 -1.3100  1.1084
16848TIP3    H272036   1.021   0.613   3.576 -0.9529  0.0297  1.1690
16849TIP3   OH272037   2.948   5.325  11.614 -0.3589 -0.1892  0.4461
16849TIP3    H172038   2.875   5.296  11.558  0.9728  1.1510 -2.1553
16849TIP3    H272039   2.961   5.417  11.591  2.8467 -0.6608 -0.1033
16850TIP3   OH272040   6.124   4.692  12.295 -0.2288 -0.0709  0.1932
16850TIP3    H172041   6.138   4.785  12.275 -1.2001  0.7050  2.6672
16850TIP3    H272042   6.201   4.667  12.345  0.3726 -0.8393 -1.0904
16851TIP3   OH272043   6.653   5.162  13.931  0.3286  0.8266  0.1896
16851TIP3    H172044   6.658   5.131  13.841  0.6088  0.4129  0.3418
16851TIP3    H272045   6.690   5.250  13.929  1.7971  0.2515  0.1550
16852TIP3   OH272046   5.634   0.621   0.159 -0.5962  0.3068 -0.3406
16852TIP3    H172047   5.612   0.602   0.250 -1.5884  0.4748 -0.5364
16852TIP3    H272048   5.606   0.712   0.146 -1.7861 -0.1610 -1.2027
16853TIP3   OH272049   5.049   6.756  13.282  0.7380 -0.0124 -0.0521
16853TIP3    H172050   5.131   6.738  13.328  0.1076 -1.6351  0.4904
16853TIP3    H272051   4.981   6.750  13.350  0.1692  1.5988 -0.4364
16854TIP3   OH272052   4.678   3.692   0.857  0.2308  0.5710  0.3552
16854TIP3    H172053   4.626   3.677   0.778  0.0295 -1.6617  0.8456
16854TIP3    H272054   4.763   3.722   0.825 -0.1722  0.6684 -0.6445
16855TIP3   OH272055   2.682   6.489  15.432 -0.7838 -0.5384  0.0859
16855TIP3    H172056   2.641   6.403  15.444 -1.8321  0.0042  0.4914
16855TIP3    H272057   2.709   6.491  15.340  0.6094 -1.8686  0.4175
16856TIP3   OH272058   2.439   1.228  13.729  0.4384  0.4132  0.4137
16856TIP3    H172059   2.390   1.217  13.811 -0.5629 -0.4074 -0.2823
16856TIP3    H272060   2.446   1.140  13.693  2.1704  0.5414  0.3213
16857TIP3   OH272061   2.839   5.581  15.887 -0.3606 -0.5195 -1.0016
16857TIP3    H172062   2.795   5.641  15.947 -0.8485 -1.6106 -0.2422
16857TIP3    H272063   2.903   5.635  15.842  1.8987 -0.1235  2.3622
16858TIP3   OH272064   4.860   1.089  12.840 -0.0346 -0.6385  0.4247
16858TIP3    H172065   4.868   1.182  12.822  0.5980 -0.9864 -1.3338
16858TIP3    H272066   4.769   1.068  12.818  0.3772 -0.7962 -1.3035
16859TIP3   OH272067   2.099   6.524  15.875  0.7186 -0.0452 -0.1580
16859TIP3    H172068   2.180   6.553  15.833  0.1872  1.4739 -0.2132
16859TIP3    H272069   2.035   6.518  15.803  0.5194 -0.1802  0.0284
16860TIP3   OH272070   2.377   1.312   4.178  0.4673  0.1086  0.6912
16860TIP3    H172071   2.461   1.343   4.145  0.2250 -0.6781 -0.7213
16860TIP3    H272072   2.321   1.390   4.178  0.5991  0.2210 -0.3963
16861TIP3   OH272073   6.715   4.532  15.008 -0.4270  0.0873  0.0811
16861TIP3    H172074   6.789   4.582  15.043  0.0945  0.0071 -0.8652
16861TIP3    H272075   6.704   4.459  15.069  0.0270  0.3099  0.4354
16862TIP3   OH272076   3.523   4.574  14.683  0.8717 -0.4559  0.1997
16862TIP3    H172077   3.513   4.614  14.596 -3.8024  1.8131  1.4270
16862TIP3    H272078   3.532   4.481  14.666  3.4123  0.1646 -2.6867
16863TIP3   OH272079   2.232   5.617  17.202  0.4162  0.2198 -0.4009
16863TIP3    H172080   2.262   5.681  17.266 -0.4688  2.0513 -1.7406
16863TIP3    H272081   2.312   5.588  17.158  0.7639  0.9553 -0.2712
16864TIP3   OH272082   1.169   2.136  11.555  0.3720  0.3172 -0.4804
16864TIP3    H172083   1.204   2.211  11.506  0.6508  1.6303  1.6134
16864TIP3    H272084   1.239   2.113  11.616 -0.9046  0.3948  1.0543
16865TIP3   OH272085   6.114   1.904   6.307  0.4482  0.4388 -0.8522
16865TIP3    H172086   6.136   1.832   6.367 -1.2947 -0.0532 -0.7688
16865TIP3    H272087   6.170   1.976   6.336  3.1313 -1.1551 -1.6728
16866TIP3   OH272088   4.173   3.906   5.098  0.4180  0.1797 -0.1334
16866TIP3    H172089   4.198   3.853   5.174  3.2495  0.8872 -0.4413
16866TIP3    H272090   4.123   3.846   5.043  1.7430 -1.5919  0.4808
16867TIP3   OH272091   3.889   4.046  13.930 -0.2537 -0.3794  0.0522
16867TIP3    H172092   3.823   3.976  13.935  0.2789 -0.8743  0.3990
16867TIP3    H272093   3.941   4.034  14.010  0.2008  0.0531 -0.1783
16868TIP3   OH272094   6.095   4.295   1.598 -0.6938 -0.7574 -0.1244
16868TIP3    H172095   6.083   4.368   1.658  0.4337 -0.4143 -0.2964
16868TIP3    H272096   6.153   4.235   1.645 -0.1079 -0.6617 -0.7116
16869TIP3   OH272097   6.452   5.247   5.482 -0.1625 -0.3042  0.0482
16869TIP3    H172098   6.386   5.188   5.446 -1.9790  1.0459  1.0129
16869TIP3    H272099   6.536   5.206   5.459 -1.3047 -2.0162 -1.3177
16870TIP3   OH272100   2.227   1.485  11.276 -0.1541  0.8760 -0.3481
16870TIP3    H172101   2.175   1.422  11.326  1.8944 -0.6151  0.0065
16870TIP3    H272102   2.224   1.565  11.329  0.8217 -0.2596  1.5153
16871TIP3   OH272103   5.917   0.815   3.341 -0.1635 -0.5299  0.4952
16871TIP3    H172104   5.934   0.909   3.349 -3.5868  0.2112  0.5215
16871TIP3    H272105   5.938   0.795   3.250  0.2715  0.3178  0.3950
16872TIP3   OH272106   3.665   1.961  15.392  0.1196  0.3061 -0.7914
16872TIP3    H172107   3.653   1.883  15.336 -0.1263  0.2354 -0.6390
16872TIP3    H272108   3.688   1.925  15.478  3.5153  0.4284 -1.5057
16873TIP3   OH272109   4.106   1.289  11.901  0.1202 -0.2512 -0.3969
16873TIP3    H172110   4.130   1.196  11.896 -1.7176 -0.8416  0.8297
16873TIP3    H272111   4.187   1.335  11.880  1.2653 -2.1198 -0.3558
16874TIP3   OH272112   4.450   0.248   0.904  0.2837 -0.2877 -0.9193
16874TIP3    H172113   4.451   0.325   0.847  0.8598 -0.4533 -1.1414
16874TIP3    H272114   4.419   0.177   0.849 -0.5463 -0.1571 -0.6301
16875TIP3   OH272115   3.271   3.466   3.711  0.0981  0.0985  0.2692
16875TIP3    H172116   3.264   3.559   3.690 -1.9414 -0.1576 -0.4263
16875TIP3    H272117   3.228   3.457   3.796 -3.0428 -0.6337 -1.2313
16876TIP3   OH272118   5.574   4.997   2.361  0.5313 -0.6977 -0.1798
16876TIP3    H172119   5.578   4.968   2.270  1.1646  2.4837 -1.2989
16876TIP3    H272120   5.666   5.012   2.385  0.2897 -0.3872  0.5717
16877TIP3   OH272121   4.351   3.914  11.044 -0.3545  0.1327 -0.8391
16877TIP3    H172122   4.309   3.995  11.072 -0.2869  0.2745 -1.1483
16877TIP3    H272123   4.297   3.845  11.084  1.0415  0.3184  1.5759
16878TIP3   OH272124   2.293   0.358   3.845 -0.2469  0.4187  0.2902
16878TIP3    H172125   2.272   0.265   3.855 -1.1757  0.6493  0.6436
16878TIP3    H272126   2.317   0.387   3.933  0.8661  0.3378  0.0304
16879TIP3   OH272127   1.491   2.832  12.135  0.2347 -0.6369 -0.3747
16879TIP3    H172128   1.538   2.791  12.207 -1.0464  1.2503  1.6532
16879TIP3    H272129   1.529   2.793  12.056  2.3890 -2.0527  1.2543
16880TIP3   OH272130   1.108   0.426   5.782  0.7729  0.1087  0.3045
16880TIP3    H172131   1.136   0.417   5.873  1.3758  1.6939  0.3124
16880TIP3    H272132   1.175   0.482   5.742 -0.5486  1.1029 -0.5925
16881TIP3   OH272133   0.928   0.613   5.599 -0.0539 -0.0530 -0.0433
16881TIP3    H172134   0.978   0.691   5.623 -0.2690  0.3215 -0.7720
16881TIP3    H272135   0.983   0.540   5.628  0.9972  0.3409 -0.9219
16882TIP3   OH272136   2.356   6.332  16.929 -0.1996 -0.0697  0.0607
16882TIP3    H172137   2.387   6.253  16.975 -0.3599  0.0579  0.3945
16882TIP3    H272138   2.387   6.321  16.839  0.4911 -0.1271  0.2991
16883TIP3   OH272139   5.702   1.272  13.764 -0.1722 -0.3350 -0.3105
16883TIP3    H172140   5.779   1.218  13.742  0.8146  1.3507 -1.2746
16883TIP3    H272141   5.640   1.211  13.803  1.1151 -2.0384 -0.7862
16884TIP3   OH272142   2.263   5.689  16.185 -0.5058 -0.4907 -0.5492
16884TIP3    H172143   2.336   5.688  16.247 -1.1862  2.1558  0.4458
16884TIP3    H272144   2.208   5.615  16.212 -0.5314  0.3010  1.7625
16885TIP3   OH272145   3.072   6.767   3.553  0.2311  0.1112 -0.6477
16885TIP3    H172146   3.052   6.693   3.610 -1.1126 -1.1656 -2.6652
16885TIP3    H272147   3.013   6.837   3.581  0.2754 -0.1497  0.1199
16886TIP3   OH272148   5.456   5.503   2.927 -0.4538  0.2280 -0.5151
16886TIP3    H172149   5.549   5.526   2.933 -0.5819  0.5741  0.2558
16886TIP3    H272150   5.411   5.573   2.975 -1.5190  2.3970 -4.2445
16887TIP3   OH272151   4.281   5.105  11.416 -0.3951  0.0299 -0.1925
16887TIP3    H172152   4.250   5.080  11.503 -0.4403  1.8274  0.3382
16887TIP3    H272153   4.202   5.102  11.362 -1.1625  2.4302  0.6708
16888TIP3   OH272154   1.446   2.275   0.393 -0.5430 -0.0139  0.1204
16888TIP3    H172155   1.418   2.286   0.302 -2.5914 -0.2913  0.6646
16888TIP3    H272156   1.534   2.237   0.387 -0.7215 -0.2175 -1.7378
16889TIP3   OH272157   5.962   5.981   4.900  0.1841 -0.2583 -0.0109
16889TIP3    H172158   5.984   5.906   4.846 -0.2776 -0.2299 -0.2423
16889TIP3    H272159   5.889   6.023   4.855 -0.1206 -0.1572  0.5595
16890TIP3   OH272160   5.021   5.070  14.300 -0.9453  0.0843 -0.8995
16890TIP3    H172161   5.079   5.124  14.353  1.1295 -1.3084 -1.6344
16890TIP3    H272162   5.009   5.120  14.219 -1.0764  0.5306 -0.6088
16891TIP3   OH272163   5.609   4.189  16.301  1.0383  0.2200  0.1319
16891TIP3    H172164   5.660   4.135  16.241  1.5931 -1.4714  2.0443
16891TIP3    H272165   5.611   4.142  16.384  1.3458  3.0857  1.8619
16892TIP3   OH272166   0.374   0.879  12.914 -0.0776  0.6360  0.7376
16892TIP3    H172167   0.442   0.872  12.847 -0.6052  0.5837  0.2018
16892TIP3    H272168   0.391   0.963  12.957 -1.2381  1.9493 -1.1683
16893TIP3   OH272169   4.063   1.511  15.302  0.3675  0.3078  0.1811
16893TIP3    H172170   3.995   1.502  15.236  0.3530 -1.6903  0.4175
16893TIP3    H272171   4.141   1.471  15.263  1.0363  1.2582  0.4825
16894TIP3   OH272172   5.357   0.446  10.646  0.6318  0.2312 -0.2950
16894TIP3    H172173   5.297   0.410  10.581  0.9966  0.2005 -0.6142
16894TIP3    H272174   5.442   0.407  10.625  0.9601  1.0037 -0.4326
16895TIP3   OH272175   6.759   2.994  16.230  0.3942  0.1811 -0.0054
16895TIP3    H172176   6.794   3.065  16.177  0.9065  0.0233  0.1207
16895TIP3    H272177   6.697   2.949  16.173  1.2109 -0.2115 -0.5911
16896TIP3   OH272178   0.763   0.268  12.557  0.3373 -0.6366 -0.6031
16896TIP3    H172179   0.803   0.283  12.643 -0.3733 -1.6112 -0.0819
16896TIP3    H272180   0.828   0.299  12.495 -0.3618  3.0734  0.2891
16897TIP3   OH272181   3.939   6.643   5.771 -0.4376  0.1764 -0.1529
16897TIP3    H172182   3.996   6.670   5.698 -1.0631 -0.3195 -0.8399
16897TIP3    H272183   3.858   6.614   5.728 -1.2164  0.8806  0.8060
16898TIP3   OH272184   2.150   0.490   6.101 -0.2376  0.3671 -0.5246
16898TIP3    H172185   2.060   0.462   6.119 -0.1202  0.5034  0.3323
16898TIP3    H272186   2.156   0.491   6.006 -0.7632 -0.8829 -0.5960
16899TIP3   OH272187   4.403   6.430   2.446  0.0429  0.1060  0.1383
16899TIP3    H172188   4.429   6.348   2.488  0.2276 -0.3323 -0.8232
16899TIP3    H272189   4.325   6.458   2.495  0.2393 -0.3988  0.7571
16900TIP3   OH272190   3.470   6.504   4.873  0.0826  0.1148 -0.4140
16900TIP3    H172191   3.446   6.525   4.963  1.0494  1.8578 -0.5219
16900TIP3    H272192   3.404   6.548   4.820  1.0792  1.4519 -0.5980
16901TIP3   OH272193   2.688   1.621   2.760  0.0658  0.2423 -0.0946
16901TIP3    H172194   2.766   1.648   2.711  0.3151  1.1937  0.8034
16901TIP3    H272195   2.661   1.699   2.809 -0.1408 -0.6844  1.3369
16902TIP3   OH272196   6.531   5.218  13.308 -0.1308 -0.0256 -0.5795
16902TIP3    H172197   6.581   5.230  13.388  2.4355  0.1891 -2.0807
16902TIP3    H272198   6.489   5.133  13.318  1.4152 -0.7258  0.4052
16903TIP3   OH272199   3.470   2.507  13.578  0.1244 -0.0340 -0.6653
16903TIP3    H172200   3.387   2.460  13.572 -0.5187  1.0207 -0.3719
16903TIP3    H272201   3.483   2.544  13.491  0.3389 -0.2796 -0.7381
16904TIP3   OH272202   1.432   1.190   2.057  0.1232 -0.0592 -0.4559
16904TIP3    H172203   1.425   1.280   2.025 -1.1768  0.8216  1.9896
16904TIP3    H272204   1.524   1.167   2.044  0.8481  2.1990  0.1436
16905TIP3   OH272205   2.953   0.375   1.720 -0.4749 -0.2854  0.6657
16905TIP3    H172206   2.931   0.427   1.798  0.2022  0.2071  0.5364
16905TIP3    H272207   3.048   0.381   1.713 -0.6735  1.9210 -1.7043
16906TIP3   OH272208   2.901   1.067   5.465  0.3101 -0.1518 -0.0198
16906TIP3    H172209   2.933   1.150   5.430 -0.2024 -0.2286 -0.6901
16906TIP3    H272210   2.945   1.058   5.550 -1.6445  2.1250  1.3393
16907TIP3   OH272211   5.049   6.401   0.944 -0.7624  0.7012 -0.5233
16907TIP3    H172212   4.994   6.443   0.877 -0.7036  1.2709 -0.2176
16907TIP3    H272213   5.128   6.375   0.896 -1.4414 -0.4834 -1.0569
16908TIP3   OH272214   6.494   2.057   5.302  0.5102 -0.1199 -0.4896
16908TIP3    H172215   6.445   2.088   5.226  1.9440  1.6662 -0.7365
16908TIP3    H272216   6.456   2.105   5.376  0.6585 -0.1191 -0.4139
16909TIP3   OH272217   5.744   2.681   4.766 -0.3515  0.1104  0.2097
16909TIP3    H172218   5.696   2.605   4.798 -0.4134  0.9303  2.1424
16909TIP3    H272219   5.720   2.687   4.673 -2.5349 -0.5821  0.6792
16910TIP3   OH272220   6.620   6.512  16.143 -0.1732 -0.3502  0.1287
16910TIP3    H172221   6.687   6.460  16.187  0.2294 -0.6346 -0.7821
16910TIP3    H272222   6.598   6.462  16.065 -0.7285  0.2242 -0.0966
16911TIP3   OH272223   5.885   6.144  14.962  0.3155  0.0140 -0.4008
16911TIP3    H172224   5.948   6.203  14.921 -0.8294  0.7014 -1.2363
16911TIP3    H272225   5.935   6.101  15.031  1.5851  0.8398 -0.7505
16912TIP3   OH272226   1.265   1.292   1.676 -0.2426 -0.7665  0.5938
16912TIP3    H172227   1.263   1.329   1.588  0.8226 -0.0726  0.8442
16912TIP3    H272228   1.263   1.197   1.663 -0.0643 -0.6721 -0.1671
16913TIP3   OH272229   3.129   3.457   0.268  0.2624 -0.2040  0.3403
16913TIP3    H172230   3.039   3.426   0.271  0.3999 -0.6002  0.4204
16913TIP3    H272231   3.165   3.419   0.188  0.1130  0.6463 -0.1464
16914TIP3   OH272232   5.842   4.580  12.377  0.6474  0.0534  0.4862
16914TIP3    H172233   5.935   4.599  12.378  0.2996  2.0049  0.3841
16914TIP3    H272234   5.815   4.584  12.469  0.6502 -0.4602  0.5113
16915TIP3   OH272235   6.733   0.646  15.646 -0.1983 -0.2827  0.2584
16915TIP3    H172236   6.681   0.710  15.598  0.7630 -0.1475 -0.6416
16915TIP3    H272237   6.691   0.641  15.732 -0.2088  1.6761  0.4158
16916TIP3   OH272238   5.189   3.168  12.456 -0.5010 -0.2378  0.1401
16916TIP3    H172239   5.252   3.110  12.498 -0.3545  0.7050  1.3050
16916TIP3    H272240   5.239   3.215  12.389  0.2154  0.9075  1.4321
16917TIP3   OH272241   4.517   4.959  16.421  0.2218 -0.1940 -0.3627
16917TIP3    H172242   4.592   4.994  16.373  0.7517  0.6324  1.0059
16917TIP3    H272243   4.447   4.953  16.355  1.2798 -0.3482 -1.5126
16918TIP3   OH272244   4.864   3.715  13.106  0.4278  0.0381 -0.3888
16918TIP3    H172245   4.823   3.688  13.024  0.6425  2.1531 -1.2577
16918TIP3    H272246   4.794   3.757  13.156  0.6983  0.3113 -0.2390
16919TIP3   OH272247   0.879   0.624  10.901 -0.0999  0.2047  0.4456
16919TIP3    H172248   0.817   0.688  10.866  0.1728 -0.1733 -0.7643
16919TIP3    H272249   0.825   0.549  10.926 -0.4025  0.8298  1.7280
16920TIP3   OH272250   3.314   3.673   1.928 -0.3399  1.1736 -0.5580
16920TIP3    H172251   3.345   3.673   2.018 -0.2291 -1.5795 -0.5203
16920TIP3    H272252   3.394   3.676   1.875 -0.1580 -0.8271 -0.4817
16921TIP3   OH272253   5.607   0.035  15.281  0.0827 -0.0575 -0.2312
16921TIP3    H172254   5.585  -0.035  15.343  2.0897  1.0101  1.8734
16921TIP3    H272255   5.679  -0.001  15.230  2.1992  0.8481  1.9152
16922TIP3   OH272256   6.442   2.804  12.504 -0.1102  0.3802 -0.4711
16922TIP3    H172257   6.502   2.734  12.482 -0.0989  0.6725 -1.4061
16922TIP3    H272258   6.422   2.791  12.597  0.0480 -0.7277 -0.5873
16923TIP3   OH272259   3.289   3.760  16.408  0.5380  0.4711  0.2230
16923TIP3    H172260   3.266   3.842  16.452  1.2932  0.5806  0.4335
16923TIP3    H272261   3.206   3.727  16.372  0.3795  1.7970 -0.6696
16924TIP3   OH272262   0.040   5.968   6.289 -0.1643 -0.7731 -0.0632
16924TIP3    H172263   0.113   5.967   6.227 -0.1894 -1.6890 -0.0964
16924TIP3    H272264   0.047   6.053   6.332  0.9468 -0.8474 -0.0523
16925TIP3   OH272265   3.409   2.121   1.356  0.4294  0.8040 -0.6022
16925TIP3    H172266   3.356   2.118   1.436 -0.6345 -1.5991 -1.3056
16925TIP3    H272267   3.351   2.159   1.290  0.7471  1.2639 -0.6209
16926TIP3   OH272268   1.970   6.241  14.651  0.5700  1.0090 -0.0499
16926TIP3    H172269   1.885   6.258  14.691 -0.4442 -0.7758 -1.2614
16926TIP3    H272270   2.018   6.190  14.716  0.3402  1.2146  0.2813
16927TIP3   OH272271   6.510   4.221  14.526 -0.3550 -0.4299 -0.1551
16927TIP3    H172272   6.415   4.217  14.512 -0.6708 -0.9190  1.8753
16927TIP3    H272273   6.520   4.219  14.621  1.7526 -1.5410 -0.3555
16928TIP3   OH272274   5.269   5.694  12.343 -0.1919 -0.2051 -0.2940
16928TIP3    H172275   5.301   5.668  12.430  0.1989 -2.2242 -1.0036
16928TIP3    H272276   5.212   5.622  12.315 -1.4675  1.0762 -1.1436
16929TIP3   OH272277   0.431   5.561  14.074  0.0521 -0.4407  0.0939
16929TIP3    H172278   0.415   5.609  14.155 -0.4064 -1.1557  0.4348
16929TIP3    H272279   0.466   5.476  14.102 -0.8751 -1.0068 -0.4115
16930TIP3   OH272280   1.032   3.437   4.381  0.1096  0.6554 -0.4929
16930TIP3    H172281   0.998   3.512   4.430  0.6153  2.0221 -2.1260
16930TIP3    H272282   1.127   3.442   4.392  0.1960  0.7121 -1.2167
16931TIP3   OH272283   3.648   1.703   4.083 -0.0879 -0.2462 -0.1341
16931TIP3    H172284   3.736   1.742   4.093 -0.6406  0.8172  0.9498
16931TIP3    H272285   3.591   1.778   4.064 -0.8238 -0.8677 -0.4038
16932TIP3   OH272286   2.407   4.069   3.794  0.1448 -0.2496  0.2997
16932TIP3    H172287   2.411   4.041   3.886  0.9007  1.9237  0.9778
16932TIP3    H272288   2.314   4.061   3.771 -0.5619  1.6766  2.1445
16933TIP3   OH272289   5.948   3.949   1.803 -0.6056 -0.4633  0.4879
16933TIP3    H172290   5.951   3.936   1.709 -1.7114  1.3265  0.1791
16933TIP3    H272291   5.996   3.873   1.839  0.5286 -0.7524 -1.5106
16934TIP3   OH272292   4.360   4.383  12.860 -0.4362 -0.3803 -0.0679
16934TIP3    H172293   4.286   4.344  12.908 -0.3252 -0.2260  0.2276
16934TIP3    H272294   4.321   4.457  12.813 -0.0075  1.3469  2.1502
16935TIP3   OH272295   2.757   4.794   2.572  0.0162  0.1568 -0.2959
16935TIP3    H172296   2.691   4.740   2.615  0.7726  0.4849  1.3616
16935TIP3    H272297   2.830   4.735   2.554 -0.1029  0.1282 -0.7051
16936TIP3   OH272298   6.037   3.908   6.341  0.0729 -0.2146  0.0836
16936TIP3    H172299   5.974   3.980   6.346  0.5915  0.2041  0.9277
16936TIP3    H272300   6.104   3.939   6.280 -0.0255 -0.2407 -0.0376
16937TIP3   OH272301   3.693   3.220   5.310  0.6376  0.0739 -0.2121
16937TIP3    H172302   3.728   3.135   5.285  0.8283  0.2926 -0.7109
16937TIP3    H272303   3.761   3.259   5.365 -0.0309 -0.6513  1.1887
16938TIP3   OH272304   3.586   1.631   0.050 -0.3561 -0.1582 -0.1547
16938TIP3    H172305   3.540   1.681   0.117 -1.3043 -0.1131 -0.8171
16938TIP3    H272306   3.599   1.545   0.089  1.0120  0.4969  0.8753
16939TIP3   OH272307   5.154   1.787   2.887  0.0171 -0.0774  0.2657
16939TIP3    H172308   5.182   1.712   2.939  0.2652 -0.6364 -0.6543
16939TIP3    H272309   5.070   1.813   2.925 -0.6149 -1.5160 -0.1028
16940TIP3   OH272310   0.424   1.963   3.760 -0.1055  0.2429  0.1399
16940TIP3    H172311   0.363   1.952   3.687 -0.3435 -0.5930  0.4492
16940TIP3    H272312   0.499   2.008   3.722 -1.0910  1.7029 -0.1493
16941TIP3   OH272313   4.764   2.988  14.436  0.1009 -0.3058  0.4488
16941TIP3    H172314   4.840   3.041  14.458 -0.1111  1.1633 -2.0046
16941TIP3    H272315   4.742   3.013  14.346 -1.4070 -2.9436 -0.0390
16942TIP3   OH272316   1.816   3.389   4.223 -0.0159  0.5878  0.1461
16942TIP3    H172317   1.869   3.341   4.287  0.7274  1.2747  0.0634
16942TIP3    H272318   1.744   3.329   4.203 -0.4242  0.4730  1.8146
16943TIP3   OH272319   2.112   1.674   0.382  0.0159  0.4565 -0.4266
16943TIP3    H172320   2.050   1.626   0.438 -1.2879  1.8404 -0.6348
16943TIP3    H272321   2.152   1.606   0.327 -0.2900 -0.6441  0.6566
16944TIP3   OH272322   0.685   1.810  13.802 -0.0549 -0.2076 -0.0606
16944TIP3    H172323   0.724   1.872  13.739  0.9782 -0.3729  0.3918
16944TIP3    H272324   0.591   1.813  13.784  0.2311 -0.4184 -1.7815
16945TIP3   OH272325   3.274   4.822  15.277  0.0897  0.1406 -0.2963
16945TIP3    H172326   3.240   4.806  15.365 -0.1789 -3.8229 -0.9328
16945TIP3    H272327   3.361   4.859  15.291 -1.2490  2.9687  1.4730
16946TIP3   OH272328   1.525   4.379  11.318  0.4944  0.3184  0.2808
16946TIP3    H172329   1.503   4.289  11.294 -0.2736  0.4609  0.4040
16946TIP3    H272330   1.590   4.371  11.387  0.0364 -0.1602  0.6663
16947TIP3   OH272331   5.744   5.465  11.333  0.1668  0.0178  0.2903
16947TIP3    H172332   5.676   5.509  11.384  0.6449  1.0646  0.0601
16947TIP3    H272333   5.794   5.415  11.397 -0.5900 -0.4622  0.5144
16948TIP3   OH272334   3.760   5.146   4.019 -0.0153 -0.0144 -0.8208
16948TIP3    H172335   3.697   5.189   4.077 -0.9328  0.3846 -2.0746
16948TIP3    H272336   3.775   5.060   4.059 -2.7138 -0.8216 -1.3566
16949TIP3   OH272337   3.037   5.497   1.428  0.6476  0.3842  0.2273
16949TIP3    H172338   3.128   5.507   1.400 -0.1104  0.1647 -2.6879
16949TIP3    H272339   3.025   5.403   1.437  0.2179  0.2336 -1.5312
16950TIP3   OH272340   2.828   0.036   0.495 -0.4710  0.4732  0.2851
16950TIP3    H172341   2.766   0.075   0.557  0.0825  1.0393  0.5036
16950TIP3    H272342   2.870  -0.034   0.544 -1.7165 -0.6659 -0.2182
16951TIP3   OH272343   3.515   6.446   2.665  0.0328  0.2014 -0.0708
16951TIP3    H172344   3.435   6.444   2.612 -1.9193 -0.0929  2.6954
16951TIP3    H272345   3.490   6.494   2.744  2.4315 -0.4816  1.1778
16952TIP3   OH272346   5.320   2.943   2.155 -0.1915 -0.0053 -0.0992
16952TIP3    H172347   5.415   2.952   2.157  0.2512 -2.9722  3.7780
16952TIP3    H272348   5.305   2.855   2.120 -1.5110  0.2598 -0.2412
16953TIP3   OH272349   5.312   6.214  17.211 -0.0974  0.2668 -0.6528
16953TIP3    H172350   5.344   6.127  17.234  0.3780  0.6022 -0.0036
16953TIP3    H272351   5.249   6.199  17.141  0.1424 -0.5777 -0.6949
16954TIP3   OH272352   2.630   4.399  10.914  0.0586  0.0561 -0.3288
16954TIP3    H172353   2.636   4.477  10.969 -1.4405 -0.1070  0.1053
16954TIP3    H272354   2.703   4.408  10.853  2.1422 -0.0467  1.9980
16955TIP3   OH272355   0.199   5.004   1.093 -0.1141 -0.1729 -0.2139
16955TIP3    H172356   0.132   4.944   1.060  0.0897 -0.3325 -0.3370
16955TIP3    H272357   0.184   5.086   1.047  0.4509 -0.5237 -1.0426
16956TIP3   OH272358   6.506   4.912   0.115  0.0259  0.6938  0.0497
16956TIP3    H172359   6.445   4.980   0.086 -0.7888 -0.4847 -1.1507
16956TIP3    H272360   6.474   4.886   0.201  0.0150  1.4411  0.2737
16957TIP3   OH272361   1.294   2.557   0.592 -0.0062  0.0893  0.1696
16957TIP3    H172362   1.312   2.644   0.558  1.8930  0.2721  1.4909
16957TIP3    H272363   1.380   2.518   0.607 -0.8022 -1.6649  0.5056
16958TIP3   OH272364   6.498   0.693  13.626 -0.2647  0.4192  0.0819
16958TIP3    H172365   6.426   0.641  13.591  0.1016 -0.9339  1.2424
16958TIP3    H272366   6.457   0.775  13.654 -1.0909  0.2322 -0.5339
16959TIP3   OH272367   4.880   2.779  10.577  0.5589  0.0156  0.1483
16959TIP3    H172368   4.949   2.729  10.621  1.7251 -0.0116 -1.6172
16959TIP3    H272369   4.913   2.869  10.576  1.3285 -0.2534 -2.0654
16960TIP3   OH272370   1.588   6.161   0.037 -0.4581 -0.1574 -0.2257
16960TIP3    H172371   1.553   6.073   0.017  1.2006 -0.7298 -0.7666
16960TIP3    H272372   1.608   6.158   0.130 -0.4237 -0.3572 -0.2378
16961TIP3   OH272373   1.509   1.166   5.750  0.4281  0.1356  0.0028
16961TIP3    H172374   1.555   1.250   5.752 -0.7339  0.7882 -0.2221
16961TIP3    H272375   1.437   1.176   5.813  0.1508 -0.6130 -0.1818
16962TIP3   OH272376   4.145   1.118   0.385  0.0246  0.4440  0.4836
16962TIP3    H172377   4.073   1.150   0.331  1.0082  1.2584 -0.3871
16962TIP3    H272378   4.137   1.022   0.381 -0.9846  0.5213  0.3986
16963TIP3   OH272379   1.178   4.405   4.972 -0.2967  0.1075 -0.6487
16963TIP3    H172380   1.108   4.403   5.038  0.2922  3.1775  0.2053
16963TIP3    H272381   1.234   4.331   4.996 -1.7148 -0.6986  0.3868
16964TIP3   OH272382   3.589   5.131  11.996  0.4062 -0.0164  0.3370
16964TIP3    H172383   3.501   5.116  12.031  0.3089 -1.5763 -0.4864
16964TIP3    H272384   3.600   5.226  11.998 -1.1236  0.1735  0.8702
16965TIP3   OH272385   6.423   4.972   2.527  0.0283 -0.3960  0.0012
16965TIP3    H172386   6.446   4.915   2.453  0.8160 -1.0309  0.7194
16965TIP3    H272387   6.380   5.048   2.486  0.7213 -0.5885 -1.1300
16966TIP3   OH272388   4.329   3.370  12.568  0.4533 -0.9222 -0.5158
16966TIP3    H172389   4.318   3.410  12.482  0.4429  2.6630  0.9929
16966TIP3    H272390   4.247   3.324  12.584 -1.0948  1.5341 -0.9620
16967TIP3   OH272391   5.592   6.362   0.228  0.2737 -0.2444 -0.5368
16967TIP3    H172392   5.616   6.342   0.137 -0.2611  0.3792 -0.8232
16967TIP3    H272393   5.497   6.360   0.229  0.2294  1.0896 -0.3107
16968TIP3   OH272394   0.090   0.077   4.480  0.1922  0.3923 -0.0929
16968TIP3    H172395   0.000   0.058   4.452  0.2417  1.7316 -1.2669
16968TIP3    H272396   0.094   0.045   4.570 -0.4579 -2.6914 -1.0386
16969TIP3   OH272397   0.442   2.798  14.376  0.0259 -0.2343  0.1139
16969TIP3    H172398   0.535   2.781  14.383  0.0348  0.0310  0.6663
16969TIP3    H272399   0.407   2.781  14.464 -0.0013  2.3011  0.6627
16970TIP3   OH272400   4.015   4.678   4.279 -0.6204 -0.2422  0.3467
16970TIP3    H172401   4.093   4.622   4.285 -1.0129 -1.0521 -1.3121
16970TIP3    H272402   4.045   4.755   4.231 -0.8884 -0.7397 -0.6629
16971TIP3   OH272403   5.002   6.600  13.002  0.0652 -0.4482 -0.0650
16971TIP3    H172404   5.012   6.574  13.094  0.5481 -1.0444 -0.2757
16971TIP3    H272405   4.941   6.673  13.004  0.8571  0.2096  0.8345
16972TIP3   OH272406   3.700   6.488   5.712  0.2778 -0.3577 -0.2018
16972TIP3    H172407   3.735   6.473   5.800  3.1271 -0.3640 -1.2306
16972TIP3    H272408   3.607   6.506   5.726  0.3732 -1.5037  2.6845
16973TIP3   OH272409   6.314   4.697  12.976 -0.3148 -0.3769 -0.0749
16973TIP3    H172410   6.407   4.712  12.956 -0.0587 -0.3477  1.0638
16973TIP3    H272411   6.311   4.688  13.071 -1.5947  0.4305 -0.0079
16974TIP3   OH272412   3.867   0.621   1.445  1.0022  0.0637 -0.1803
16974TIP3    H172413   3.815   0.629   1.364  0.0742  0.5305  0.4495
16974TIP3    H272414   3.958   0.619   1.414  0.8790  3.2185 -1.1118
16975TIP3   OH272415   6.104   5.237   2.121  0.2754 -0.3464 -0.2437
16975TIP3    H172416   6.066   5.159   2.162  1.2780 -1.0102 -0.5289
16975TIP3    H272417   6.163   5.202   2.054 -0.1592  0.6888 -1.1925
16976TIP3   OH272418   1.621   4.694  16.554  0.0492  0.2549 -0.6441
16976TIP3    H172419   1.707   4.733  16.538  0.3812 -0.0027  0.4289
16976TIP3    H272420   1.568   4.767  16.587  0.3512  0.0475  0.3119
16977TIP3   OH272421   0.340   4.462  13.114  0.2864  0.1920 -1.4484
16977TIP3    H172422   0.332   4.557  13.103  1.4909  0.2762 -1.7636
16977TIP3    H272423   0.266   4.426  13.066 -0.5406  0.9829 -0.8190
16978TIP3   OH272424   1.347   4.701   0.398 -0.0391  0.1765 -0.5479
16978TIP3    H172425   1.375   4.756   0.325 -0.1618  1.1967  0.1547
16978TIP3    H272426   1.350   4.759   0.475 -0.7243 -0.6390  0.1172
16979TIP3   OH272427   1.084   2.412  14.321  0.6368 -0.1235 -0.0242
16979TIP3    H172428   1.133   2.482  14.277 -0.5451  1.7132  1.4170
16979TIP3    H272429   1.007   2.399  14.266  0.5710  0.1511 -0.0008
16980TIP3   OH272430   6.462   1.506   5.635 -0.4409 -0.4875 -0.3121
16980TIP3    H172431   6.530   1.489   5.570 -1.1138 -0.9506 -0.9062
16980TIP3    H272432   6.398   1.560   5.590 -0.0200  0.7774  0.5362
16981TIP3   OH272433   2.125   6.142   3.572  0.4390 -0.1325  0.4354
16981TIP3    H172434   2.215   6.119   3.592 -0.2327 -2.4529  1.0847
16981TIP3    H272435   2.129   6.183   3.486  2.3384  2.0214  1.4146
16982TIP3   OH272436   5.503   0.268   5.378 -0.1419  0.0919  0.3001
16982TIP3    H172437   5.416   0.229   5.367  0.1193 -0.1386 -1.1758
16982TIP3    H272438   5.564   0.201   5.345  0.3722  1.3281 -1.4183
16983TIP3   OH272439   1.827   1.920   5.550 -0.1927 -0.1470 -0.1838
16983TIP3    H172440   1.746   1.965   5.525  0.0560 -0.3950 -1.5054
16983TIP3    H272441   1.821   1.910   5.645 -0.3341  2.5069  0.1424
16984TIP3   OH272442   6.232   5.112   6.177 -0.6174 -0.1273  0.2687
16984TIP3    H172443   6.183   5.062   6.242 -0.6810  1.0830  1.1865
16984TIP3    H272444   6.166   5.167   6.134 -0.2069  0.9836  1.0151
16985TIP3   OH272445   2.114   1.825   6.589  0.3037  0.7644 -0.1874
16985TIP3    H172446   2.103   1.911   6.548 -0.0904  0.7447 -0.1271
16985TIP3    H272447   2.032   1.780   6.572  0.4939  0.4114 -0.1832
16986TIP3   OH272448   6.371   4.884   5.124  0.6945  0.0077 -0.7168
16986TIP3    H172449   6.367   4.790   5.105  0.1577 -0.2516  0.5557
16986TIP3    H272450   6.465   4.902   5.132  0.7749 -0.6931  0.1691
16987TIP3   OH272451   6.096   5.191   0.520  0.1910 -0.2267  0.3045
16987TIP3    H172452   6.183   5.173   0.554  0.6449  0.1784 -0.5929
16987TIP3    H272453   6.103   5.280   0.484 -1.1696  0.6492  2.0400
16988TIP3   OH272454   2.843   3.828  14.915  0.3394 -0.7472 -0.3594
16988TIP3    H172455   2.932   3.863  14.909 -0.0703  0.1440 -2.0398
16988TIP3    H272456   2.793   3.897  14.960  0.6282 -1.5812  1.2934
16989TIP3   OH272457   1.141   4.119   0.818  0.2813  0.6783 -0.6943
16989TIP3    H172458   1.165   4.090   0.906  0.3478 -0.5670 -1.1006
16989TIP3    H272459   1.114   4.210   0.829  0.9221  0.7429  0.4993
16990TIP3   OH272460   2.455   3.776   2.163 -0.2747  0.2447 -0.0272
16990TIP3    H172461   2.433   3.688   2.130 -2.5936 -0.1582  2.2581
16990TIP3    H272462   2.536   3.763   2.212 -0.6974 -0.6981  0.4570
16991TIP3   OH272463   2.634   6.271  15.712 -0.2981 -0.6516 -0.0291
16991TIP3    H172464   2.596   6.290  15.626  0.3134  1.3699  0.0794
16991TIP3    H272465   2.718   6.319  15.711  1.0009 -2.7866  0.7104
16992TIP3   OH272466   6.246   4.221  17.218 -0.1075  0.3886  0.1632
16992TIP3    H172467   6.234   4.195  17.309  0.1831 -1.4349 -0.2897
16992TIP3    H272468   6.333   4.189  17.194 -0.3196  0.5066 -0.8507
16993TIP3   OH272469   6.123   4.885  12.923  0.1569 -0.0868 -0.1855
16993TIP3    H172470   6.052   4.837  12.880 -0.6330 -0.5403  1.5459
16993TIP3    H272471   6.189   4.818  12.943  0.6281  0.1619 -0.8502
16994TIP3   OH272472   3.335   3.976  15.048 -0.2503  0.1756 -0.2943
16994TIP3    H172473   3.413   3.943  15.093 -0.1827 -0.1824 -0.6704
16994TIP3    H272474   3.352   3.958  14.956 -1.8852 -2.3390 -0.2021
16995TIP3   OH272475   1.514   6.245   2.985  0.6356 -0.2396  0.1381
16995TIP3    H172476   1.591   6.208   3.028 -0.4415 -1.1479  1.3989
16995TIP3    H272477   1.500   6.190   2.909 -0.2732 -1.7797  1.3647
16996TIP3   OH272478   4.650   3.784   1.933 -0.1052 -0.3327 -0.0576
16996TIP3    H172479   4.576   3.788   1.993 -0.0292  2.5136 -0.0065
16996TIP3    H272480   4.657   3.692   1.908 -2.7253 -0.8997  1.0609
16997TIP3   OH272481   1.818   3.374  13.569  0.5239 -0.3421 -0.6783
16997TIP3    H172482   1.754   3.346  13.503 -0.1227  0.2450 -0.3043
16997TIP3    H272483   1.875   3.298  13.580 -1.5484 -1.7622  0.7620
16998TIP3   OH272484   3.457   4.937   3.987  0.6333 -0.5564 -0.0082
16998TIP3    H172485   3.443   4.915   4.079 -1.4302 -0.6166 -0.2978
16998TIP3    H272486   3.520   5.009   3.989  0.7526 -0.6641  1.4222
16999TIP3   OH272487   0.799   3.494   1.636 -0.4056  0.3202  0.1629
16999TIP3    H172488   0.796   3.577   1.589  3.0256 -1.0812 -3.0633
16999TIP3    H272489   0.713   3.454   1.619 -0.3703  1.1752 -2.5776
17000TIP3   OH272490   3.067   5.271  16.584  0.3452  0.0175 -0.2552
17000TIP3    H172491   3.132   5.317  16.531  1.6007 -0.2061  1.0496
17000TIP3    H272492   3.075   5.180  16.557 -1.9790  0.3985 -2.6692
17001TIP3   OH272493   3.602   5.285   5.662  0.6034 -0.5331 -0.1382
17001TIP3    H172494   3.523   5.235   5.681  0.8443 -1.0740 -0.5365
17001TIP3    H272495   3.663   5.262   5.732 -0.3181  1.6242  1.5187
17002TIP3   OH272496   4.412   6.136   6.081  0.1200 -0.0914 -0.5592
17002TIP3    H172497   4.485   6.174   6.129  0.0435  0.6272 -0.9888
17002TIP3    H272498   4.403   6.048   6.116  1.3696 -0.2917 -0.7008
17003TIP3   OH272499   5.857   0.400  15.158 -0.2592  0.3437  1.2419
17003TIP3    H172500   5.901   0.353  15.229 -0.0687  1.0608  1.6151
17003TIP3    H272501   5.764   0.389  15.177 -0.2042  1.2537  2.1119
17004TIP3   OH272502   6.696   4.798   3.230  0.0871  0.7356 -0.5772
17004TIP3    H172503   6.744   4.724   3.191  0.7981  1.0164 -0.2576
17004TIP3    H272504   6.756   4.872   3.221 -0.3512  1.1303 -0.2839
17005TIP3   OH272505   0.503   0.836  13.758 -0.4764  0.2794  0.6688
17005TIP3    H172506   0.470   0.776  13.691 -2.4561  1.1544  0.7863
17005TIP3    H272507   0.492   0.789  13.840  0.0775 -0.0315  0.5699
17006TIP3   OH272508   5.641   5.456  15.528  0.1387 -0.7980 -0.0056
17006TIP3    H172509   5.681   5.369  15.539 -1.2974 -1.4278  0.5259
17006TIP3    H272510   5.549   5.443  15.553  0.1933  1.1861  1.4711
17007TIP3   OH272511   4.520   0.858   5.349 -0.3558  0.0744  0.0727
17007TIP3    H172512   4.586   0.791   5.330  0.6174  1.4523 -1.7697
17007TIP3    H272513   4.568   0.926   5.396 -0.4110  1.0360 -1.1837
17008TIP3   OH272514   4.333   6.679  15.483 -0.6152  0.0630  0.6797
17008TIP3    H172515   4.274   6.755  15.488 -1.5506 -0.5738 -0.1520
17008TIP3    H272516   4.341   6.662  15.389  2.8248  1.5365  0.5710
17009TIP3   OH272517   4.207   6.241  12.496  0.5237 -0.0066  0.2643
17009TIP3    H172518   4.125   6.290  12.491 -0.9694 -2.3797  0.2794
17009TIP3    H272519   4.270   6.304  12.532 -1.0914  2.0762 -0.3594
17010TIP3   OH272520   1.542   1.508   3.625 -0.5212 -0.3209  0.6675
17010TIP3    H172521   1.448   1.509   3.610 -0.5507 -1.1550  0.7254
17010TIP3    H272522   1.553   1.540   3.714 -0.6105  1.3900  0.0880
17011TIP3   OH272523   2.915   0.399   5.850 -0.5038 -0.1628  0.1933
17011TIP3    H172524   2.924   0.304   5.837  2.8773  0.0780 -0.2436
17011TIP3    H272525   2.983   0.421   5.914 -0.2205  2.1293 -0.7952
17012TIP3   OH272526   2.247   4.722   2.001  0.0172  0.0727  0.0294
17012TIP3    H172527   2.234   4.630   1.976 -2.0492  0.2842  0.1800
17012TIP3    H272528   2.266   4.767   1.918  0.3634 -0.3639 -0.1333
17013TIP3   OH272529   6.001   1.101  15.797 -0.0204 -0.2422 -0.0439
17013TIP3    H172530   6.079   1.050  15.777  0.7049  1.4580 -1.8966
17013TIP3    H272531   6.030   1.192  15.792 -1.7549  0.4048  0.9069
17014TIP3   OH272532   4.104   6.630  16.619 -0.1245  0.3101  0.0336
17014TIP3    H172533   4.057   6.668  16.545  1.7263  0.2902 -1.2504
17014TIP3    H272534   4.143   6.550  16.583 -0.5000 -0.5639  1.5002
17015TIP3   OH272535   2.953   1.671  15.201 -0.7997 -0.2264  0.2712
17015TIP3    H172536   2.886   1.634  15.258 -1.2033  0.5995  0.3527
17015TIP3    H272537   2.962   1.608  15.130 -1.5042 -0.4523  0.3707
17016TIP3   OH272538   6.089   4.071  16.813  1.0904  1.1820 -0.0357
17016TIP3    H172539   6.028   3.999  16.797  1.9019  0.2314  1.0458
17016TIP3    H272540   6.043   4.149  16.781  0.5462  0.0937 -2.0214
17017TIP3   OH272541   3.584   3.985   5.053  0.7967 -0.2366  0.3610
17017TIP3    H172542   3.554   3.912   5.108 -1.7442  1.1367  0.9954
17017TIP3    H272543   3.605   3.945   4.969 -0.4626 -1.7364  0.7150
17018TIP3   OH272544   1.607   1.345   5.122  0.2409  0.0862 -0.0025
17018TIP3    H172545   1.694   1.328   5.085  0.5196 -0.8887  1.0426
17018TIP3    H272546   1.580   1.428   5.082  1.9844  0.8094  0.2026
17019TIP3   OH272547   6.230   3.113  14.584  0.4126  0.2051 -0.1674
17019TIP3    H172548   6.306   3.158  14.620 -0.4109  1.1245  0.4771
17019TIP3    H272549   6.213   3.156  14.501  0.3974  0.2375 -0.1479
17020TIP3   OH272550   2.834   5.012  16.673 -0.0978 -0.1319 -0.1180
17020TIP3    H172551   2.793   5.085  16.626  1.8608  1.3143  0.3191
17020TIP3    H272552   2.869   4.956  16.603 -2.4147 -1.2374 -0.4894
17021TIP3   OH272553   2.599   2.587   3.758  0.4476  0.2428  0.4346
17021TIP3    H172554   2.535   2.644   3.800 -1.0192 -0.3383 -0.9263
17021TIP3    H272555   2.649   2.645   3.700 -1.6579  0.1093 -1.6641
17022TIP3   OH272556   0.359   3.646  13.894 -0.0223  1.1321 -0.0090
17022TIP3    H172557   0.308   3.569  13.918  2.2057 -0.3206  0.2776
17022TIP3    H272558   0.331   3.666  13.805  0.8999 -1.4049 -0.9530
17023TIP3   OH272559   3.508   1.910  12.509  0.8425 -0.1276 -0.0237
17023TIP3    H172560   3.469   1.962  12.439 -0.6400 -1.0839  0.0332
17023TIP3    H272561   3.450   1.924  12.584  2.2085  0.6020  0.9480
17024TIP3   OH272562   1.794   0.680   3.276  0.2508  0.1854 -0.1203
17024TIP3    H172563   1.824   0.629   3.200  0.2481 -1.4827  0.9321
17024TIP3    H272564   1.742   0.617   3.327  0.9595  1.0032  1.6802
17025TIP3   OH272565   0.540   4.488   6.324 -0.2058 -0.0046 -0.1291
17025TIP3    H172566   0.585   4.452   6.401 -0.6060 -2.2359 -0.8651
17025TIP3    H272567   0.447   4.489   6.348 -0.5032 -2.0883 -1.0338
17026TIP3   OH272568   4.463   4.310  17.076 -1.0698  0.7348  0.5583
17026TIP3    H172569   4.495   4.380  17.018 -1.6881  1.4227  1.0361
17026TIP3    H272570   4.387   4.274  17.030 -1.1635  0.8394  0.6306
17027TIP3   OH272571   4.428   2.587   1.887  0.2383  0.2949 -0.4253
17027TIP3    H172572   4.425   2.493   1.870  1.2282  0.1147  0.2720
17027TIP3    H272573   4.405   2.596   1.980  1.0974  0.6297 -0.2282
17028TIP3   OH272574   0.400   3.137   2.238 -0.1078  0.5402 -0.4097
17028TIP3    H172575   0.327   3.195   2.217 -0.0997  0.3489 -0.9946
17028TIP3    H272576   0.426   3.100   2.154 -0.2179 -0.4357 -0.0207
17029TIP3   OH272577   1.097   5.419  13.398 -0.2657 -0.2539  0.0997
17029TIP3    H172578   1.023   5.474  13.371 -0.1818 -0.8981 -1.5053
17029TIP3    H272579   1.058   5.352  13.454 -0.9273 -0.6694 -0.8472
17030TIP3   OH272580   4.560   6.236  14.302  0.7958 -0.3920  0.3251
17030TIP3    H172581   4.548   6.147  14.270  0.8411 -0.2179 -0.1756
17030TIP3    H272582   4.654   6.242  14.322  0.6282 -0.7670  1.3129
17031TIP3   OH272583   5.859   5.904   3.104  0.4679  0.4096  0.5113
17031TIP3    H172584   5.931   5.920   3.166  0.5115  0.1940  0.5156
17031TIP3    H272585   5.788   5.960   3.136 -0.3022 -1.3802  2.1120
17032TIP3   OH272586   5.459   6.227   4.141 -0.9734  0.2456  0.6198
17032TIP3    H172587   5.468   6.217   4.236 -0.9264  0.3513  0.6263
17032TIP3    H272588   5.534   6.281   4.116 -0.7498 -0.1351  0.4618
17033TIP3   OH272589   0.857   4.178  16.684 -0.4370 -0.0363 -0.1884
17033TIP3    H172590   0.918   4.138  16.621  0.8375 -0.1259  1.0324
17033TIP3    H272591   0.784   4.117  16.689 -0.0137 -0.6005 -0.7437
17034TIP3   OH272592   3.756   3.471   6.114  0.2907  0.0391 -0.2204
17034TIP3    H172593   3.801   3.453   6.196  1.3733  2.1888 -0.2664
17034TIP3    H272594   3.668   3.436   6.126  0.5524 -0.0543  1.6842
17035TIP3   OH272595   2.999   5.486  15.634  0.3782 -0.0710 -0.4921
17035TIP3    H172596   3.052   5.464  15.710  0.5777 -0.0037 -0.6117
17035TIP3    H272597   3.020   5.577  15.616 -1.6581  0.7717  1.0029
17036TIP3   OH272598   4.723   1.141  14.885 -0.0110  0.1415  0.0337
17036TIP3    H172599   4.754   1.232  14.887 -1.3574  0.6362 -0.0553
17036TIP3    H272600   4.743   1.110  14.797 -0.7418  0.8170 -0.3826
17037TIP3   OH272601   3.394   3.362   0.323 -0.3483  0.5571  0.1838
17037TIP3    H172602   3.465   3.426   0.320  0.0466  0.0927 -2.4773
17037TIP3    H272603   3.314   3.414   0.308 -0.2450  0.6823  0.0652
17038TIP3   OH272604   5.131   0.010  13.687  0.1301 -0.0972  0.0918
17038TIP3    H172605   5.206  -0.040  13.655  0.7821  1.1278 -0.3689
17038TIP3    H272606   5.167   0.096  13.709 -0.7708 -0.1504  1.8826
17039TIP3   OH272607   1.796   6.434   4.465  0.5755 -0.6987 -0.3050
17039TIP3    H172608   1.769   6.466   4.379  1.0099 -0.2091 -0.2644
17039TIP3    H272609   1.752   6.350   4.474  0.4623 -0.7168 -0.9741
17040TIP3   OH272610   3.054   3.347  16.496 -0.2952  0.1314 -0.6718
17040TIP3    H172611   3.016   3.432  16.517 -2.4820 -1.2205  1.2204
17040TIP3    H272612   3.112   3.365  16.422 -1.3719  3.0778 -0.9328
17041TIP3   OH272613   5.183   3.036   5.061 -0.5165  0.1529  0.5278
17041TIP3    H172614   5.161   2.948   5.031  2.7577 -0.8650  0.7282
17041TIP3    H272615   5.178   3.031   5.156 -0.1298  0.1080  0.5476
17042TIP3   OH272616   3.341   6.578  10.498 -0.0886  0.0468 -0.0528
17042TIP3    H172617   3.295   6.499  10.526 -0.9881  0.6376  0.1997
17042TIP3    H272618   3.425   6.575  10.544 -0.0592 -0.8149 -0.1477
17043TIP3   OH272619   0.439   2.133  15.464 -0.3367  0.3625  0.0030
17043TIP3    H172620   0.422   2.040  15.452 -0.6238  0.5095 -0.8233
17043TIP3    H272621   0.509   2.153  15.401  1.0489  0.3349  1.4672
17044TIP3   OH272622   2.038   0.570  13.584 -0.1046  0.2535 -0.0158
17044TIP3    H172623   2.048   0.475  13.583  0.8110  0.3473 -0.1955
17044TIP3    H272624   1.991   0.588  13.665 -0.6291 -0.3826 -0.1670
17045TIP3   OH272625   0.379   6.225   4.286  0.0044 -0.1177  0.1688
17045TIP3    H172626   0.290   6.243   4.255  0.3736  0.2594 -0.6928
17045TIP3    H272627   0.407   6.148   4.237  0.2557 -0.0688  0.2314
17046TIP3   OH272628   3.857   3.743  16.447  0.2472 -0.2610 -0.4125
17046TIP3    H172629   3.810   3.743  16.530  0.5507 -0.3544 -0.2417
17046TIP3    H272630   3.798   3.698  16.386  1.7282 -4.1429  0.7190
17047TIP3   OH272631   6.132   4.979   5.839  0.3769 -0.1272 -0.0276
17047TIP3    H172632   6.165   4.903   5.886 -0.4199  1.3481  3.1822
17047TIP3    H272633   6.197   5.048   5.855 -0.6972  0.8466  0.3164
17048TIP3   OH272634   4.163   5.661  14.953  0.0005  0.5068 -0.4827
17048TIP3    H172635   4.242   5.689  14.998  0.6408 -0.7871 -0.7392
17048TIP3    H272636   4.111   5.741  14.941  0.3352  1.0627  1.4812
17049TIP3   OH272637   2.762   4.742  14.030  0.3460  0.0018 -0.0462
17049TIP3    H172638   2.764   4.759  14.124  1.6431  0.1178 -0.0814
17049TIP3    H272639   2.703   4.810  13.995  2.9301  2.5764  0.2266
17050TIP3   OH272640   0.837   1.680   2.118  0.2879 -0.2575 -0.1130
17050TIP3    H172641   0.793   1.596   2.130 -0.2915  0.2661  1.9109
17050TIP3    H272642   0.806   1.712   2.034 -1.8234 -0.7629  0.4138
17051TIP3   OH272643   1.164   0.271  13.417 -0.7297 -0.3742 -0.5883
17051TIP3    H172644   1.204   0.246  13.501 -0.9788  0.2255 -0.2897
17051TIP3    H272645   1.233   0.319  13.371 -1.0698  0.6151 -0.0941
17052TIP3   OH272646   2.213   6.793  12.827  0.3277 -0.4857  0.1219
17052TIP3    H172647   2.128   6.831  12.807 -0.4206 -2.4768 -0.7008
17052TIP3    H272648   2.233   6.736  12.753  2.2318 -0.3334  0.4563
17053TIP3   OH272649   2.601   4.928  17.178 -0.2295 -0.3822 -0.3793
17053TIP3    H172650   2.590   4.833  17.191  2.1023 -0.7472 -0.4991
17053TIP3    H272651   2.655   4.935  17.099  0.6653  0.9649  0.3081
17054TIP3   OH272652   0.162   5.784   0.501  0.2343 -0.2082  0.3398
17054TIP3    H172653   0.154   5.712   0.438  2.2563 -0.7555  0.6557
17054TIP3    H272654   0.241   5.764   0.551  0.5824  1.9787  0.7737
17055TIP3   OH272655   2.764   3.542   2.079 -0.0345  0.4220  0.1680
17055TIP3    H172656   2.740   3.601   2.150 -1.2366 -1.0067  1.0163
17055TIP3    H272657   2.828   3.482   2.119  0.6286  0.6894 -0.4718
17056TIP3   OH272658   4.646   3.031   2.435 -0.5146  0.1738  0.1152
17056TIP3    H172659   4.733   3.035   2.395 -0.0973  0.5722  1.0368
17056TIP3    H272660   4.616   3.121   2.439 -0.1214  0.2677  1.5778
17057TIP3   OH272661   2.511   6.415   5.562  0.2088  0.5271  0.5686
17057TIP3    H172662   2.524   6.356   5.636 -0.8346  0.2929  0.5810
17057TIP3    H272663   2.465   6.362   5.497 -1.1061  1.4334  0.7367
17058TIP3   OH272664   5.694   5.589  14.710 -0.4528 -0.3476  0.2282
17058TIP3    H172665   5.666   5.573  14.620 -0.9982 -0.5171  0.4250
17058TIP3    H272666   5.613   5.608  14.757 -0.0395  1.1547  0.3961
17059TIP3   OH272667   4.632   5.332  15.920 -0.2949 -0.1069 -0.0290
17059TIP3    H172668   4.654   5.417  15.882  1.0495  1.4889  3.7627
17059TIP3    H272669   4.703   5.274  15.892  0.5314  0.9199 -0.1542
17060TIP3   OH272670   4.033   2.588   5.621  0.0459  0.1853 -0.0399
17060TIP3    H172671   4.123   2.601   5.652 -0.5653  1.7431  1.2125
17060TIP3    H272672   4.002   2.511   5.670  0.7957 -0.5977 -0.7624
17061TIP3   OH272673   6.233   0.620   0.530 -0.5115  0.2467  0.2489
17061TIP3    H172674   6.237   0.713   0.510 -0.9166  0.1537 -0.2775
17061TIP3    H272675   6.308   0.605   0.588 -0.3160  0.8519  0.1608
17062TIP3   OH272676   4.097   2.139  16.550 -0.4396  0.0138  0.1131
17062TIP3    H172677   4.176   2.119  16.601 -0.7876 -0.1604  0.5937
17062TIP3    H272678   4.065   2.053  16.521 -0.3728  0.0946 -0.2077
17063TIP3   OH272679   2.912   1.006   4.717 -0.3682  0.6505  0.1758
17063TIP3    H172680   2.987   0.953   4.746 -0.5569 -0.3256 -1.0155
17063TIP3    H272681   2.950   1.073   4.661 -0.2239  1.1923  0.9159
17064TIP3   OH272682   4.082   4.290   0.372 -0.0826 -0.5744  0.0797
17064TIP3    H172683   4.129   4.214   0.339  1.9562  1.2192 -1.4852
17064TIP3    H272684   4.101   4.292   0.465  2.2588 -0.4564 -0.3402
17065TIP3   OH272685   1.252   3.652  12.669  0.0771 -0.0418  0.0834
17065TIP3    H172686   1.295   3.566  12.677  0.7917  0.3688  0.8655
17065TIP3    H272687   1.304   3.709  12.726  0.2518  1.1662 -1.2612
17066TIP3   OH272688   6.419   0.803   4.955 -0.0437 -0.4673  0.1454
17066TIP3    H172689   6.340   0.844   4.991 -0.8504 -0.1129 -1.8606
17066TIP3    H272690   6.390   0.715   4.930  0.4251 -0.6253  0.1652
17067TIP3   OH272691   6.503   4.705   1.374  0.2634  0.5773  0.4097
17067TIP3    H172692   6.566   4.761   1.419 -1.1350  1.6153  1.1382
17067TIP3    H272693   6.433   4.765   1.348 -0.4231 -0.5521 -0.3956
17068TIP3   OH272694   1.561   0.378   1.727  0.3889  0.3483  0.3092
17068TIP3    H172695   1.628   0.347   1.788 -0.4042 -0.3228  0.8621
17068TIP3    H272696   1.599   0.458   1.689  1.7340 -0.3238  0.1713
17069TIP3   OH272697   2.506   6.286  11.210 -0.8704  0.6576 -0.4739
17069TIP3    H172698   2.477   6.335  11.287 -2.1108 -1.0396  0.2124
17069TIP3    H272699   2.600   6.298  11.207 -0.5444 -0.5157  2.3152
17070TIP3   OH272700   2.568   3.798   1.504  0.0272  0.2035 -0.3024
17070TIP3    H172701   2.509   3.793   1.579 -1.8480  3.0179 -1.3919
17070TIP3    H272702   2.588   3.707   1.482 -4.6322 -1.0866 -0.2795
17071TIP3   OH272703   4.813   2.913   4.214 -0.2420 -0.4988  0.1672
17071TIP3    H172704   4.868   2.988   4.237 -0.8193 -0.5951  2.0926
17071TIP3    H272705   4.723   2.943   4.230 -0.7200 -0.6701 -1.9420
17072TIP3   OH272706   5.223   4.004   0.441 -0.0434  0.3811  0.0223
17072TIP3    H172707   5.288   4.026   0.374  0.2768  2.9458  1.0342
17072TIP3    H272708   5.272   4.004   0.523 -0.7410 -1.0339  0.4769
17073TIP3   OH272709   0.927   5.430   6.556 -0.1689 -0.0876 -0.0829
17073TIP3    H172710   1.005   5.483   6.572  0.2449 -1.1973  1.8677
17073TIP3    H272711   0.961   5.344   6.533 -0.8344 -0.3696 -0.0289
17074TIP3   OH272712   2.943   0.310   2.876  0.2073  0.1101  0.0840
17074TIP3    H172713   2.954   0.309   2.781  1.1643 -0.2758  0.1906
17074TIP3    H272714   2.962   0.400   2.902 -1.0291  0.4725 -0.1806
17075TIP3   OH272715   3.875   0.999  14.027 -0.1143  0.2791 -0.0580
17075TIP3    H172716   3.892   0.910  14.060 -0.8477  0.7738  1.7831
17075TIP3    H272717   3.813   0.986  13.955  0.3798 -0.7418 -0.3251
17076TIP3   OH272718   5.694   6.199   2.826  0.0170  0.0638  0.6050
17076TIP3    H172719   5.690   6.264   2.896  2.2710  0.3797  0.5247
17076TIP3    H272720   5.673   6.249   2.747  0.3337  0.3820  0.7159
17077TIP3   OH272721   0.412   4.823   3.018 -0.2310  0.5973  0.0104
17077TIP3    H172722   0.417   4.737   3.060  0.4380  0.6633  0.0820
17077TIP3    H272723   0.427   4.806   2.925  1.0676  0.7567  0.1766
17078TIP3   OH272724   0.617   3.590  10.411  0.0265  0.5699 -0.6402
17078TIP3    H172725   0.594   3.558  10.324 -1.3603  0.9579 -0.4302
17078TIP3    H272726   0.678   3.524  10.445 -0.3182 -0.1805 -1.4507
17079TIP3   OH272727   1.026   6.030   6.344  0.3627  0.1398  0.0402
17079TIP3    H172728   1.073   6.084   6.407  0.5945 -0.2796  0.2308
17079TIP3    H272729   1.004   5.951   6.393 -0.3185  0.2253 -0.1207
17080TIP3   OH272730   1.501   4.283  15.302 -0.0708 -0.1653 -0.2254
17080TIP3    H172731   1.577   4.250  15.253  0.2039  0.1771 -0.0392
17080TIP3    H272732   1.529   4.369  15.334 -0.5292 -0.0511 -0.1257
17081TIP3   OH272733   3.922   2.824   2.225  0.3424 -0.0430  0.1062
17081TIP3    H172734   3.920   2.812   2.130  1.1165  0.1952  0.0546
17081TIP3    H272735   3.887   2.742   2.260  1.3099 -0.6778 -0.3611
17082TIP3   OH272736   4.681   3.986  12.658 -0.1113  0.2729 -0.5873
17082TIP3    H172737   4.664   3.915  12.596  1.1653 -3.0793  2.5786
17082TIP3    H272738   4.756   4.033  12.620  0.1393 -1.1403 -1.9531
17083TIP3   OH272739   4.639   0.225  15.867  0.2444 -0.1808  0.3823
17083TIP3    H172740   4.712   0.179  15.825  1.2492  0.4862  1.3415
17083TIP3    H272741   4.591   0.266  15.794 -0.0447 -1.8139 -0.3871
17084TIP3   OH272742   3.706   5.813   6.443  0.5550  0.4897 -0.1724
17084TIP3    H172743   3.773   5.877   6.467  0.5032  0.6206 -0.3686
17084TIP3    H272744   3.719   5.740   6.504  1.0136  0.4216 -0.3416
17085TIP3   OH272745   1.416   5.383   4.960  0.1391 -0.4424 -0.1537
17085TIP3    H172746   1.434   5.366   5.052 -0.5468  0.2858  0.1246
17085TIP3    H272747   1.378   5.302   4.927 -0.4462 -0.4024  0.4285
17086TIP3   OH272748   1.291   0.106   0.106 -0.3330 -0.7755 -0.4099
17086TIP3    H172749   1.217   0.142   0.156 -0.6032  0.6365 -1.7707
17086TIP3    H272750   1.332   0.182   0.065  0.9863 -1.7064 -0.8943
17087TIP3   OH272751   1.696   6.625  15.951 -0.0734  0.0626 -0.5501
17087TIP3    H172752   1.637   6.696  15.977  1.1286  1.3980 -1.3230
17087TIP3    H272753   1.680   6.614  15.857 -0.8230 -1.2899 -0.2980
17088TIP3   OH272754   5.055   4.961  12.491 -0.0684 -0.4914  0.3090
17088TIP3    H172755   5.063   5.048  12.451  2.4792 -0.8973 -0.2488
17088TIP3    H272756   5.132   4.914  12.460 -0.5244 -2.4146  1.9353
17089TIP3   OH272757   6.232   3.299   0.533  0.0163 -0.5594  0.4792
17089TIP3    H172758   6.299   3.276   0.597 -0.0472 -0.7152  0.4924
17089TIP3    H272759   6.171   3.225   0.535 -0.9358  0.2053  1.5150
17090TIP3   OH272760   2.423   1.306   2.218  0.1651 -0.2604 -0.5030
17090TIP3    H172761   2.370   1.258   2.281  0.3637  1.2505  0.8591
17090TIP3    H272762   2.509   1.264   2.222 -0.2181 -1.0956 -0.8545
17091TIP3   OH272763   0.025   6.806  14.931  0.3333  0.5301 -1.0075
17091TIP3    H172764   0.057   6.799  14.841 -1.5404 -0.1562 -1.6726
17091TIP3    H272765   0.002   6.898  14.941  2.6814  1.1125 -0.4032
17092TIP3   OH272766   4.119   1.604  16.477  0.0513  0.1020 -0.4635
17092TIP3    H172767   4.083   1.568  16.396  0.8313  0.8339 -1.1599
17092TIP3    H272768   4.052   1.588  16.543 -1.8254  1.8571 -1.8068
17093TIP3   OH272769   3.032   4.763  12.925 -0.0389  0.6933 -0.5998
17093TIP3    H172770   3.115   4.735  12.887  0.0404  0.7208 -0.4503
17093TIP3    H272771   3.044   4.751  13.020  0.0199  1.3002 -0.5256
17094TIP3   OH272772   6.201   4.986   0.774  0.2088  0.3828  0.0441
17094TIP3    H172773   6.239   4.992   0.687  0.8064  0.4169  0.3062
17094TIP3    H272774   6.264   4.935   0.825  0.3357  1.1725  0.7074
17095TIP3   OH272775   5.253   5.224  11.590 -0.0276 -0.5071 -0.6947
17095TIP3    H172776   5.204   5.221  11.672  1.5511 -1.6356  0.2594
17095TIP3    H272777   5.318   5.293  11.604 -0.1686 -0.2570 -1.2550
17096TIP3   OH272778   5.654   6.613   1.325  0.0405  0.0681  0.3639
17096TIP3    H172779   5.596   6.540   1.348 -0.4636  0.7668  1.4111
17096TIP3    H272780   5.662   6.608   1.230 -1.4909 -0.2410  0.2170
17097TIP3   OH272781   5.682   6.019  14.814 -0.5409 -0.4824  0.4081
17097TIP3    H172782   5.721   5.948  14.764 -0.6431  1.0860 -2.0671
17097TIP3    H272783   5.756   6.072  14.844 -0.5545 -0.4078  0.3104
17098TIP3   OH272784   3.367   4.888  14.692 -0.5552 -0.0964 -0.3317
17098TIP3    H172785   3.454   4.929  14.696 -0.9121  0.6851 -0.4349
17098TIP3    H272786   3.315   4.947  14.638 -1.1009 -0.6666 -0.4445
17099TIP3   OH272787   2.297   4.279   3.940  0.3642 -0.1975  0.5433
17099TIP3    H172788   2.232   4.217   3.909  1.2213 -1.5591  1.3603
17099TIP3    H272789   2.364   4.279   3.871 -1.1101  2.3414 -1.0361
17100TIP3   OH272790   5.986   0.848  10.988  0.0181  0.4543 -0.3402
17100TIP3    H172791   6.068   0.834  11.036 -1.0869  0.4462  1.6491
17100TIP3    H272792   5.989   0.940  10.960  0.1985  0.7882  0.7514
17101TIP3   OH272793   2.017   6.661  11.950 -0.5887 -0.7471 -0.2548
17101TIP3    H172794   1.954   6.609  12.000  1.7281 -2.7368  0.7749
17101TIP3    H272795   2.042   6.605  11.877  0.6288 -0.3447 -0.1650
17102TIP3   OH272796   1.710   5.003  13.549 -0.2886 -0.1825 -0.8016
17102TIP3    H172797   1.739   5.076  13.494  0.5457 -1.3675 -2.0079
17102TIP3    H272798   1.790   4.954  13.568 -0.5538  0.1846  1.5238
17103TIP3   OH272799   1.930   5.941  12.350  0.8690 -0.3255  0.0814
17103TIP3    H172800   1.858   6.000  12.332  0.1257 -0.0486  3.4246
17103TIP3    H272801   1.943   5.893  12.268 -2.1552  0.5882 -1.0386
17104TIP3   OH272802   4.315   5.753  12.600  0.0724 -0.1797  0.6262
17104TIP3    H172803   4.299   5.846  12.585 -0.8044 -0.2764  0.9245
17104TIP3    H272804   4.403   5.749  12.637 -0.1137  0.5820  1.1570
17105TIP3   OH272805   1.018   0.645   2.008  0.2584 -0.0116  0.0035
17105TIP3    H172806   0.939   0.682   1.970 -0.2953  0.1071  1.2421
17105TIP3    H272807   1.059   0.718   2.055  1.0207 -0.1185 -0.4675
17106TIP3   OH272808   3.610   1.962  10.974  0.0649 -0.1261  0.2243
17106TIP3    H172809   3.533   1.949  11.029 -0.2830 -2.4095 -0.6825
17106TIP3    H272810   3.575   1.992  10.890  0.1435 -0.9040 -0.1020
17107TIP3   OH272811   3.832   4.638   2.196  0.3296  0.2872 -0.1586
17107TIP3    H172812   3.787   4.691   2.130  0.3897  1.6159  0.8143
17107TIP3    H272813   3.923   4.633   2.166  0.1574  0.1006 -0.6432
17108TIP3   OH272814   4.284   3.070  14.347  0.3327 -0.5339  0.1585
17108TIP3    H172815   4.315   3.155  14.314 -0.4454  0.9633  2.9416
17108TIP3    H272816   4.221   3.040  14.282  0.5496  1.0553 -0.8410
17109TIP3   OH272817   3.427   6.418   5.571  0.1462  0.2224 -0.5563
17109TIP3    H172818   3.451   6.332   5.606 -1.0555 -1.1402 -2.8783
17109TIP3    H272819   3.337   6.432   5.601 -0.5109 -0.4707 -2.1151
17110TIP3   OH272820   3.185   2.926  14.315 -0.0035 -0.5722  0.8021
17110TIP3    H172821   3.130   2.942  14.239  0.7699 -1.7892 -0.0612
17110TIP3    H272822   3.239   3.005  14.323  1.1783 -1.1231 -1.0745
17111TIP3   OH272823   2.122   1.706   3.075 -0.7240 -0.3708  0.3628
17111TIP3    H172824   2.059   1.758   3.023  0.9379  0.7079 -0.6734
17111TIP3    H272825   2.203   1.710   3.025  0.5062 -0.7542  2.2299
17112TIP3   OH272826   3.320   3.156  17.063  0.6295  0.8769 -0.2788
17112TIP3    H172827   3.393   3.189  17.114  1.7484 -3.3269  1.2230
17112TIP3    H272828   3.247   3.153  17.124  0.6575  0.3122 -0.2618
17113TIP3   OH272829   4.037   4.399   5.145 -0.3140 -0.0713 -0.3071
17113TIP3    H172830   3.953   4.435   5.172  0.3937 -1.4744  4.8702
17113TIP3    H272831   4.102   4.452   5.191  1.4936 -0.7703 -1.9075
17114TIP3   OH272832   0.476   4.680   2.802  0.4936  0.2252 -0.1125
17114TIP3    H172833   0.531   4.665   2.880  0.1184 -1.2745 -0.1033
17114TIP3    H272834   0.526   4.641   2.730 -0.0814 -0.2386 -0.2694
17115TIP3   OH272835   6.804   6.264   4.864  0.2502 -0.2540 -0.2337
17115TIP3    H172836   6.839   6.185   4.905  0.8377 -0.5872 -1.3247
17115TIP3    H272837   6.882   6.314   4.838 -0.0245 -0.7649 -2.2402
17116TIP3   OH272838   6.290   3.289   2.820 -0.3780 -0.7375 -0.0789
17116TIP3    H172839   6.371   3.288   2.768  0.5896  2.2680  1.1400
17116TIP3    H272840   6.315   3.253   2.904 -0.7333 -1.2558 -0.1910
17117TIP3   OH272841   4.891   1.060   5.513 -0.5450  0.8134 -0.2278
17117TIP3    H172842   4.916   1.005   5.587 -2.4193  0.3239  0.1123
17117TIP3    H272843   4.929   1.017   5.437  0.3690  0.6377  0.3125
17118TIP3   OH272844   4.496   4.942  17.078 -0.1428 -0.0672  0.5164
17118TIP3    H172845   4.509   5.021  17.132 -0.6843 -0.6073  1.4663
17118TIP3    H272846   4.573   4.888  17.096  0.7274  0.6288 -0.8934
17119TIP3   OH272847   4.912   5.211   5.642  0.0361  0.2331 -0.4089
17119TIP3    H172848   4.914   5.186   5.549  1.6117  2.6155 -1.1119
17119TIP3    H272849   4.824   5.246   5.656 -0.9027 -1.9775 -0.3938
17120TIP3   OH272850   6.602   5.939  16.691 -0.1901  0.1268  0.1866
17120TIP3    H172851   6.571   6.021  16.653  0.3310  1.9107  3.2886
17120TIP3    H272852   6.689   5.926  16.652  0.0939  1.5770  0.2856
17121TIP3   OH272853   5.905   1.457  15.930 -0.8862  0.2019 -0.3219
17121TIP3    H172854   5.815   1.426  15.921 -1.4066  1.2849  0.8743
17121TIP3    H272855   5.907   1.498  16.016  0.5206  1.0021 -0.7166
17122TIP3   OH272856   0.951   2.250   1.544  0.1380 -0.2907 -0.2092
17122TIP3    H172857   0.967   2.165   1.503  1.3694 -1.5103  2.5705
17122TIP3    H272858   1.026   2.304   1.516  1.2156 -1.2511  0.7317
17123TIP3   OH272859   1.574   4.628   3.045 -0.0521 -0.0557 -0.3022
17123TIP3    H172860   1.535   4.562   3.103  2.3341  0.0785  1.6124
17123TIP3    H272861   1.645   4.582   3.001  0.6484  0.8339 -0.1185
17124TIP3   OH272862   6.155   3.448  16.847  0.0095  0.1771  0.5082
17124TIP3    H172863   6.176   3.429  16.756  2.5903  0.1652  1.0257
17124TIP3    H272864   6.089   3.517  16.842  1.6608  1.7533 -1.4204
17125TIP3   OH272865   3.128   5.596   0.278  0.2704  0.0885 -0.1551
17125TIP3    H172866   3.194   5.571   0.213 -0.2170 -1.1475 -0.2029
17125TIP3    H272867   3.145   5.689   0.295  1.2773  0.0833 -1.0225
17126TIP3   OH272868   2.261   3.714  15.407  0.7093  0.2199  0.1784
17126TIP3    H172869   2.250   3.633  15.458 -0.6753  1.1748  1.4823
17126TIP3    H272870   2.316   3.688  15.333  1.8164 -1.5076  1.5098
17127TIP3   OH272871   0.458   6.709   5.787 -0.5223  0.0193 -0.1534
17127TIP3    H172872   0.501   6.700   5.702 -0.6673 -0.5091 -0.1762
17127TIP3    H272873   0.487   6.794   5.820 -0.1451  0.0479 -0.5510
17128TIP3   OH272874   2.566   2.991   4.697  0.0463 -0.1034 -0.1735
17128TIP3    H172875   2.604   2.953   4.618 -0.0719  1.6156 -1.1014
17128TIP3    H272876   2.634   3.050   4.730 -0.0782 -0.4706  0.7640
17129TIP3   OH272877   4.720   1.959  11.665 -0.1801  0.5635  0.4474
17129TIP3    H172878   4.743   2.043  11.704  1.4768  0.6862 -0.7022
17129TIP3    H272879   4.795   1.903  11.681 -1.1233 -0.6249  0.8952
17130TIP3   OH272880   1.073   1.824   0.911  0.0140 -0.0856 -0.1971
17130TIP3    H172881   1.165   1.808   0.892 -0.2965 -1.6527 -0.5148
17130TIP3    H272882   1.073   1.892   0.978  1.3442  0.8253 -1.0734
17131TIP3   OH272883   1.153   2.746  11.233  0.2178 -0.0091 -0.3282
17131TIP3    H172884   1.133   2.716  11.144  0.4150  0.9877 -0.7256
17131TIP3    H272885   1.195   2.671  11.275 -1.9951 -1.3301 -0.2740
17132TIP3   OH272886   2.803   0.677   0.575  0.0444  0.3758 -0.3951
17132TIP3    H172887   2.890   0.638   0.573  0.9467  2.3084 -0.7236
17132TIP3    H272888   2.818   0.768   0.598 -1.8472  0.8874 -1.0099
17133TIP3   OH272889   3.444   5.384  15.967 -0.1350 -0.2751  0.0913
17133TIP3    H172890   3.535   5.414  15.976  0.1994 -1.3294  0.3482
17133TIP3    H272891   3.424   5.345  16.052 -1.4782  1.6065  0.7049
17134TIP3   OH272892   4.245   0.032  10.782  0.7949 -0.3889  0.2035
17134TIP3    H172893   4.175   0.013  10.844  1.6266  1.5227  1.8543
17134TIP3    H272894   4.299  -0.048  10.782  0.4015 -0.6767  1.4528
17135TIP3   OH272895   1.407   4.455  17.077 -0.0283 -0.0353  0.0909
17135TIP3    H172896   1.408   4.534  17.022 -0.9382  0.8414  1.2863
17135TIP3    H272897   1.339   4.472  17.142 -0.4668 -1.9673  0.1744
17136TIP3   OH272898   3.815   5.368  12.967 -0.2948  0.4260  0.3300
17136TIP3    H172899   3.889   5.339  13.022 -1.1321  1.6061  2.1663
17136TIP3    H272900   3.856   5.420  12.899  0.7720 -0.9536 -0.1480
17137TIP3   OH272901   3.689   5.960   0.594  0.0566 -0.0849 -0.3378
17137TIP3    H172902   3.775   5.977   0.632  0.4030  0.1951 -1.2330
17137TIP3    H272903   3.696   5.872   0.557 -0.0617 -0.0778 -0.3775
17138TIP3   OH272904   5.050   3.235   1.052  0.3224  0.1332 -0.3346
17138TIP3    H172905   5.011   3.271   1.132 -0.1078  0.0058 -0.4848
17138TIP3    H272906   5.124   3.182   1.083 -0.5050 -0.8217  0.0731
17139TIP3   OH272907   1.995   2.654  12.662  0.0353  0.0191 -0.3115
17139TIP3    H172908   1.999   2.562  12.638  1.5574  0.0721 -0.3900
17139TIP3    H272909   1.907   2.667  12.695  0.7452 -2.3226  3.0012
17140TIP3   OH272910   0.955   2.325  12.196  0.3034 -0.0713 -0.0378
17140TIP3    H172911   0.885   2.299  12.136  1.7955 -3.2631 -0.6229
17140TIP3    H272912   1.002   2.394  12.150  0.6785 -1.5996 -2.0876
17141TIP3   OH272913   3.924   0.554   1.152  0.2727  0.2461  0.1343
17141TIP3    H172914   3.986   0.484   1.170  1.2941 -0.0287 -3.5342
17141TIP3    H272915   3.848   0.510   1.115 -1.8106  0.6965  3.4645
17142TIP3   OH272916   2.608   1.224   1.585 -1.0073  0.2334 -0.1140
17142TIP3    H172917   2.513   1.213   1.575 -1.2210 -1.7276  2.7959
17142TIP3    H272918   2.619   1.252   1.676  1.2336  0.1163 -0.3003
17143TIP3   OH272919   1.628   5.922  17.016 -0.4811 -0.2796  1.0208
17143TIP3    H172920   1.583   5.896  16.935 -0.1201 -0.4877  0.8841
17143TIP3    H272921   1.659   5.840  17.053  1.0112 -0.0361  0.3794
17144TIP3   OH272922   6.049   4.118  16.123 -0.5925  0.3366  0.9640
17144TIP3    H172923   6.092   4.036  16.099 -0.0752  1.0749 -0.8246
17144TIP3    H272924   6.116   4.185  16.109 -1.5785  1.2554  0.4604
17145TIP3   OH272925   6.567   4.031  10.525 -0.5938  0.1009  0.7132
17145TIP3    H172926   6.611   4.065  10.447 -0.6169 -3.6543 -1.1688
17145TIP3    H272927   6.474   4.042  10.506 -0.6406 -1.8369 -0.4458
17146TIP3   OH272928   4.112   6.688  14.652 -0.7511 -0.1553 -0.2055
17146TIP3    H172929   4.168   6.763  14.671 -0.0579 -0.5912 -0.4792
17146TIP3    H272930   4.080   6.660  14.738 -1.3835  0.7236 -0.1421
17147TIP3   OH272931   3.474   2.166   3.738 -0.1319  0.2264 -0.4326
17147TIP3    H172932   3.563   2.133   3.748 -0.1167  0.5732  0.6444
17147TIP3    H272933   3.484   2.261   3.735 -0.3341  0.2290 -1.8752
17148TIP3   OH272934   0.979   3.550  10.631  0.6730  0.1588 -0.0288
17148TIP3    H172935   0.944   3.637  10.650  2.0596  0.4484  1.4701
17148TIP3    H272936   0.993   3.549  10.537 -1.3645  0.7521 -0.3813
17149TIP3   OH272937   6.406   6.709   5.690  0.3272  0.5455  0.7383
17149TIP3    H172938   6.425   6.671   5.605 -1.1431 -1.5641  1.2891
17149TIP3    H272939   6.425   6.639   5.753  1.0495  1.9331  2.1461
17150TIP3   OH272940   5.195   1.831   2.206  0.0344  0.4372  0.2094
17150TIP3    H172941   5.248   1.910   2.216 -0.5975  0.8750  0.2296
17150TIP3    H272942   5.114   1.852   2.253 -0.2466 -0.1248 -0.0198
17151TIP3   OH272943   4.564   1.657   4.662  0.0802  0.6279 -0.2125
17151TIP3    H172944   4.577   1.637   4.570  1.2587 -0.3863  0.1483
17151TIP3    H272945   4.496   1.724   4.663 -1.1438 -0.5277 -1.7185
17152TIP3   OH272946   4.139   4.747  11.945 -0.2603 -0.1901  0.1783
17152TIP3    H172947   4.046   4.760  11.926 -0.2506  0.1669  0.3703
17152TIP3    H272948   4.183   4.760  11.861 -0.2351  1.2147  0.3826
17153TIP3   OH272949   3.967   4.566  12.763  0.5474  0.1562  0.3523
17153TIP3    H172950   3.959   4.548  12.669 -0.6490 -1.1083  0.6555
17153TIP3    H272951   4.057   4.597  12.774  0.8896 -0.2279 -1.1300
17154TIP3   OH272952   6.129   5.420   2.322  0.0438  0.0509  0.1266
17154TIP3    H172953   6.040   5.454   2.334  0.4501  0.8656  0.9231
17154TIP3    H272954   6.125   5.372   2.239 -1.2214 -0.2167  0.3229
17155TIP3   OH272955   4.135   3.125  11.725 -0.2044  0.3677  0.1673
17155TIP3    H172956   4.069   3.107  11.658  1.8651 -1.3041 -1.5726
17155TIP3    H272957   4.087   3.121  11.808 -2.5306  0.7532 -1.0743
17156TIP3   OH272958   1.454   6.140  13.745 -0.3752 -0.0123  0.6309
17156TIP3    H172959   1.374   6.168  13.700 -0.7518 -3.2174 -0.9808
17156TIP3    H272960   1.423   6.081  13.814  0.5616  0.2800  1.3310
17157TIP3   OH272961   0.495   6.469   4.410 -0.0653  0.1204  0.0846
17157TIP3    H172962   0.425   6.403   4.412 -0.1677  0.2482  0.6357
17157TIP3    H272963   0.506   6.487   4.316 -1.6653  1.0410  0.0335
17158TIP3   OH272964   5.893   5.279   5.578 -0.0875  0.2438 -0.4971
17158TIP3    H172965   5.858   5.358   5.538 -1.0553  0.4046  0.6252
17158TIP3    H272966   5.880   5.292   5.672  0.0939 -1.0716 -0.2750
17159TIP3   OH272967   2.654   4.623  11.090 -0.4418 -0.2032 -0.5174
17159TIP3    H172968   2.748   4.636  11.097 -0.2381 -1.3221 -1.0687
17159TIP3    H272969   2.619   4.711  11.073  0.3142  0.4901  1.2906
17160TIP3   OH272970   1.613   3.766  12.079  0.4225  0.4480  0.1081
17160TIP3    H172971   1.661   3.729  12.153  2.0577  2.5709  0.2258
17160TIP3    H272972   1.585   3.853  12.111  0.4199  1.0508 -1.4729
17161TIP3   OH272973   5.462   0.578   5.243 -0.4970  0.0846  0.4928
17161TIP3    H172974   5.547   0.580   5.198  0.2529 -2.2811  1.6098
17161TIP3    H272975   5.461   0.659   5.295  1.4116 -0.1508  0.9822
17162TIP3   OH272976   5.406   4.619   1.713  0.1300  0.4253 -0.5680
17162TIP3    H172977   5.409   4.682   1.640 -1.7122  0.7178 -0.4477
17162TIP3    H272978   5.327   4.642   1.761 -0.2560 -1.5951 -0.1494
17163TIP3   OH272979   4.585   6.743   2.562 -0.3282 -0.4557  0.3602
17163TIP3    H172980   4.638   6.701   2.495  0.4031  0.9582 -0.0074
17163TIP3    H272981   4.510   6.685   2.575 -0.9232 -0.4137 -2.2672
17164TIP3   OH272982   5.443   1.331   2.492 -0.0300  0.0781  0.2427
17164TIP3    H172983   5.395   1.348   2.573 -0.3289 -1.3811  0.4031
17164TIP3    H272984   5.379   1.349   2.422  0.3959  1.8895  0.2638
17165TIP3   OH272985   2.410   2.117  15.160  0.7605 -0.3493 -0.1335
17165TIP3    H172986   2.428   2.042  15.216  0.2024 -0.8171 -0.5738
17165TIP3    H272987   2.494   2.163  15.155  0.9051 -0.5019  0.7787
17166TIP3   OH272988   4.307   5.818  13.349 -0.0354  0.0457  0.1700
17166TIP3    H172989   4.241   5.882  13.321 -0.3086 -1.1548 -2.1698
17166TIP3    H272990   4.257   5.746  13.387  0.0161 -0.2666 -0.3467
17167TIP3   OH272991   2.276   6.612   6.027 -0.3723 -0.2468  0.0460
17167TIP3    H172992   2.213   6.588   6.094 -1.1541  0.3330 -0.4668
17167TIP3    H272993   2.253   6.701   6.003 -0.4675 -0.6300 -1.3801
17168TIP3   OH272994   1.074   1.836  10.214 -0.3299  0.7952 -0.3775
17168TIP3    H172995   1.151   1.791  10.250 -0.2840  0.7129 -0.5762
17168TIP3    H272996   1.093   1.929  10.226  1.0409  0.9239 -2.8403
17169TIP3   OH272997   4.224   1.682  12.546 -0.4195 -0.5430  0.1334
17169TIP3    H172998   4.176   1.653  12.469 -0.6320  0.5215 -0.1530
17169TIP3    H272999   4.311   1.644  12.537 -0.8829 -1.6404  0.1324
17170TIP3   OH273000   0.116   5.975   1.624  0.4335  0.8330  0.0604
17170TIP3    H173001   0.161   5.890   1.625  1.6151  1.4063 -1.2580
17170TIP3    H273002   0.050   5.965   1.555  2.7504  1.9564 -2.5269
17171TIP3   OH273003   5.425   1.662   5.617  0.2706 -0.2414 -0.3286
17171TIP3    H173004   5.370   1.584   5.620  0.9761 -0.8214 -1.5861
17171TIP3    H273005   5.404   1.703   5.534  0.4250  0.5264  0.0048
17172TIP3   OH273006   3.662   4.757  16.988  0.5250  0.3806 -0.1821
17172TIP3    H173007   3.578   4.715  17.002  0.1573  0.3492 -2.1551
17172TIP3    H273008   3.718   4.723  17.058 -0.5376 -1.2143 -0.0504
17173TIP3   OH273009   6.575   5.994  15.665  0.4611 -0.3768 -0.0303
17173TIP3    H173010   6.664   6.025  15.649  1.0156 -2.3507 -1.1909
17173TIP3    H273011   6.527   6.016  15.584 -0.2383  0.9655  0.7104
17174TIP3   OH273012   4.544   6.264   4.036  0.9037 -0.7510 -0.0880
17174TIP3    H173013   4.579   6.221   4.115  1.0834 -1.3780 -0.5005
17174TIP3    H273014   4.458   6.226   4.024  0.1385  0.6136  0.7817
17175TIP3   OH273015   6.189   3.229   4.204 -0.3363 -0.3355 -0.1426
17175TIP3    H173016   6.167   3.209   4.295 -1.6809 -0.7196 -0.5277
17175TIP3    H273017   6.217   3.146   4.167  0.0016 -0.2250 -0.1351
17176TIP3   OH273018   1.621   2.642   4.162  0.0537 -0.2473  0.1106
17176TIP3    H173019   1.626   2.583   4.088 -1.6684 -2.6567  1.7599
17176TIP3    H273020   1.555   2.707   4.136 -1.0113 -1.4364 -0.2809
17177TIP3   OH273021   1.045   5.424  16.639  0.6811  0.1377 -0.4989
17177TIP3    H173022   1.062   5.494  16.576  0.3072 -1.3233 -2.2972
17177TIP3    H273023   0.958   5.444  16.674  0.4846  0.4641 -1.1521
17178TIP3   OH273024   6.311   0.972  16.812  0.4437 -0.0747  0.1531
17178TIP3    H173025   6.346   1.023  16.739 -1.4958  2.5288  0.9076
17178TIP3    H273026   6.256   0.905  16.771  2.0709 -0.8861 -0.8096
17179TIP3   OH273027   0.961   2.295   6.883 -0.4395 -0.1722 -0.6571
17179TIP3    H173028   0.930   2.249   6.804  1.7139 -4.1001  0.5063
17179TIP3    H273029   1.054   2.308   6.867 -0.7964  3.4821 -0.5789
17180TIP3   OH273030   6.030   2.635  14.900 -0.3859  0.3800  0.1557
17180TIP3    H173031   5.943   2.667  14.876 -0.7013  0.7845  1.6860
17180TIP3    H273032   6.079   2.714  14.923  1.0408  0.3583 -2.4664
17181TIP3   OH273033   6.768   3.729  14.536 -0.0745 -0.2023 -0.6828
17181TIP3    H173034   6.783   3.679  14.616  0.7772 -0.0681 -0.7492
17181TIP3    H273035   6.741   3.663  14.472  1.3448 -0.6527 -0.8511
17182TIP3   OH273036   3.018   4.953  14.268 -0.0082  0.3271  0.0071
17182TIP3    H173037   2.949   5.018  14.280 -0.5541 -0.1445 -0.5329
17182TIP3    H273038   2.973   4.876  14.234  0.5625 -0.5120  1.1161
17183TIP3   OH273039   4.067   5.548  14.018  1.2707 -0.3619  1.0260
17183TIP3    H173040   4.017   5.511  13.945 -2.3256  2.2534  1.8858
17183TIP3    H273041   4.107   5.626  13.982 -0.8738  1.1815  1.7630
17184TIP3   OH273042   0.302   0.016  16.559 -0.5504  0.0809  0.0441
17184TIP3    H173043   0.298   0.078  16.632 -1.3445  0.1735 -0.0706
17184TIP3    H273044   0.212  -0.010  16.545 -0.3937  0.0057 -0.8578
17185TIP3   OH273045   1.193   4.259  16.990 -0.3706  0.5633 -0.5904
17185TIP3    H173046   1.178   4.352  16.971  1.7125  0.6009 -2.5283
17185TIP3    H273047   1.261   4.259  17.057 -0.6154  0.4035 -0.3361
17186TIP3   OH273048   5.302   6.324   6.370 -0.1482  0.4510  0.7252
17186TIP3    H173049   5.396   6.316   6.353  0.3264  2.5591  1.9614
17186TIP3    H273050   5.281   6.249   6.424  0.2560 -1.3344 -1.4265
17187TIP3   OH273051   3.575   4.271  11.144 -0.3946 -0.0931 -0.1027
17187TIP3    H173052   3.485   4.279  11.178 -0.9265 -2.1643 -0.9171
17187TIP3    H273053   3.618   4.211  11.205  1.0402  2.1898  1.2864
17188TIP3   OH273054   1.621   3.374  16.154  0.4307 -0.1055 -0.4202
17188TIP3    H173055   1.575   3.292  16.137  0.3493 -0.1644  0.0729
17188TIP3    H273056   1.645   3.370  16.247  0.0959  0.5920 -0.2970
17189TIP3   OH273057   0.608   1.686  12.679  0.3523  0.6878 -0.0716
17189TIP3    H173058   0.688   1.690  12.627  0.1544  1.9853 -0.3202
17189TIP3    H273059   0.637   1.694  12.770  0.7783 -2.4959  0.1649
17190TIP3   OH273060   0.807   3.591   2.054  0.1209  0.2313 -0.0421
17190TIP3    H173061   0.865   3.667   2.064  0.8889 -0.3479  0.0039
17190TIP3    H273062   0.866   3.518   2.033 -0.7437 -0.0551 -1.6205
17191TIP3   OH273063   6.242   0.827  13.131 -0.2060 -0.0653 -0.2520
17191TIP3    H173064   6.290   0.904  13.103 -0.1312  0.2618  0.7494
17191TIP3    H273065   6.261   0.761  13.064 -1.6854  1.2668 -2.1075
17192TIP3   OH273066   4.588   4.454  14.953  0.2334 -0.2766 -0.0873
17192TIP3    H173067   4.607   4.406  15.033 -0.3937  0.2910  0.4229
17192TIP3    H273068   4.569   4.544  14.982 -0.8841 -0.2677 -0.7593
17193TIP3   OH273069   2.200   6.641   4.363  0.2288 -0.2492 -0.3540
17193TIP3    H173070   2.181   6.554   4.328  0.3528  0.3527 -2.0083
17193TIP3    H273071   2.272   6.673   4.309  1.4637  0.1618  1.4692
17194TIP3   OH273072   2.994   3.267   2.620 -0.4249  0.0009  0.6995
17194TIP3    H173073   3.046   3.321   2.679  2.2271  1.1666 -2.4224
17194TIP3    H273074   2.940   3.330   2.571  0.0810 -0.4988 -0.5422
17195TIP3   OH273075   1.780   5.068   6.238  0.0611 -0.5124  0.0512
17195TIP3    H173076   1.751   5.142   6.185  0.8055  0.6584  1.2187
17195TIP3    H273077   1.699   5.023   6.263 -0.3935 -0.1671 -0.7552
17196TIP3   OH273078   1.999   3.980  16.611 -0.7297  0.2282 -0.3528
17196TIP3    H173079   1.933   3.980  16.542 -2.1636  0.5742  0.9768
17196TIP3    H273080   1.963   3.924  16.680  0.6621 -0.1131  0.1419
17197TIP3   OH273081   0.562   3.195   3.822 -0.1451  0.3113  0.3340
17197TIP3    H173082   0.579   3.251   3.897  0.7257  0.4174  0.0661
17197TIP3    H273083   0.629   3.127   3.826  0.4707  0.8204 -0.8252
17198TIP3   OH273084   2.538   4.911  14.004 -0.2509  0.2109  0.1872
17198TIP3    H173085   2.448   4.894  13.976  0.2132  0.0832 -1.3084
17198TIP3    H273086   2.541   5.006  14.016 -0.6708  0.1778  0.6326
17199TIP3   OH273087   1.450   2.377   5.196 -0.5182  0.0017 -0.5596
17199TIP3    H173088   1.518   2.315   5.170  0.5015  0.6454  0.4562
17199TIP3    H273089   1.443   2.367   5.291 -2.1044 -0.2870 -0.6714
17200TIP3   OH273090   4.104   5.761  14.481 -0.0009  0.1208  0.0696
17200TIP3    H173091   4.160   5.766  14.403  0.5746 -2.1013  0.2721
17200TIP3    H273092   4.148   5.698  14.537 -0.6806  1.2940  2.0039
17201TIP3   OH273093   3.983   4.042   1.615  0.5248 -0.8096  0.0767
17201TIP3    H173094   3.994   4.135   1.593  1.6564 -1.0282 -0.3565
17201TIP3    H273095   3.898   4.038   1.658  0.0913  0.3008 -0.6156
17202TIP3   OH273096   1.985   0.055  16.270 -0.0980 -0.2883 -0.3701
17202TIP3    H173097   1.970  -0.018  16.210 -0.0200 -1.4821  1.0166
17202TIP3    H273098   1.904   0.107  16.266 -0.3615 -0.7312 -0.9650
17203TIP3   OH273099   3.033   2.531  10.987 -0.3190  0.9999  0.2956
17203TIP3    H173100   3.123   2.562  10.994  0.8753 -1.0848 -3.3440
17203TIP3    H273101   2.995   2.585  10.917 -0.8427 -0.1965 -0.3633
17204TIP3   OH273102   3.061   0.550   6.096 -0.2289 -0.4217  0.0401
17204TIP3    H173103   3.006   0.510   6.164  1.1736 -0.5375  1.1724
17204TIP3    H273104   3.125   0.483   6.075 -0.4262 -0.2475 -1.1619
17205TIP3   OH273105   0.227   4.565  13.635  0.1340  0.4542 -0.2575
17205TIP3    H173106   0.296   4.502  13.655 -0.2238 -0.3766 -1.4736
17205TIP3    H273107   0.148   4.511  13.625 -0.2037  1.1017 -1.1941
17206TIP3   OH273108   0.627   6.296  11.849  0.4987 -0.0044 -0.4328
17206TIP3    H173109   0.704   6.341  11.815  0.7563 -0.2158 -0.1402
17206TIP3    H273110   0.576   6.364  11.892  0.6264  0.1010 -0.4491
17207TIP3   OH273111   5.162   2.928   3.557  0.0406 -0.1430 -0.5763
17207TIP3    H173112   5.226   2.997   3.578 -0.1531 -0.3456  0.7476
17207TIP3    H273113   5.099   2.932   3.629 -0.8866 -0.6153 -1.3541
17208TIP3   OH273114   2.969   0.607   2.778  0.9732 -0.0159 -0.5639
17208TIP3    H173115   3.052   0.578   2.741  1.2608  0.7777 -0.5478
17208TIP3    H273116   2.991   0.642   2.864  0.1365 -3.1192  1.0755
17209TIP3   OH273117   3.400   2.641  15.339 -0.3994  0.2324 -0.1088
17209TIP3    H173118   3.472   2.579  15.334 -1.4322 -0.9694 -0.3377
17209TIP3    H273119   3.398   2.684  15.253  2.3085  2.9574  1.0047
17210TIP3   OH273120   4.699   4.532  13.296 -0.1789  0.2101 -0.1491
17210TIP3    H173121   4.636   4.566  13.233 -1.3646 -1.9551 -0.2342
17210TIP3    H273122   4.757   4.477  13.244 -0.0463 -0.1539  0.3739
17211TIP3   OH273123   5.385   6.705  14.639 -0.6536  0.3043 -0.5946
17211TIP3    H173124   5.399   6.614  14.613 -0.5243  0.2262 -0.2525
17211TIP3    H273125   5.463   6.751  14.608 -0.0960  0.0584  0.3839
17212TIP3   OH273126   5.503   5.163  12.491 -0.2299 -0.7250  0.0166
17212TIP3    H173127   5.588   5.126  12.467 -0.1473 -0.8375  0.4550
17212TIP3    H273128   5.439   5.102  12.455 -0.2410  0.7034 -2.6016
17213TIP3   OH273129   3.263   4.324   1.968 -0.4092 -0.8090 -0.2286
17213TIP3    H173130   3.184   4.315   1.916  0.0667 -0.2411 -1.0765
17213TIP3    H273131   3.331   4.280   1.917  0.6341  1.9542 -1.4593
17214TIP3   OH273132   4.823   4.765   3.127 -1.1335 -0.0545 -0.1276
17214TIP3    H173133   4.895   4.814   3.168  0.3540 -1.5762 -0.7855
17214TIP3    H273134   4.773   4.831   3.079 -1.3789  1.3549  1.9482
17215TIP3   OH273135   4.239   0.719  11.711  0.1286 -0.3123  0.3312
17215TIP3    H173136   4.196   0.779  11.650  0.6180  0.6917  0.9681
17215TIP3    H273137   4.197   0.736  11.795 -0.9994 -2.1460  0.2011
17216TIP3   OH273138   0.008   5.957   4.219 -0.7710 -0.0352  0.5088
17216TIP3    H173139  -0.040   5.958   4.302  1.5635 -2.4354  2.0457
17216TIP3    H273140   0.099   5.942   4.244  0.2245  0.3809 -2.4645
17217TIP3   OH273141   0.044   2.378   5.521  0.0898 -0.4963 -0.2413
17217TIP3    H173142   0.126   2.428   5.520  1.2446 -2.2455  1.1627
17217TIP3    H273143  -0.025   2.445   5.528  1.5460  0.9385  1.4666
17218TIP3   OH273144   1.917   1.206   2.036 -0.3134  0.1153  0.0886
17218TIP3    H173145   1.827   1.172   2.039  0.1000 -0.9993  0.7177
17218TIP3    H273146   1.955   1.168   1.957  0.6853 -2.4720  1.6614
17219TIP3   OH273147   2.675   5.359   1.158  0.1356 -0.3547  0.3896
17219TIP3    H173148   2.625   5.365   1.239  1.3356 -1.3564  1.2451
17219TIP3    H273149   2.752   5.307   1.181  0.5452 -0.6022 -1.3774
17220TIP3   OH273150   6.678   5.381  11.027 -0.0347 -0.1248 -0.0333
17220TIP3    H173151   6.732   5.342  10.958 -0.4718 -0.4909 -0.1756
17220TIP3    H273152   6.588   5.364  10.999 -0.2244 -1.4495  1.2524
17221TIP3   OH273153   1.725   3.012   4.229  0.1467  0.0741  0.2344
17221TIP3    H173154   1.694   2.965   4.152 -0.7252  0.3860  0.3781
17221TIP3    H273155   1.817   2.986   4.239  0.1904 -0.1613 -0.7512
17222TIP3   OH273156   4.281   3.056   6.544 -0.4157 -0.6545 -0.6228
17222TIP3    H173157   4.296   3.109   6.622 -0.5531 -2.2994  0.5795
17222TIP3    H273158   4.292   3.117   6.470  0.3902  0.7874  0.6411
17223TIP3   OH273159   2.139   2.609   5.531 -0.1623 -0.4167  0.0731
17223TIP3    H173160   2.089   2.560   5.596 -1.0115 -0.1064 -0.3374
17223TIP3    H273161   2.164   2.690   5.576 -0.6547 -0.2501  0.0450
17224TIP3   OH273162   5.335   3.975   5.592 -0.9424  0.2538 -0.2009
17224TIP3    H173163   5.333   4.066   5.621  2.5890  0.3754  0.1719
17224TIP3    H273164   5.347   3.980   5.497  2.2749  0.4483  0.0855
17225TIP3   OH273165   0.948   1.888   5.309 -0.5137 -0.7900 -0.0852
17225TIP3    H173166   0.969   1.978   5.333 -1.2156 -0.6568  0.0206
17225TIP3    H273167   0.914   1.894   5.220  0.9041 -1.1416 -0.6881
17226TIP3   OH273168   4.471   4.956  10.976 -0.2440  0.3766 -0.6778
17226TIP3    H173169   4.535   4.919  11.037 -1.0839 -0.0245 -0.0065
17226TIP3    H273170   4.419   4.880  10.948  1.7898  0.0505 -4.0569
17227TIP3   OH273171   3.695   4.982  13.122  0.0135  0.4513 -0.7376
17227TIP3    H173172   3.626   5.039  13.157  1.2958  0.9127  1.1788
17227TIP3    H273173   3.656   4.895  13.122 -0.8184  0.8087 -0.3706
17228TIP3   OH273174   5.445   1.528   1.573  0.2438 -0.3557 -0.0649
17228TIP3    H173175   5.425   1.444   1.614  1.9535 -0.6388  0.2678
17228TIP3    H273176   5.484   1.580   1.643 -2.7701  1.5931  0.3525
17229TIP3   OH273177   6.345   3.204  12.778 -0.1730 -0.4119 -0.6486
17229TIP3    H173178   6.381   3.137  12.719  2.4497 -0.5651  0.9716
17229TIP3    H273179   6.407   3.276  12.773 -0.7973  0.2454  0.6452
17230TIP3   OH273180   0.696   5.319  10.915  0.4925  0.4788 -0.3514
17230TIP3    H173181   0.758   5.265  10.965  1.1464  1.8704  0.3884
17230TIP3    H273182   0.610   5.292  10.947  0.6058 -1.8713 -1.7861
17231TIP3   OH273183   6.743   1.080   2.319  0.5024  0.2175  0.1415
17231TIP3    H173184   6.770   1.093   2.410 -0.7476  0.1950  0.5315
17231TIP3    H273185   6.673   1.144   2.305 -2.6481 -2.8612  0.6896
17232TIP3   OH273186   2.552   4.517  11.404  0.0483  0.3581 -0.0126
17232TIP3    H173187   2.519   4.492  11.318 -0.3623 -0.9079  0.4889
17232TIP3    H273188   2.647   4.515  11.395  0.0365  2.1839 -0.9532
17233TIP3   OH273189   1.023   5.505  15.466  0.5953  0.1830  0.6520
17233TIP3    H173190   1.049   5.545  15.383 -1.0923  0.9076  0.4249
17233TIP3    H273191   1.085   5.540  15.530  1.1737  0.5630 -0.1037
17234TIP3   OH273192   2.178   1.116  14.760  0.1402  0.1060 -0.5873
17234TIP3    H173193   2.228   1.142  14.683 -1.5600 -1.1945 -2.1966
17234TIP3    H273194   2.228   1.044  14.798  1.8426  1.7901  0.5641
17235TIP3   OH273195   1.175   2.039   4.087 -0.3522 -0.1595 -0.5089
17235TIP3    H173196   1.221   1.996   4.159 -1.0702 -0.0251  0.0387
17235TIP3    H273197   1.236   2.106   4.056 -0.1957  0.0583  0.2489
17236TIP3   OH273198   5.713   6.362  13.141  0.1219  0.0440  0.7966
17236TIP3    H173199   5.719   6.319  13.226 -3.0190  0.4008  1.3204
17236TIP3    H273200   5.685   6.452  13.162 -0.4252  0.2145 -0.5845
17237TIP3   OH273201   3.442   6.098  15.009 -0.4117 -0.0546 -0.2069
17237TIP3    H173202   3.520   6.111  14.955 -0.2494  1.1073  0.2692
17237TIP3    H273203   3.369   6.101  14.947 -0.1802  0.5695 -0.4569
17238TIP3   OH273204   3.415   1.218  11.329 -0.1820  0.3058  0.3315
17238TIP3    H173205   3.455   1.182  11.407  0.8375  0.6181 -0.0240
17238TIP3    H273206   3.346   1.276  11.361 -1.6495 -1.6697  0.9120
17239TIP3   OH273207   2.106   2.895  12.622  0.0387 -0.0952 -0.2545
17239TIP3    H173208   2.078   2.804  12.631 -1.6646  0.0267 -3.2362
17239TIP3    H273209   2.195   2.889  12.588 -0.4654 -0.6986 -1.5259
17240TIP3   OH273210   5.878   6.615  12.859 -0.3450 -0.1686  0.2423
17240TIP3    H173211   5.909   6.671  12.788 -2.0487 -0.6710 -0.9242
17240TIP3    H273212   5.902   6.664  12.939 -0.6376  1.6186 -0.7087
17241TIP3   OH273213   3.971   2.224  13.101  0.4199  0.6666  0.3388
17241TIP3    H173214   3.974   2.254  13.010  0.9503  0.8976  0.4336
17241TIP3    H273215   3.991   2.302  13.153  1.6644  0.1973  0.5956
17242TIP3   OH273216   4.699   6.084  11.459 -0.1514  0.7647 -0.7798
17242TIP3    H173217   4.675   6.164  11.413 -1.1621  0.3941 -0.9302
17242TIP3    H273218   4.615   6.047  11.487  0.2115 -0.8041 -1.6506
17243TIP3   OH273219   3.998   2.294  16.143  0.6460 -0.2021 -0.2185
17243TIP3    H173220   3.923   2.353  16.146  0.8428  0.2073 -2.1435
17243TIP3    H273221   3.964   2.210  16.175 -1.3490 -0.6676 -3.1240
17244TIP3   OH273222   1.986   6.050   4.442  0.1392 -0.4187 -0.0246
17244TIP3    H173223   1.918   5.986   4.419  0.1359 -0.3803 -0.1188
17244TIP3    H273224   1.938   6.130   4.463  0.0758 -0.6945  0.9714
17245TIP3   OH273225   2.400   0.991  13.474  0.5352 -0.5410  0.1958
17245TIP3    H173226   2.373   0.931  13.405 -1.2457  0.2773  0.1422
17245TIP3    H273227   2.319   1.034  13.503  1.4890  0.4654  1.5311
17246TIP3   OH273228   5.969   2.135   5.283  0.5952  0.4100  0.4217
17246TIP3    H173229   5.925   2.067   5.233  1.9936 -0.9947  1.0134
17246TIP3    H273230   5.899   2.179   5.332 -0.3214 -0.7008  0.1404
17247TIP3   OH273231   2.042   1.750  13.263  0.2450 -0.3585  0.1153
17247TIP3    H173232   2.085   1.791  13.338  0.4643 -0.2231 -0.0829
17247TIP3    H273233   2.005   1.669  13.298 -0.1869  0.0023  0.5069
17248TIP3   OH273234   5.583   0.938   3.255 -0.0381 -0.7086 -0.4691
17248TIP3    H173235   5.662   0.981   3.225  0.4452 -0.7155  0.7414
17248TIP3    H273236   5.513   1.000   3.236  0.4127 -0.1896 -0.4491
17249TIP3   OH273237   6.451   4.423  12.692 -0.5441  0.3514  0.2360
17249TIP3    H173238   6.396   4.370  12.634 -0.1636  0.4842 -0.2470
17249TIP3    H273239   6.540   4.408  12.662 -0.4078  1.0408  0.2821
17250TIP3   OH273240   4.362   6.672  15.205  0.7125 -0.2218  0.3544
17250TIP3    H173241   4.377   6.766  15.190 -1.0801  0.2759  1.3762
17250TIP3    H273242   4.269   6.660  15.185  0.0398 -1.0373  3.4615
17251TIP3   OH273243   3.487   1.661   3.565 -0.3381 -0.2950  0.3247
17251TIP3    H173244   3.393   1.654   3.583  0.2110 -1.3072  3.3332
17251TIP3    H273245   3.522   1.574   3.586  1.2829 -0.0104 -0.9665
17252TIP3   OH273246   4.595   5.690  13.028 -0.4908  0.6914  0.0968
17252TIP3    H173247   4.604   5.753  13.100 -0.6588  0.7795  0.0410
17252TIP3    H273248   4.676   5.639  13.031  0.0077  1.4347 -0.3579
17253TIP3   OH273249   5.326   3.832   4.190  0.0782 -0.7836 -0.0511
17253TIP3    H173250   5.259   3.862   4.128  0.2937  0.7393  0.4157
17253TIP3    H273251   5.361   3.912   4.228  3.1547 -1.3979 -1.2559
17254TIP3   OH273252   0.558   0.600  16.980  0.1587  0.6572 -0.4119
17254TIP3    H173253   0.575   0.690  16.953  0.9637  0.1465 -1.6911
17254TIP3    H273254   0.477   0.605  17.030  0.4753  2.1681  0.0179
17255TIP3   OH273255   4.965   4.684   5.065 -0.3514 -0.4044 -0.0122
17255TIP3    H173256   5.041   4.710   5.116 -1.5039  1.8668  0.6707
17255TIP3    H273257   4.984   4.713   4.976 -0.9205  1.4380  0.4212
17256TIP3   OH273258   1.714   3.217   2.621 -0.0660 -0.1529  0.1688
17256TIP3    H173259   1.741   3.275   2.550 -0.9388 -0.9482 -0.8630
17256TIP3    H273260   1.792   3.164   2.640  0.0319 -0.2876 -0.5771
17257TIP3   OH273261   3.388   5.024   0.572  0.4235 -0.2495  0.4384
17257TIP3    H173262   3.420   5.106   0.610 -0.3553 -1.5687  4.4021
17257TIP3    H273263   3.308   5.050   0.525  1.2331  1.4852 -0.0721
17258TIP3   OH273264   6.678   2.213  14.490  0.2227  0.4141  0.3258
17258TIP3    H173265   6.767   2.227  14.523  0.1919  1.0035  0.1575
17258TIP3    H273266   6.623   2.213  14.568  0.1185  2.0346  0.2727
17259TIP3   OH273267   3.931   3.786   1.253 -0.4151  0.1701 -0.1922
17259TIP3    H173268   3.920   3.705   1.304  0.8786  0.6242  0.8557
17259TIP3    H273269   3.851   3.792   1.200 -1.3886 -0.7934  1.1090
17260TIP3   OH273270   6.011   5.147  16.371 -0.0862 -0.4286 -0.4955
17260TIP3    H173271   5.964   5.204  16.431 -0.4411 -1.3975  0.1839
17260TIP3    H273272   6.103   5.173  16.379 -0.4293  1.2390 -1.5640
17261TIP3   OH273273   1.683   6.248  13.038  1.0348 -0.6971  0.6281
17261TIP3    H173274   1.682   6.217  12.948  1.1551 -0.6695  0.6179
17261TIP3    H273275   1.684   6.168  13.091 -0.0167 -0.7365  0.6235
17262TIP3   OH273276   3.064   3.675   4.729 -0.3337  0.1714 -0.3068
17262TIP3    H173277   2.973   3.658   4.706 -0.1122 -1.1299 -0.2872
17262TIP3    H273278   3.071   3.649   4.821 -0.1984  1.3195  0.0175
17263TIP3   OH273279   2.860   4.377  11.933 -0.0050  0.4172  0.0345
17263TIP3    H173280   2.825   4.351  12.018 -0.2400 -1.1119 -0.4976
17263TIP3    H273281   2.825   4.312  11.872  0.7536  1.0596 -1.1202
17264TIP3   OH273282   5.409   5.238  14.113 -0.0138 -1.0418 -0.0666
17264TIP3    H173283   5.370   5.163  14.067 -0.9184  0.1462 -1.3253
17264TIP3    H273284   5.334   5.287  14.146  0.4561  0.3489 -0.9797
17265TIP3   OH273285   6.087   2.491  12.902 -0.0344  0.1110  0.5641
17265TIP3    H173286   6.115   2.520  12.815 -1.3753  0.4257  0.2172
17265TIP3    H273287   6.108   2.565  12.960 -0.0312  0.2838  0.3419
17266TIP3   OH273288   5.367   2.054  16.867 -0.9758 -0.3153 -0.2865
17266TIP3    H173289   5.296   2.035  16.806 -2.0429 -0.7398  1.0349
17266TIP3    H273290   5.374   2.150  16.865 -3.0710 -0.0638  1.1010
17267TIP3   OH273291   6.501   1.124  17.043  0.5777 -0.5204  0.7647
17267TIP3    H173292   6.521   1.171  16.962 -0.1517  0.3602  1.0817
17267TIP3    H273293   6.449   1.049  17.015 -0.3766  0.2277  0.4815
17268TIP3   OH273294   4.172   5.827   1.627  0.2762  0.0887 -0.1715
17268TIP3    H173295   4.233   5.856   1.694  1.0414  0.4254 -0.9856
17268TIP3    H273296   4.223   5.827   1.546 -0.5418 -0.5861 -0.7110
17269TIP3   OH273297   1.260   6.515  15.129  0.1759 -0.2868  0.7542
17269TIP3    H173298   1.219   6.490  15.047  1.6490 -1.8848  0.4274
17269TIP3    H273299   1.262   6.610  15.128 -1.3520 -0.2441 -0.2637
17270TIP3   OH273300   5.129   2.813  15.111  0.3073 -0.4858  0.0427
17270TIP3    H173301   5.083   2.757  15.172  0.2972  0.5079  0.9733
17270TIP3    H273302   5.085   2.800  15.027 -1.1035 -0.2168  0.7241
17271TIP3   OH273303   2.195   5.991  16.227 -0.0985  0.2526 -0.2517
17271TIP3    H173304   2.132   5.984  16.155  0.3260  1.8242 -0.8271
17271TIP3    H273305   2.244   5.909  16.224  1.4095  1.1081 -3.2681
17272TIP3   OH273306   0.483   0.881  12.344 -0.1108 -0.3731 -0.2950
17272TIP3    H173307   0.443   0.795  12.328  0.6595 -0.7425 -0.2419
17272TIP3    H273308   0.464   0.930  12.264 -0.7346 -0.5180 -0.2456
17273TIP3   OH273309   4.495   3.909  11.448 -0.1172 -0.0039 -0.3082
17273TIP3    H173310   4.504   3.974  11.517  0.9869  0.0914 -0.5160
17273TIP3    H273311   4.465   3.958  11.371  1.2094  0.3923 -0.6101
17274TIP3   OH273312   5.277   5.668  13.017 -0.5223  0.1223  0.2467
17274TIP3    H173313   5.194   5.710  13.040 -0.7711 -0.7156  0.8879
17274TIP3    H273314   5.336   5.690  13.090 -0.2099  0.5882 -0.1337
17275TIP3   OH273315   5.540   6.726  12.727  0.1502 -0.2667 -0.0109
17275TIP3    H173316   5.544   6.707  12.821  0.6255 -0.1989 -0.0128
17275TIP3    H273317   5.447   6.737  12.709 -0.0185 -1.1491  0.2775
17276TIP3   OH273318   1.530   3.196   3.310 -0.1013 -0.1048 -0.0120
17276TIP3    H173319   1.492   3.243   3.385 -2.2301 -0.7903 -0.5942
17276TIP3    H273320   1.557   3.112   3.346 -0.5850 -0.2150  0.0918
17277TIP3   OH273321   0.817   6.320  14.244  0.1168 -0.3407  0.1564
17277TIP3    H173322   0.849   6.409  14.228  1.2987 -0.7693 -0.0105
17277TIP3    H273323   0.829   6.276  14.160  0.0029 -0.7898  0.3760
17278TIP3   OH273324   4.845   1.858   3.615  0.1692 -0.2672  0.2285
17278TIP3    H173325   4.862   1.949   3.591  1.0303 -1.1907 -3.1004
17278TIP3    H273326   4.752   1.857   3.637  0.2137  1.4392  0.6763
17279TIP3   OH273327   4.258   1.072   5.812 -0.2710 -0.4814  0.0998
17279TIP3    H173328   4.267   1.115   5.727  1.1087 -0.5135  0.2056
17279TIP3    H273329   4.194   1.126   5.859 -0.8400 -0.3033 -0.8471
17280TIP3   OH273330   3.177   1.179   2.732  0.0928 -0.5683  0.0305
17280TIP3    H173331   3.213   1.263   2.761  0.0954 -0.6539  0.2729
17280TIP3    H273332   3.217   1.164   2.646  2.4112 -1.7615  1.2226
17281TIP3   OH273333   0.453   5.684   0.190 -0.1195  0.3265  0.1263
17281TIP3    H173334   0.496   5.668   0.274 -0.7136  0.0567  0.3809
17281TIP3    H273335   0.428   5.597   0.159  1.1552  0.2955 -0.9166
17282TIP3   OH273336   4.793   4.779  16.828 -0.4877  0.1389 -0.0944
17282TIP3    H173337   4.753   4.710  16.881 -0.8470  0.7200  0.4095
17282TIP3    H273338   4.724   4.845  16.819 -0.3245  0.1924 -1.0272
17283TIP3   OH273339   6.389   5.315  15.098  0.2937 -0.0995 -0.0260
17283TIP3    H173340   6.395   5.410  15.087  0.7056 -0.2442 -1.1053
17283TIP3    H273341   6.348   5.304  15.184 -1.3892  1.0783 -0.6227
17284TIP3   OH273342   0.772   6.818   2.024  0.6974  0.2065 -0.1805
17284TIP3    H173343   0.714   6.792   1.953  0.8408 -0.2308 -0.1421
17284TIP3    H273344   0.772   6.913   2.022  1.4878  0.2018 -1.4146
17285TIP3   OH273345   1.629   2.427   6.510  0.2878 -0.2544  0.1327
17285TIP3    H173346   1.553   2.378   6.478  0.1076 -0.0032  0.1772
17285TIP3    H273347   1.592   2.506   6.548  0.4916 -0.5729  1.0222
17286TIP3   OH273348   4.596   0.759  13.478  0.4558  0.2329 -0.0645
17286TIP3    H173349   4.541   0.837  13.481 -1.4504 -1.0393 -0.2466
17286TIP3    H273350   4.602   0.736  13.385  0.2052 -0.3600  0.0590
17287TIP3   OH273351   3.841   0.207   5.499 -0.3992 -0.0311 -0.3005
17287TIP3    H173352   3.920   0.165   5.535 -1.4918 -0.8976  1.2065
17287TIP3    H273353   3.857   0.300   5.511  0.6788 -0.1501 -0.6613
17288TIP3   OH273354   2.767   3.030   2.812  0.4773  0.1690 -0.2969
17288TIP3    H173355   2.794   2.942   2.784 -2.3198 -0.7624 -0.4101
17288TIP3    H273356   2.764   3.081   2.731  0.0072 -0.2784 -0.5675
17289TIP3   OH273357   0.066   1.569   3.380  0.1288 -0.2592  0.4711
17289TIP3    H173358   0.106   1.584   3.294  0.0923 -0.0828  0.4859
17289TIP3    H273359   0.140   1.549   3.437  0.1468 -0.4531  0.3834
17290TIP3   OH273360   0.924   0.041  14.099 -0.2731 -0.1960 -0.1441
17290TIP3    H173361   1.006   0.014  14.139 -0.7091 -2.8034 -0.7990
17290TIP3    H273362   0.945   0.122  14.053  2.5883 -1.8932 -2.1345
17291TIP3   OH273363   0.486   6.105   0.707 -0.2003  0.0372 -0.4096
17291TIP3    H173364   0.439   6.174   0.660 -0.3452 -0.5724 -1.1960
17291TIP3    H273365   0.576   6.114   0.678 -0.4857 -1.0534 -1.7320
17292TIP3   OH273366   2.330   6.188  12.519  0.0661  0.7587  0.2558
17292TIP3    H173367   2.353   6.133  12.594 -0.2367  1.8186  1.1624
17292TIP3    H273368   2.328   6.277  12.555 -2.0086  1.0937 -0.5450
17293TIP3   OH273369   1.633   4.236   2.511  0.2947 -0.2301 -0.3045
17293TIP3    H173370   1.601   4.256   2.599 -1.4275 -0.8726 -0.7611
17293TIP3    H273371   1.611   4.313   2.459  0.0862 -0.4055 -0.4756
17294TIP3   OH273372   5.396   1.558  15.418 -0.6226 -0.2366 -0.2767
17294TIP3    H173373   5.432   1.500  15.350  0.6961  0.2193  0.0190
17294TIP3    H273374   5.395   1.504  15.497 -0.7887 -0.3087 -0.3264
17295TIP3   OH273375   6.172   6.274  16.578  0.0650  0.2178 -0.4708
17295TIP3    H173376   6.081   6.248  16.562 -0.1490  0.2104  0.6869
17295TIP3    H273377   6.220   6.240  16.502 -1.0600  1.2430 -1.7165
17296TIP3   OH273378   4.884   0.633  17.136  0.3090  0.5217  0.0496
17296TIP3    H173379   4.970   0.595  17.154  0.0384  0.6862  1.9250
17296TIP3    H273380   4.838   0.567  17.085  0.1019 -1.4527  2.5945
17297TIP3   OH273381   2.203   5.081   2.380  0.1195  0.1517  0.2676
17297TIP3    H173382   2.123   5.114   2.422  0.3219 -0.0883  0.8525
17297TIP3    H273383   2.274   5.129   2.422  0.4034 -0.8718  0.9920
17298TIP3   OH273384   5.429   3.456   1.801 -0.0908 -0.5457  0.0969
17298TIP3    H173385   5.479   3.538   1.800  0.6152 -0.9706 -0.6453
17298TIP3    H273386   5.445   3.420   1.888  1.0252 -0.7329 -0.1638
17299TIP3   OH273387   2.646   4.854   2.870  0.2006 -0.2053 -0.6853
17299TIP3    H173388   2.697   4.778   2.840  1.3775  0.2824  0.0533
17299TIP3    H273389   2.564   4.816   2.903  1.6988 -1.4604  1.8963
17300TIP3   OH273390   4.916   3.765   0.736 -0.3086 -0.1800  0.0053
17300TIP3    H173391   4.910   3.803   0.648 -0.1080 -0.3709 -0.0919
17300TIP3    H273392   4.979   3.819   0.782  0.0638 -0.4559 -0.1690
17301TIP3   OH273393   6.721   1.848  14.360  0.1626 -0.7104 -0.3685
17301TIP3    H173394   6.706   1.904  14.284  1.7347 -1.5172 -1.3126
17301TIP3    H273395   6.786   1.896  14.412 -0.5058 -0.4188  0.2224
17302TIP3   OH273396   6.511   0.228   1.268  0.4142  0.3726 -0.0763
17302TIP3    H173397   6.492   0.151   1.320 -1.3950  0.9961  0.2748
17302TIP3    H273398   6.443   0.229   1.201  3.4402 -1.1945 -3.5338
17303TIP3   OH273399   1.049   4.644   2.701 -0.3205 -0.9508 -0.1500
17303TIP3    H173400   1.014   4.733   2.702 -0.5188 -1.0091  1.2716
17303TIP3    H273401   0.984   4.592   2.653 -0.2766 -0.3642 -0.8516
17304TIP3   OH273402   3.617   6.348   5.235 -0.0634 -0.2383 -0.1995
17304TIP3    H173403   3.651   6.390   5.314  1.0067 -0.3209 -0.5848
17304TIP3    H273404   3.602   6.257   5.261 -0.6701 -0.0404  0.1628
17305TIP3   OH273405   4.877   1.035   4.341  0.6955 -0.0478 -0.1910
17305TIP3    H173406   4.915   0.949   4.326  2.5098  0.4277  1.2731
17305TIP3    H273407   4.806   1.020   4.403 -0.5144 -0.7264 -1.6639
17306TIP3   OH273408   0.325   0.873  13.513  0.3425 -0.0336 -0.0075
17306TIP3    H173409   0.305   0.929  13.438  1.5296 -0.1831 -0.4704
17306TIP3    H273410   0.246   0.874  13.566 -0.2355  0.7405 -0.8493
17307TIP3   OH273411   2.305   5.821  11.049 -0.1177 -0.5796  0.4897
17307TIP3    H173412   2.360   5.899  11.045 -0.6842 -0.1931 -0.2115
17307TIP3    H273413   2.363   5.749  11.027  0.5759 -0.4595  1.8538
17308TIP3   OH273414   0.763   0.886  13.957  0.8179  0.3254  0.2529
17308TIP3    H173415   0.667   0.891  13.960  0.5578 -2.0237 -1.4225
17308TIP3    H273416   0.791   0.913  14.044 -1.4764 -0.5971  1.3578
17309TIP3   OH273417   2.589   4.859   2.360 -0.1308 -0.1509  0.0157
17309TIP3    H173418   2.560   4.775   2.325  2.1593 -1.3093  0.7048
17309TIP3    H273419   2.651   4.836   2.429  2.1815  2.0408 -1.1692
17310TIP3   OH273420   1.815   1.427   3.576  0.0365  0.8624  0.4215
17310TIP3    H173421   1.863   1.508   3.590 -0.8738  1.1239  2.3448
17310TIP3    H273422   1.723   1.451   3.586 -0.2615 -0.3428  0.7310
17311TIP3   OH273423   4.353   5.512  12.424  0.1355  0.1743  0.1967
17311TIP3    H173424   4.377   5.458  12.499 -0.7760 -0.5141 -0.0020
17311TIP3    H273425   4.327   5.596  12.462 -1.6193 -0.6039  0.7715
17312TIP3   OH273426   2.981   3.389  10.564  0.1460 -0.0653 -0.3702
17312TIP3    H173427   2.929   3.316  10.532 -0.8536  0.0308  0.9747
17312TIP3    H273428   2.922   3.464  10.561  0.7541  0.4226 -0.4682
17313TIP3   OH273429   4.405   2.461   1.543  0.2921  0.0041  0.2204
17313TIP3    H173430   4.466   2.478   1.472 -0.3510 -1.5565 -0.7748
17313TIP3    H273431   4.438   2.381   1.584 -0.0039  0.2351  0.9173
17314TIP3   OH273432   0.055   6.256  14.519 -0.2965 -0.2638  0.6715
17314TIP3    H173433   0.058   6.285  14.428 -0.9470  1.0691  1.0422
17314TIP3    H273434   0.146   6.253  14.547 -0.1200 -0.2482  0.1031
17315TIP3   OH273435   0.187   0.750   2.566  0.1797 -0.5573  0.5861
17315TIP3    H173436   0.178   0.786   2.654 -0.5860 -1.9068  1.0853
17315TIP3    H273437   0.107   0.700   2.552  1.9657 -3.7174  0.7475
17316TIP3   OH273438   2.969   5.272  14.919 -0.7813  0.2947  0.0709
17316TIP3    H173439   3.021   5.260  14.840 -1.5466 -0.6427 -0.3230
17316TIP3    H273440   2.992   5.359  14.951 -0.1555  0.5175 -0.9499
17317TIP3   OH273441   4.040   3.380  14.130 -0.1897 -0.2910  0.4553
17317TIP3    H173442   4.031   3.312  14.197  0.7824 -1.2633 -0.3634
17317TIP3    H273443   4.008   3.338  14.050 -2.6320  1.2842  0.4950
17318TIP3   OH273444   1.532   3.390   2.016  0.7579  0.4536 -0.3755
17318TIP3    H173445   1.578   3.434   2.089  1.1285  1.3635 -1.1328
17318TIP3    H273446   1.603   3.358   1.960  0.4915 -1.3004  0.2455
17319TIP3   OH273447   6.347   4.274  12.305  0.4153  0.0773  0.2431
17319TIP3    H173448   6.435   4.273  12.268  0.5313  0.7797  0.4713
17319TIP3    H273449   6.300   4.206  12.258  1.0862 -0.3264  0.1372
17320TIP3   OH273450   3.790   3.281  16.570  0.3494  0.4967  0.0342
17320TIP3    H173451   3.713   3.339  16.573  1.9190  2.7250  0.2957
17320TIP3    H273452   3.817   3.272  16.662  0.3841 -0.3160 -0.0487
17321TIP3   OH273453   5.488   4.950  13.851  0.0893  0.2602 -0.1489
17321TIP3    H173454   5.407   4.971  13.897  0.4964 -0.5815  0.9923
17321TIP3    H273455   5.504   5.026  13.795 -2.8604 -0.5992 -2.4279
17322TIP3   OH273456   2.102   6.223   0.848  0.1295 -0.0472 -0.4308
17322TIP3    H173457   2.067   6.307   0.875 -0.8986 -0.6929  0.3457
17322TIP3    H273458   2.045   6.195   0.776  0.1224 -0.3147 -0.3251
17323TIP3   OH273459   1.831   6.159   5.416  0.3280  0.0918 -0.0310
17323TIP3    H173460   1.902   6.191   5.361  0.1066  0.3247 -0.1849
17323TIP3    H273461   1.814   6.230   5.478  0.7560 -0.2735  0.5179
17324TIP3   OH273462   4.344   3.113   0.457 -0.6082  0.0616  0.2939
17324TIP3    H173463   4.414   3.150   0.511 -0.1791  1.9401 -1.4276
17324TIP3    H273464   4.264   3.151   0.493 -0.4074  0.6548  0.1219
17325TIP3   OH273465   4.233   2.265   5.941 -0.6886 -0.0796 -0.2296
17325TIP3    H173466   4.249   2.173   5.961 -0.0176  0.3844  1.5806
17325TIP3    H273467   4.287   2.283   5.865 -0.8476 -1.1875 -0.6127
17326TIP3   OH273468   0.289   5.880  14.484 -0.1941  0.3537 -0.5233
17326TIP3    H173469   0.321   5.964  14.454  1.0003  0.2298  0.3546
17326TIP3    H273470   0.204   5.899  14.524  0.1091  1.1486 -0.2522
17327TIP3   OH273471   6.733   5.172   3.507 -0.0629 -0.1746  0.2444
17327TIP3    H173472   6.740   5.151   3.414 -0.2935  2.8400 -0.5517
17327TIP3    H273473   6.819   5.148   3.543  1.0687  1.2098 -1.3815
17328TIP3   OH273474   6.532   2.166   2.310 -0.5320  0.4403 -0.6944
17328TIP3    H173475   6.610   2.117   2.337 -0.3410  1.1016 -0.0086
17328TIP3    H273476   6.474   2.100   2.272 -0.4302 -0.3964  0.5374
17329TIP3   OH273477   2.358   0.478   4.593  0.2775 -0.3986  0.1731
17329TIP3    H173478   2.334   0.499   4.503  0.9142  0.2748  0.1419
17329TIP3    H273479   2.443   0.434   4.585  0.3039 -0.3948  0.4365
17330TIP3   OH273480   1.720   3.326   3.469  0.4780 -0.7491 -0.2802
17330TIP3    H173481   1.704   3.277   3.389  0.1037 -1.7622  0.3957
17330TIP3    H273482   1.810   3.303   3.494  1.1229  0.7072 -1.1737
17331TIP3   OH273483   6.638   4.864   5.254 -0.6510 -0.0605  0.3083
17331TIP3    H173484   6.666   4.806   5.324 -0.9466  0.2795  0.7143
17331TIP3    H273485   6.720   4.899   5.218 -0.4368 -1.3255 -0.4695
17332TIP3   OH273486   1.274   3.162   3.637 -0.1615 -0.1397 -0.2428
17332TIP3    H173487   1.200   3.196   3.585 -0.8245 -0.6728  0.3356
17332TIP3    H273488   1.320   3.241   3.666 -1.8502  0.3263  1.3166
17333TIP3   OH273489   0.203   4.874   1.489  0.3719  0.6906 -0.6871
17333TIP3    H173490   0.264   4.833   1.427  1.5514  0.5143  0.5469
17333TIP3    H273491   0.253   4.948   1.525 -0.0849  0.4367  0.4837
17334TIP3   OH273492   0.599   5.959  11.381  0.3410  0.5667 -0.8099
17334TIP3    H173493   0.682   6.006  11.373  1.5856 -1.1476  1.2120
17334TIP3    H273494   0.536   6.028  11.404  1.1281  1.8991 -2.3885
17335TIP3   OH273495   2.911   1.734   2.618 -0.0048  0.2271  0.8087
17335TIP3    H173496   2.955   1.674   2.557 -1.0616  0.7048 -0.4845
17335TIP3    H273497   2.982   1.785   2.656  0.7791 -0.7989  0.7677
17336TIP3   OH273498   3.048   0.686   5.456 -0.2797 -0.2907  0.7398
17336TIP3    H173499   3.055   0.767   5.406  0.1946 -0.0098  1.2475
17336TIP3    H273500   3.031   0.619   5.390  0.7625  0.0035  0.1506
17337TIP3   OH273501   3.369   2.010   2.608  0.3468  0.3179 -0.2858
17337TIP3    H173502   3.402   2.080   2.665  0.5019 -1.0378  1.3921
17337TIP3    H273503   3.330   2.055   2.534  0.6446  2.1691  0.6278
17338TIP3   OH273504   3.329   5.670   2.218  0.1039  0.4195  0.4308
17338TIP3    H173505   3.421   5.692   2.206  0.2926 -1.1859 -1.6233
17338TIP3    H273506   3.330   5.582   2.256 -0.6377  1.2912  2.6784
17339TIP3   OH273507   4.123   2.088   0.625 -0.3565 -0.0682 -0.1116
17339TIP3    H173508   4.169   2.171   0.613 -1.2300  0.5870  0.8769
17339TIP3    H273509   4.041   2.112   0.668  0.3028 -1.6689  2.2142
17340TIP3   OH273510   4.319   2.671   3.774 -0.0678  0.0843  0.0944
17340TIP3    H173511   4.400   2.667   3.826  0.5178  0.7199 -0.7478
17340TIP3    H273512   4.253   2.700   3.837  0.4590  0.0720  0.6761
17341TIP3   OH273513   1.221   0.199   2.506  0.4351 -0.7247  0.2934
17341TIP3    H173514   1.262   0.149   2.576 -1.5270 -0.3314  1.7901
17341TIP3    H273515   1.185   0.276   2.549 -2.0083 -1.1216 -0.8605
17342TIP3   OH273516   0.630   1.583  11.042 -0.3463 -0.9989  0.2965
17342TIP3    H173517   0.571   1.607  10.970  2.0098  0.1553 -1.4021
17342TIP3    H273518   0.715   1.568  10.999  1.9907  2.6514  3.0414
17343TIP3   OH273519   5.668   1.862   1.897  0.5738  0.4356  0.0584
17343TIP3    H173520   5.613   1.905   1.962  1.7357 -1.2246  2.2981
17343TIP3    H273521   5.758   1.878   1.928  1.1179 -1.2203 -0.5700
17344TIP3   OH273522   5.719   2.766  16.880 -0.1339 -0.2555  0.1120
17344TIP3    H173523   5.672   2.843  16.848  1.4353  0.9439  0.6002
17344TIP3    H273524   5.741   2.786  16.971 -0.9000 -1.8856  0.7005
17345TIP3   OH273525   0.426   6.338  14.795  0.0893 -0.0851  0.6826
17345TIP3    H173526   0.378   6.368  14.719 -0.1446  1.2089  1.3094
17345TIP3    H273527   0.386   6.385  14.869  0.6993 -0.8452  1.5212
17346TIP3   OH273528   2.719   1.848  15.533 -0.5417 -0.5851  0.0453
17346TIP3    H173529   2.704   1.915  15.600 -1.3089 -0.9249  0.2253
17346TIP3    H273530   2.811   1.858  15.509  0.2157 -1.5208  2.3218
17347TIP3   OH273531   5.920   3.109   3.612  0.4507 -0.3235 -0.5203
17347TIP3    H173532   6.001   3.086   3.566  0.9654 -0.5272  0.4647
17347TIP3    H273533   5.936   3.083   3.703 -1.3300 -1.8602 -0.6103
17348TIP3   OH273534   3.540   6.651  17.080  0.2737 -0.0168 -0.4751
17348TIP3    H173535   3.555   6.557  17.090  0.7715  0.0905 -0.1659
17348TIP3    H273536   3.615   6.683  17.030 -0.1095  0.1508 -0.9567
17349TIP3   OH273537   5.261   1.707  11.676  0.0564  0.0771 -0.9399
17349TIP3    H173538   5.232   1.700  11.767  2.0026  1.3256 -0.1481
17349TIP3    H273539   5.229   1.793  11.648  0.2390  0.0934 -1.1034
17350TIP3   OH273540   0.819   5.131   4.136  0.3153  0.2385  0.5377
17350TIP3    H173541   0.824   5.146   4.042  0.2217  0.0954  0.5093
17350TIP3    H273542   0.891   5.071   4.155 -0.5993 -0.9727  0.3023
17351TIP3   OH273543   0.293   2.694  17.179  0.1893  0.3851 -0.5089
17351TIP3    H173544   0.326   2.752  17.248  0.9703 -0.6907  0.0520
17351TIP3    H273545   0.341   2.721  17.101  1.2837 -0.1087 -0.0406
17352TIP3   OH273546   2.748   0.123   2.918  0.2460  0.2268 -0.5593
17352TIP3    H173547   2.806   0.200   2.915 -0.5787  0.9426  0.6444
17352TIP3    H273548   2.711   0.126   3.007 -0.4663 -1.0790 -0.7984
17353TIP3   OH273549   2.323   6.579  16.101 -0.2091 -0.2291  0.2867
17353TIP3    H173550   2.285   6.491  16.102  0.9824 -0.7642 -0.0092
17353TIP3    H273551   2.269   6.629  16.039  0.3340 -1.3235 -1.1050
17354TIP3   OH273552   1.772   2.612  14.061 -0.2259 -0.5057  0.4394
17354TIP3    H173553   1.807   2.524  14.052 -2.3381 -1.6250  2.0549
17354TIP3    H273554   1.747   2.619  14.153  1.8860  2.6515  0.9439
17355TIP3   OH273555   6.481   1.681   2.605 -0.2072  0.3880 -0.2925
17355TIP3    H173556   6.415   1.725   2.659  0.9757  1.6717  0.1435
17355TIP3    H273557   6.474   1.722   2.519 -0.3249  0.1526 -0.3973
17356TIP3   OH273558   5.517   0.641   5.696  0.7894  0.7073  0.1504
17356TIP3    H173559   5.600   0.659   5.652  0.3993  0.4464 -0.7018
17356TIP3    H273560   5.450   0.665   5.632  0.2186 -1.2791 -0.0571
17357TIP3   OH273561   6.717   2.957   4.208  0.6036  0.0019  0.3377
17357TIP3    H173562   6.718   2.898   4.132  4.1155 -0.9022  0.9085
17357TIP3    H273563   6.698   3.043   4.170 -1.5634 -0.9532 -0.9487
17358TIP3   OH273564   0.755   4.601   5.462 -0.3870  0.3312  0.5437
17358TIP3    H173565   0.697   4.525   5.469  1.1572 -1.0271 -0.6119
17358TIP3    H273566   0.774   4.625   5.553  0.6761 -1.9700  1.0017
17359TIP3   OH273567   1.098   2.665  12.771 -0.4393 -0.1700  0.1448
17359TIP3    H173568   1.037   2.594  12.789 -0.4275 -1.0360 -2.7415
17359TIP3    H273569   1.184   2.622  12.765  0.4195  0.8723  3.0515
17360TIP3   OH273570   1.212   3.806  13.898 -0.0518 -0.6078 -0.1178
17360TIP3    H173571   1.174   3.883  13.939  2.3400  1.0147 -0.7413
17360TIP3    H273572   1.137   3.755  13.866 -1.7062  1.1500  0.8130
17361TIP3   OH273573   3.241   1.814  12.235  0.2953  0.3258  0.5883
17361TIP3    H173574   3.300   1.745  12.203 -0.0943  0.8110 -1.3262
17361TIP3    H273575   3.190   1.772  12.304  0.8116 -0.9930  0.2077
17362TIP3   OH273576   4.794   2.687   4.500  0.4979 -0.0756  0.6974
17362TIP3    H173577   4.711   2.658   4.463  0.7588 -1.9676  1.5081
17362TIP3    H273578   4.860   2.644   4.446  0.9239 -0.0307  1.1813
17363TIP3   OH273579   6.520   5.029  15.485 -0.2272  0.2964  0.1494
17363TIP3    H173580   6.506   5.000  15.395  1.0596  2.3594 -0.7779
17363TIP3    H273581   6.432   5.032  15.523 -0.7534 -0.9798 -0.8903
17364TIP3   OH273582   2.781   2.063  13.952  0.1567 -0.2011 -0.0331
17364TIP3    H173583   2.729   2.144  13.949 -0.4750 -0.4648  2.1021
17364TIP3    H273584   2.872   2.093  13.949 -0.0686  0.6185  0.6734
17365TIP3   OH273585   2.329   1.480  10.239  0.5661  0.1648 -0.1265
17365TIP3    H173586   2.403   1.448  10.187  2.2639  1.9523  1.0210
17365TIP3    H273587   2.368   1.502  10.324 -1.1140  1.9155  0.2607
17366TIP3   OH273588   0.776   5.044   0.477 -0.1946  0.6389  0.2593
17366TIP3    H173589   0.714   5.027   0.407 -1.2973  0.0873  1.3324
17366TIP3    H273590   0.791   4.958   0.517  1.8260  0.6308 -0.4050
17367TIP3   OH273591   6.355   0.964   5.630 -0.3206  0.3556  0.1588
17367TIP3    H173592   6.343   1.020   5.553 -0.8509  0.1769  0.1057
17367TIP3    H273593   6.415   1.013   5.686  0.1010  0.4669 -0.3848
17368TIP3   OH273594   1.294   0.785   0.078 -0.8857  0.4149  0.8224
17368TIP3    H173595   1.262   0.859   0.027 -1.1839 -1.1132 -1.3423
17368TIP3    H273596   1.327   0.824   0.159  0.8082  3.1251 -1.0157
17369TIP3   OH273597   5.406   2.662   4.572 -0.3884  0.0158  0.7168
17369TIP3    H173598   5.469   2.701   4.633  0.3962 -1.3812  0.8459
17369TIP3    H273599   5.391   2.574   4.606  0.0017 -0.7755 -1.0250
17370TIP3   OH273600   3.857   6.382  12.782  0.5103  0.0658  0.0208
17370TIP3    H173601   3.767   6.408  12.800  0.3951  0.5459 -1.1702
17370TIP3    H273602   3.906   6.408  12.859  0.0246  1.9206 -0.2615
17371TIP3   OH273603   5.341   6.670   5.011 -0.1948  0.5813 -0.0186
17371TIP3    H173604   5.286   6.615   4.955  1.4045 -2.0992  0.8704
17371TIP3    H273605   5.354   6.619   5.091  2.8364  1.4122  0.1674
17372TIP3   OH273606   3.716   4.475   3.286  0.3193  0.3133 -0.3441
17372TIP3    H173607   3.769   4.538   3.236 -1.1448  0.7167 -1.4715
17372TIP3    H273608   3.631   4.477   3.243 -0.1635 -1.4523  0.4638
17373TIP3   OH273609   3.927   5.303   5.744  0.0244  0.2471 -0.0253
17373TIP3    H173610   3.991   5.274   5.679  0.2551  0.2108  0.2178
17373TIP3    H273611   3.878   5.373   5.700 -1.3641 -1.2810 -1.0601
17374TIP3   OH273612   2.857   3.495   0.278 -0.4735 -0.0509 -0.7998
17374TIP3    H173613   2.776   3.490   0.329 -0.5760  0.6931 -0.8747
17374TIP3    H273614   2.832   3.470   0.189 -0.2933 -1.3608 -0.5092
17375TIP3   OH273615   2.139   5.969  11.282 -0.1837 -0.1044 -0.5642
17375TIP3    H173616   2.168   5.917  11.208  1.8443 -1.8734  1.3210
17375TIP3    H273617   2.092   5.907  11.338  0.7547  0.4642  0.9156
17376TIP3   OH273618   6.250   1.319  13.627  0.2559  0.0808 -0.6593
17376TIP3    H173619   6.192   1.390  13.653  1.5724  0.4950  1.3378
17376TIP3    H273620   6.248   1.257  13.700  1.5617 -0.3583 -0.9538
17377TIP3   OH273621   0.534   5.351  16.078 -0.2853 -0.0472  0.5341
17377TIP3    H173622   0.618   5.356  16.033  0.7357  0.5683  2.4269
17377TIP3    H273623   0.473   5.397  16.020  0.5232 -0.8922 -1.0866
17378TIP3   OH273624   4.376   2.272   5.695 -0.3283 -0.1477  1.0514
17378TIP3    H173625   4.387   2.258   5.601 -0.5380  2.3921  0.5946
17378TIP3    H273626   4.463   2.252   5.732  0.3866  0.9106  0.0179
17379TIP3   OH273627   3.455   2.965   2.781  0.1055  0.0372 -0.4458
17379TIP3    H173628   3.498   2.990   2.862 -0.8580 -0.8895  0.3825
17379TIP3    H273629   3.382   3.027   2.772  1.2695  1.3035 -1.5964
17380TIP3   OH273630   2.690   2.954  11.663 -0.3058  0.0649  1.0139
17380TIP3    H173631   2.744   2.961  11.742 -0.8162 -2.1571  1.6290
17380TIP3    H273632   2.602   2.980  11.692 -0.7761 -2.0106  1.5689
17381TIP3   OH273633   6.301   2.005  11.247 -0.1781  0.0320 -0.7998
17381TIP3    H173634   6.232   2.061  11.282 -0.7363 -0.9084 -0.3516
17381TIP3    H273635   6.257   1.947  11.185 -0.1344 -1.6529  0.6636
17382TIP3   OH273636   1.245   3.477  13.831 -0.0496  0.3670  0.0468
17382TIP3    H173637   1.252   3.442  13.742  0.7160 -0.1557  0.2994
17382TIP3    H273638   1.312   3.545  13.834  0.1068  0.2036  0.2998
17383TIP3   OH273639   0.122   5.294   5.540  0.8653  0.1667  0.4597
17383TIP3    H173640   0.111   5.339   5.457  0.2307  2.1499  1.5431
17383TIP3    H273641   0.072   5.213   5.531 -0.4046  1.0234 -0.6079
17384TIP3   OH273642   4.673   2.992   3.661  0.1370  0.3860 -0.0468
17384TIP3    H173643   4.599   3.018   3.607  0.9072  0.2541 -1.1875
17384TIP3    H273644   4.736   2.954   3.600  0.1221 -1.8518  1.2005
17385TIP3   OH273645   3.584   5.108  14.874 -0.1440  0.0735  0.3171
17385TIP3    H173646   3.618   5.023  14.844 -0.4766 -0.1336  0.5240
17385TIP3    H273647   3.632   5.172  14.822  0.4837 -0.2172  0.5175
17386TIP3   OH273648   2.269   4.277  13.859  0.2726  0.4454 -0.5892
17386TIP3    H173649   2.312   4.270  13.774 -1.9022 -2.5355 -1.5962
17386TIP3    H273650   2.211   4.352  13.851 -1.7300 -1.1804 -2.7761
17387TIP3   OH273651   6.206   6.252  15.157  0.3501  0.6264  0.2672
17387TIP3    H173652   6.237   6.300  15.234 -0.6515  0.7503  0.6027
17387TIP3    H273653   6.143   6.311  15.116 -0.1388  0.0088  0.1178
17388TIP3   OH273654   6.301   5.316   1.234  0.2366  0.0094  0.3105
17388TIP3    H173655   6.306   5.265   1.153 -0.7795  2.7839 -1.6450
17388TIP3    H273656   6.211   5.306   1.263 -0.0727  0.9669 -0.2977
17389TIP3   OH273657   0.499   4.810   4.838 -0.2733 -0.1679  0.0364
17389TIP3    H173658   0.594   4.804   4.851 -0.3026  2.4432  2.4179
17389TIP3    H273659   0.489   4.841   4.748  1.0285 -1.2698 -0.5263
17390TIP3   OH273660   5.012   5.869  11.978 -0.4497  0.0223 -0.1650
17390TIP3    H173661   4.932   5.831  11.943 -1.9056  1.4846  1.3954
17390TIP3    H273662   5.013   5.959  11.946 -0.4949  0.6180  1.4046
17391TIP3   OH273663   3.307   3.675  12.292  0.1051  0.0057  0.2999
17391TIP3    H173664   3.282   3.663  12.383  0.7673  1.4741  0.7115
17391TIP3    H273665   3.269   3.759  12.267  1.0097  0.2460 -0.3536
17392TIP3   OH273666   2.082   2.038   2.919 -0.2414  0.4888  0.7586
17392TIP3    H173667   2.016   1.970   2.907 -0.5428  0.6621  1.3779
17392TIP3    H273668   2.137   2.033   2.840  0.0009 -0.7529  0.9793
17393TIP3   OH273669   2.867   0.354   0.554 -0.1225  0.2007  0.7580
17393TIP3    H173670   2.923   0.431   0.558  1.2470 -0.7935  2.5936
17393TIP3    H273671   2.819   0.355   0.637  0.6069 -1.3535  1.2479
17394TIP3   OH273672   2.941   2.548   5.536  0.7955  0.5919 -0.1891
17394TIP3    H173673   2.884   2.605   5.587  0.9493 -1.1889  2.1259
17394TIP3    H273674   3.023   2.598   5.527  0.1308  1.6925 -0.4265
17395TIP3   OH273675   2.044   0.746   3.488  0.0930 -0.2546  0.3999
17395TIP3    H173676   1.975   0.698   3.535  1.9754 -1.3370  2.2108
17395TIP3    H273677   2.048   0.830   3.532 -0.2146 -0.0848  0.1143
17396TIP3   OH273678   2.204   6.302   3.995 -0.0714 -0.0292  0.1332
17396TIP3    H173679   2.229   6.211   3.977 -0.9313 -0.3338  0.4413
17396TIP3    H273680   2.153   6.328   3.919 -3.2292 -1.1360  1.7086
17397TIP3   OH273681   1.152   0.963   3.310 -0.0610 -0.4968  0.4267
17397TIP3    H173682   1.179   0.878   3.343 -1.3105 -0.3418  1.9474
17397TIP3    H273683   1.228   1.020   3.323 -0.3910 -0.5099  2.8754
17398TIP3   OH273684   5.031   0.291  12.600 -1.0351 -0.1639 -0.2369
17398TIP3    H173685   5.026   0.240  12.680  2.2538  1.8551  1.4636
17398TIP3    H273686   5.020   0.226  12.530 -0.1834 -2.6888  1.8022
17399TIP3   OH273687   2.035   6.543  11.694  0.3039  0.2202 -0.7162
17399TIP3    H173688   2.081   6.485  11.634 -0.0404  0.5249 -1.2850
17399TIP3    H273689   1.961   6.491  11.726  0.1012  0.2720 -1.0833
17400TIP3   OH273690   1.059   5.089   5.754  0.6080 -0.4241  0.4099
17400TIP3    H173691   1.041   5.137   5.835 -0.7777 -3.3651  1.9935
17400TIP3    H273692   1.154   5.072   5.757  1.0530  1.7405  0.0079
17401TIP3   OH273693   2.970   1.074   1.882 -0.0518 -0.0263 -0.1522
17401TIP3    H173694   2.979   1.140   1.950 -0.4199 -0.1820  0.0552
17401TIP3    H273695   2.955   1.123   1.801 -0.7443  0.1447  0.0696
17402TIP3   OH273696   6.416   5.244   1.639  0.0176 -0.3237 -0.6178
17402TIP3    H173697   6.339   5.205   1.598  0.7410 -1.3442 -1.0518
17402TIP3    H273698   6.478   5.172   1.646  1.2352  0.6530 -1.0343
17403TIP3   OH273699   3.020   6.469   5.315  0.3526 -0.0810 -0.0459
17403TIP3    H173700   2.960   6.403   5.279 -1.2800  0.8631  0.8161
17403TIP3    H273701   3.093   6.471   5.253 -1.0157 -0.5021 -1.7640
17404TIP3   OH273702   6.641   4.184  10.314 -0.5210  0.0015 -0.1377
17404TIP3    H173703   6.735   4.194  10.328 -0.5228 -2.8952  3.5302
17404TIP3    H273704   6.604   4.268  10.342  0.8299  0.7684 -0.5191
17405TIP3   OH273705   0.007   3.092   1.738  0.0732  0.3343 -0.3651
17405TIP3    H173706  -0.011   3.175   1.782 -0.2201  0.6579 -1.0700
17405TIP3    H273707   0.073   3.049   1.793 -0.2141  0.7615  0.3249
17406TIP3   OH273708   0.956   1.456  15.332  0.5835 -0.3483 -0.5748
17406TIP3    H173709   1.049   1.459  15.353  0.6032 -0.6542 -0.6125
17406TIP3    H273710   0.918   1.527  15.383  0.5193 -1.5157  1.1101
17407TIP3   OH273711   0.056   2.766  13.211 -0.2532  0.0229 -0.4391
17407TIP3    H173712   0.108   2.807  13.280  0.1003 -1.8372  0.4808
17407TIP3    H273713   0.040   2.835  13.147  3.0655  0.7977 -0.6062
17408TIP3   OH273714   4.100   4.903  12.547  0.2082 -0.1181 -0.4275
17408TIP3    H173715   4.049   4.892  12.627  0.3652 -1.4292 -0.4796
17408TIP3    H273716   4.036   4.890  12.476  0.0172  1.2914 -0.5307
17409TIP3   OH273717   5.970   2.356   0.341 -0.1008  0.2249 -0.5327
17409TIP3    H173718   5.888   2.351   0.292  0.3066  0.5173 -1.2494
17409TIP3    H273719   5.969   2.443   0.382 -0.0647  0.3040 -0.6984
17410TIP3   OH273720   3.813   4.711  13.136 -0.5653  0.0967  0.5315
17410TIP3    H173721   3.887   4.650  13.133  0.5260  1.2793  1.5662
17410TIP3    H273722   3.759   4.689  13.061  1.1377 -0.4829 -0.5750
17411TIP3   OH273723   4.184   3.986   0.935  0.3636  0.3402  0.5343
17411TIP3    H173724   4.198   3.953   1.024  3.0908  1.4868  0.6180
17411TIP3    H273725   4.168   4.080   0.947  0.4029  0.4409 -0.1691
17412TIP3   OH273726   3.098   2.169  16.910 -0.3734  0.2722 -0.3780
17412TIP3    H173727   3.062   2.230  16.975  2.4114 -0.7250  2.3654
17412TIP3    H273728   3.085   2.083  16.949 -0.0542 -0.5110 -1.9578
17413TIP3   OH273729   4.744   4.009  10.459 -0.5830 -0.3760  0.1540
17413TIP3    H173730   4.658   4.046  10.480 -1.1966 -1.2148 -0.7754
17413TIP3    H273731   4.806   4.059  10.513 -1.5775  0.6706  0.3682
17414TIP3   OH273732   6.081   2.950   2.879 -0.1808  0.3559 -0.0108
17414TIP3    H173733   6.092   3.022   2.941 -1.7172 -0.6522  1.5242
17414TIP3    H273734   6.152   2.889   2.899  1.9607  1.9347 -2.2138
17415TIP3   OH273735   3.296   1.983   3.825  0.1492  0.3115 -0.1463
17415TIP3    H173736   3.357   2.053   3.801 -0.0645  0.5800  0.0923
17415TIP3    H273737   3.316   1.912   3.764 -0.7311  1.1654 -1.4799
17416TIP3   OH273738   0.086   4.152   4.153  0.7547  0.3739 -0.3743
17416TIP3    H173739   0.142   4.226   4.177  1.6113 -0.2413 -0.4231
17416TIP3    H273740  -0.002   4.189   4.148  1.2503  1.5303 -1.0445
17417TIP3   OH273741   2.387   3.628   1.877  0.1080  0.2022  0.6476
17417TIP3    H173742   2.415   3.562   1.813 -1.3075  0.0693  0.1231
17417TIP3    H273743   2.369   3.578   1.956 -1.2374 -0.1245  0.1674
17418TIP3   OH273744   5.515   6.017  13.369  0.4894  0.1038 -0.2713
17418TIP3    H173745   5.610   6.009  13.369  0.7283  2.1152  1.4326
17418TIP3    H273746   5.497   6.099  13.323  0.0676  2.5155  3.7107
17419TIP3   OH273747   0.037   2.664   5.802 -0.0573 -0.5013 -0.1814
17419TIP3    H173748   0.123   2.627   5.820  0.1302 -1.1687 -2.2262
17419TIP3    H273749   0.055   2.742   5.749 -0.6757 -0.1111  0.1706
17420TIP3   OH273750   0.214   2.545  12.505  0.5388 -0.0887  0.6104
17420TIP3    H173751   0.147   2.482  12.480  0.3234 -0.4331  1.9727
17420TIP3    H273752   0.278   2.543  12.433 -0.9849  0.4143 -0.8133
17421TIP3   OH273753   3.318   5.858  14.609  0.1356 -0.0607  0.0526
17421TIP3    H173754   3.366   5.871  14.527 -0.1899  0.5355 -0.0549
17421TIP3    H273755   3.290   5.767  14.606  1.5107 -0.5101  0.2661
17422TIP3   OH273756   3.447   2.389  11.051  0.0803 -0.0063 -0.1091
17422TIP3    H173757   3.475   2.429  11.133 -0.3534 -0.1021  0.0915
17422TIP3    H273758   3.413   2.461  10.999  0.1047  0.0158 -0.0941
17423TIP3   OH273759   2.080   3.057  12.891 -0.0147 -0.5020 -0.3902
17423TIP3    H173760   2.099   2.994  12.821  1.0378  0.1683 -0.7153
17423TIP3    H273761   1.988   3.041  12.912 -0.5667 -0.2441 -2.4196
17424TIP3   OH273762   5.063   3.272   4.598 -0.0429 -0.4607  0.0061
17424TIP3    H173763   5.102   3.212   4.536 -1.2899 -1.1423 -0.1591
17424TIP3    H273764   5.132   3.336   4.617  0.4775 -0.4433 -1.7764
17425TIP3   OH273765   1.764   1.126  10.942  0.1029  0.0472  0.2393
17425TIP3    H173766   1.849   1.125  10.898  0.6177  1.0252  1.1624
17425TIP3    H273767   1.743   1.034  10.955 -0.3894 -0.3120 -2.5919
17426TIP3   OH273768   4.891   1.768   0.025 -0.8277  0.2063  0.2567
17426TIP3    H173769   4.831   1.703   0.059  0.0482 -1.2917 -0.9566
17426TIP3    H273770   4.963   1.769   0.088  0.7477 -2.4993 -1.3150
17427TIP3   OH273771   5.949   5.998   1.877 -0.3320 -0.4216 -0.3224
17427TIP3    H173772   5.999   6.071   1.841  1.5421 -1.3440  0.2761
17427TIP3    H273773   5.860   6.032   1.886  0.5487  1.9216  0.2669
17428TIP3   OH273774   0.264   0.988   5.595 -0.0534  0.0982  0.2398
17428TIP3    H173775   0.242   0.899   5.622  0.2708  0.4984  1.8969
17428TIP3    H273776   0.276   0.981   5.500 -0.9060 -1.4295  0.2048
17429TIP3   OH273777   5.506   1.539   6.560 -0.3335 -0.3836  0.2709
17429TIP3    H173778   5.470   1.627   6.558  0.1241 -0.1370  1.8564
17429TIP3    H273779   5.582   1.543   6.502 -0.2693  0.2898  0.3984
17430TIP3   OH273780   2.281   1.200  13.954  0.0525 -0.1597  0.0548
17430TIP3    H173781   2.269   1.105  13.954 -0.2418 -0.1990 -2.7653
17430TIP3    H273782   2.192   1.235  13.959 -0.0169 -0.1114 -1.1801
17431TIP3   OH273783   3.270   6.163   2.776  0.5692 -0.5706  0.3484
17431TIP3    H173784   3.356   6.206   2.769  0.1823  0.4106  1.3476
17431TIP3    H273785   3.208   6.229   2.745  0.3609 -2.4802 -4.0511
17432TIP3   OH273786   3.527   3.676   2.308  0.4917  0.4760  0.0841
17432TIP3    H173787   3.614   3.637   2.299 -0.8327 -2.4293 -1.4828
17432TIP3    H273788   3.520   3.698   2.401  2.7408  0.4928  0.3068
17433TIP3   OH273789   0.127   6.370  16.609 -1.1321  0.1735  0.2336
17433TIP3    H173790   0.221   6.380  16.592 -0.9323  0.5793  1.4679
17433TIP3    H273791   0.087   6.364  16.522 -0.3050  3.1592 -0.4645
17434TIP3   OH273792   3.561   2.746   0.338  0.5092 -0.2330 -0.2737
17434TIP3    H173793   3.472   2.779   0.353  1.0160  0.4559  1.4993
17434TIP3    H273794   3.550   2.651   0.333 -0.2913 -0.1978  0.4366
17435TIP3   OH273795   2.976   1.088   4.198 -0.0255  0.1846 -0.1013
17435TIP3    H173796   2.997   0.996   4.214  1.1765  0.4287 -0.1894
17435TIP3    H273797   2.993   1.132   4.281 -0.6443  0.3286 -0.0458
17436TIP3   OH273798   3.716   4.542   2.709  0.1222 -0.2135 -0.6464
17436TIP3    H173799   3.692   4.591   2.788  1.8750 -1.5609  0.7901
17436TIP3    H273800   3.794   4.586   2.676  0.9578 -1.2434 -0.0741
17437TIP3   OH273801   0.518   1.600  11.845 -0.5924  0.5510 -0.4840
17437TIP3    H173802   0.611   1.602  11.869 -0.9815  0.2801  1.1754
17437TIP3    H273803   0.491   1.510  11.864 -1.4996  0.9843  0.3232
17438TIP3   OH273804   5.679   1.573   3.317  0.5812  0.3332 -0.3105
17438TIP3    H173805   5.761   1.526   3.302  0.3810  0.2669 -1.2640
17438TIP3    H273806   5.617   1.504   3.341  1.1413  0.5483  2.0375
17439TIP3   OH273807   0.086   2.775   0.420 -0.1851  0.1801 -0.1456
17439TIP3    H173808   0.164   2.804   0.468  0.0978  0.4968 -0.7990
17439TIP3    H273809   0.025   2.747   0.489  0.7296 -0.6444  0.3484
17440TIP3   OH273810   1.883   0.536   1.305  0.1913 -0.0611  0.6574
17440TIP3    H173811   1.827   0.533   1.227 -0.6529 -0.4465  1.2743
17440TIP3    H273812   1.971   0.517   1.271  0.0625  1.0364 -0.3939
17441TIP3   OH273813   6.581   5.005   2.754 -0.5017 -0.0847  0.0494
17441TIP3    H173814   6.565   4.971   2.666 -1.2024 -0.5125  0.3340
17441TIP3    H273815   6.579   4.928   2.810 -0.9791  0.2882  0.5558
17442TIP3   OH273816   5.165   1.876  11.383  0.1163 -0.1971 -0.4548
17442TIP3    H173817   5.157   1.781  11.377 -0.8911 -0.2998  1.6366
17442TIP3    H273818   5.156   1.895  11.477 -1.0006  2.0790 -0.9568
17443TIP3   OH273819   0.631   3.646  14.353 -0.4229 -0.1202  0.0938
17443TIP3    H173820   0.588   3.643  14.438 -0.2321  2.0027  0.3249
17443TIP3    H273821   0.700   3.581  14.358  0.8545  1.2982  2.3343
17444TIP3   OH273822   3.087   0.078  16.586  0.3362 -0.4111 -0.1519
17444TIP3    H173823   3.081   0.068  16.681 -1.9529 -2.6083 -0.4086
17444TIP3    H273824   3.066   0.169  16.569  2.2088  0.3939  1.4712
17445TIP3   OH273825   1.183   6.242  12.835 -0.0653 -0.2168  0.2757
17445TIP3    H173826   1.219   6.218  12.749  1.5929  2.6129  0.0370
17445TIP3    H273827   1.101   6.287  12.815  0.5326  0.8242  0.0906
17446TIP3   OH273828   5.557   0.472  15.864 -0.0435 -0.2759 -0.3529
17446TIP3    H173829   5.635   0.416  15.861  0.6260  0.6372 -0.8051
17446TIP3    H273830   5.486   0.414  15.889  1.2701 -0.5883  3.2583
17447TIP3   OH273831   0.593   6.815   3.582  0.2881  0.8344  0.2259
17447TIP3    H173832   0.569   6.723   3.587  1.2846  0.5481 -0.0353
17447TIP3    H273833   0.531   6.853   3.519  1.4835 -0.2335 -1.6780
17448TIP3   OH273834   4.179   5.851  14.018 -0.5242 -0.4580 -0.2647
17448TIP3    H173835   4.264   5.857  13.976 -0.3294 -0.3532  0.1342
17448TIP3    H273836   4.122   5.909  13.967  0.1613  1.1530  0.6925
17449TIP3   OH273837   2.217   0.602   2.391  0.0728 -0.4219 -0.2622
17449TIP3    H173838   2.295   0.553   2.366  0.2848 -0.2718  0.0949
17449TIP3    H273839   2.234   0.692   2.361  0.6601 -0.0682  1.0747
17450TIP3   OH273840   5.272   5.047   5.353  0.0082 -0.1118 -0.1126
17450TIP3    H173841   5.289   5.020   5.444 -0.1563  0.7497  0.1789
17450TIP3    H273842   5.184   5.084   5.355  0.5062  1.1474 -0.3340
17451TIP3   OH273843   2.148   5.572   1.664  0.0657 -0.1491 -0.2612
17451TIP3    H173844   2.193   5.577   1.579 -0.1034  0.0660 -0.3379
17451TIP3    H273845   2.055   5.569   1.641 -0.0385  1.0748 -0.0477
17452TIP3   OH273846   6.389   5.214   3.756 -0.2342 -0.1918 -0.1209
17452TIP3    H173847   6.419   5.132   3.794  1.1054 -1.0883 -2.9036
17452TIP3    H273848   6.293   5.210   3.762 -0.1381 -1.2685  1.0587
17453TIP3   OH273849   1.769   5.688  14.581 -0.2871  0.2608 -0.1489
17453TIP3    H173850   1.722   5.676  14.498 -1.2608  4.2257 -0.3944
17453TIP3    H273851   1.862   5.689  14.556 -0.5002  0.2057 -0.9855
17454TIP3   OH273852   5.208   1.476   0.285 -0.0509  0.2309  0.2994
17454TIP3    H173853   5.187   1.448   0.196  0.1988  1.3929 -0.1484
17454TIP3    H273854   5.225   1.570   0.277 -0.1294  0.3740  1.5967
17455TIP3   OH273855   1.332   3.236   6.145 -0.3758 -0.2019 -0.0498
17455TIP3    H173856   1.241   3.232   6.116  0.0410 -2.0238 -1.2806
17455TIP3    H273857   1.371   3.305   6.091 -0.9766  0.4884  0.3825
17456TIP3   OH273858   0.221   5.627  14.716 -0.0968  0.2307 -0.6899
17456TIP3    H173859   0.126   5.630  14.710 -0.0103  1.3562 -2.1611
17456TIP3    H273860   0.239   5.566  14.787 -1.9236  0.4665  0.0243
17457TIP3   OH273861   2.026   4.658   2.174 -0.2070 -0.5297  0.1902
17457TIP3    H173862   1.971   4.735   2.182 -0.1202 -0.5440  0.9778
17457TIP3    H273863   2.102   4.688   2.124 -1.0273 -0.5785 -1.1375
17458TIP3   OH273864   2.310   0.454  16.066  0.3238 -0.0910  0.5058
17458TIP3    H173865   2.364   0.515  16.015  0.8071 -0.0930  1.0097
17458TIP3    H273866   2.373   0.393  16.104 -0.2886 -2.1615 -1.6090
17459TIP3   OH273867   5.895   3.903  15.771 -0.1440  0.0277 -0.4223
17459TIP3    H173868   5.848   3.827  15.806  0.2164  0.3037  0.7085
17459TIP3    H273869   5.881   3.899  15.676 -0.7390 -1.0333 -0.3011
17460TIP3   OH273870   5.946   2.299  12.262  0.6133 -0.2439  0.3927
17460TIP3    H173871   5.969   2.302  12.354 -1.7955  1.4938  1.0475
17460TIP3    H273872   5.990   2.375  12.224  1.7517 -1.0596  0.0144
17461TIP3   OH273873   2.674   0.310   1.956 -0.0571  0.1255 -0.2936
17461TIP3    H173874   2.645   0.346   2.039 -1.1607 -0.0045 -0.6063
17461TIP3    H273875   2.618   0.352   1.891  1.8000  1.4181 -1.1588
17462TIP3   OH273876   2.995   4.284  14.214  0.1327  0.2171  0.1045
17462TIP3    H173877   2.976   4.365  14.262 -0.8179  0.2261 -0.2822
17462TIP3    H273878   2.944   4.217  14.260 -0.7307  0.2125 -0.8402
17463TIP3   OH273879   3.498   1.779   1.634  0.5206 -0.3332 -0.4619
17463TIP3    H173880   3.440   1.734   1.572  1.6456 -1.0748 -1.0155
17463TIP3    H273881   3.514   1.714   1.703 -1.3612  0.7546  1.0810
17464TIP3   OH273882   1.889   5.282   2.065 -0.3921 -0.5109  0.2748
17464TIP3    H173883   1.901   5.341   2.140 -1.2708 -1.6477  1.3567
17464TIP3    H273884   1.942   5.205   2.087 -0.9154 -0.9878 -0.1085
17465TIP3   OH273885   5.345   5.034   0.104 -0.3432 -0.0869 -0.5844
17465TIP3    H173886   5.355   4.969   0.174 -0.6574  0.1292 -0.3401
17465TIP3    H273887   5.388   5.113   0.138 -1.9610  0.5437  0.0677
17466TIP3   OH273888   2.405   6.308  13.731 -0.5080 -0.4060  0.4234
17466TIP3    H173889   2.442   6.321  13.818  0.0881  0.1717  0.0967
17466TIP3    H273890   2.330   6.368  13.728  0.0696  0.3304  0.2012
17467TIP3   OH273891   6.673   2.043  13.619  0.0060 -0.7061  0.4062
17467TIP3    H173892   6.632   2.009  13.699 -0.6998  1.8307  1.1923
17467TIP3    H273893   6.634   2.129  13.607  0.5965 -0.7457 -2.3453
17468TIP3   OH273894   6.337   0.929   6.104  0.1779 -0.2937  0.3074
17468TIP3    H173895   6.407   0.972   6.153 -0.6843  0.7618  0.6467
17468TIP3    H273896   6.270   0.997   6.092 -0.7981 -1.2746  0.0084
17469TIP3   OH273897   5.056   2.899  12.910  0.0838 -0.3087  0.4076
17469TIP3    H173898   5.088   2.947  12.987  0.2154 -1.7164  1.2735
17469TIP3    H273899   5.049   2.966  12.842 -4.9714  2.2633  2.8497
17470TIP3   OH273900   0.412   1.830   4.919  0.1608  0.5309 -0.1391
17470TIP3    H173901   0.372   1.916   4.908 -0.4053  0.3572  0.5326
17470TIP3    H273902   0.473   1.823   4.845 -2.2456  0.1014 -2.2218
17471TIP3   OH273903   1.695   5.215   4.396 -0.5741 -0.5729 -0.2033
17471TIP3    H173904   1.671   5.300   4.360  0.3865 -1.0109 -1.9803
17471TIP3    H273905   1.718   5.233   4.487 -0.0013  1.1279 -0.6533
17472TIP3   OH273906   2.355   6.600  10.594  0.7949 -0.3980  0.4933
17472TIP3    H173907   2.366   6.667  10.527  0.4719 -0.4216  0.4166
17472TIP3    H273908   2.410   6.527  10.564  0.4178 -0.5225  0.1009
17473TIP3   OH273909   4.474   4.944   3.202  0.0994  0.6698 -0.0698
17473TIP3    H173910   4.463   4.849   3.206  0.7558  0.5510 -0.9176
17473TIP3    H273911   4.543   4.963   3.266 -0.9868  0.7611  1.1234
17474TIP3   OH273912   4.381   5.200  15.721 -0.2148  0.2482 -0.0881
17474TIP3    H173913   4.317   5.130  15.705  0.3445  0.2712 -3.0129
17474TIP3    H273914   4.466   5.159  15.703  0.2893  1.1729  0.1529
17475TIP3   OH273915   3.482   3.911   3.756  0.0822 -0.5510  0.2845
17475TIP3    H173916   3.562   3.944   3.716  1.7772  0.4807  4.1087
17475TIP3    H273917   3.457   3.978   3.819 -3.8860 -0.8683 -0.6694
17476TIP3   OH273918   3.627   1.533  16.874  0.0811  0.3799 -0.2893
17476TIP3    H173919   3.657   1.519  16.785  0.0128 -1.0303 -0.1215
17476TIP3    H273920   3.682   1.603  16.908  1.0650 -0.0427 -0.9883
17477TIP3   OH273921   1.688   3.678   0.772 -0.4953 -0.2421  0.5172
17477TIP3    H173922   1.670   3.708   0.862 -0.1758  1.0156  0.1904
17477TIP3    H273923   1.777   3.642   0.776 -0.4563 -0.1270  0.6913
17478TIP3   OH273924   6.134   0.615   1.975  0.6389 -0.1282 -0.2825
17478TIP3    H173925   6.079   0.682   1.934  0.9835  0.6376  0.4912
17478TIP3    H273926   6.078   0.537   1.978 -1.8337  1.4649  3.6026
17479TIP3   OH273927   3.544   5.307   3.049  0.9375  0.2205 -0.6523
17479TIP3    H173928   3.454   5.340   3.049  0.7697 -0.2389 -0.6399
17479TIP3    H273929   3.545   5.239   3.116  1.4994  0.7707 -0.0969
17480TIP3   OH273930   3.162   1.273  11.473 -0.2045 -0.1258  0.2687
17480TIP3    H173931   3.159   1.177  11.466  1.4264 -0.2861  1.3158
17480TIP3    H273932   3.072   1.298  11.492 -1.6511 -1.0205 -4.0542
17481TIP3   OH273933   6.180   3.436  15.171  0.2694  0.3502  0.3767
17481TIP3    H173934   6.239   3.486  15.227 -0.4088  0.7846  0.7167
17481TIP3    H273935   6.141   3.371  15.229  1.9469 -1.3495 -0.2783
17482TIP3   OH273936   3.242   6.205   5.217  0.5161 -0.5460 -0.1791
17482TIP3    H173937   3.273   6.122   5.251  1.3981  0.4258  1.5186
17482TIP3    H273938   3.268   6.204   5.125 -0.1880 -2.4408 -0.3998
17483TIP3   OH273939   1.863   3.093   4.968  0.0956  0.4260 -0.3769
17483TIP3    H173940   1.774   3.061   4.959 -0.1252  1.1483 -0.8271
17483TIP3    H273941   1.916   3.014   4.977 -0.5543 -0.0181 -0.4068
17484TIP3   OH273942   4.675   0.804  13.193  0.9133 -0.0380  0.1574
17484TIP3    H173943   4.751   0.773  13.144  1.2410 -1.0945  1.2883
17484TIP3    H273944   4.602   0.753  13.158  0.9186  0.1284 -0.1039
17485TIP3   OH273945   2.951   2.202   5.997 -0.5171 -0.1136 -0.7389
17485TIP3    H173946   2.921   2.253   6.072  0.4541 -0.1097 -0.3321
17485TIP3    H273947   2.998   2.128   6.036 -2.3450 -1.6368 -1.3064
17486TIP3   OH273948   4.881   3.445   0.826 -0.1489  0.2327 -0.0254
17486TIP3    H173949   4.967   3.441   0.783 -0.4496  0.7042 -0.6892
17486TIP3    H273950   4.840   3.524   0.790 -0.5337  0.4770  0.9204
17487TIP3   OH273951   2.131   3.718   6.103 -0.2054 -0.1581  0.0528
17487TIP3    H173952   2.050   3.721   6.154  0.8734  2.0665  1.8330
17487TIP3    H273953   2.200   3.709   6.169  1.1359  0.5797 -1.2002
17488TIP3   OH273954   0.133   1.689  12.271  0.3630 -0.2644  0.0496
17488TIP3    H173955   0.168   1.682  12.183 -0.3054 -0.5625 -0.2008
17488TIP3    H273956   0.086   1.772  12.273 -0.2168 -0.5808 -0.1016
17489TIP3   OH273957   1.738   1.873   3.282 -0.2307  0.3100 -0.0875
17489TIP3    H173958   1.707   1.783   3.277 -1.7639  0.8323 -0.5563
17489TIP3    H273959   1.732   1.906   3.192 -0.6144  1.1695  0.2408
17490TIP3   OH273960   5.349   3.518  17.193 -0.5002 -0.0466  0.4142
17490TIP3    H173961   5.318   3.546  17.107 -1.3266  0.4908  0.8796
17490TIP3    H273962   5.429   3.569  17.208 -0.9643  0.6908  0.4375
17491TIP3   OH273963   5.112   5.716   4.763  0.0689  0.0401  0.3498
17491TIP3    H173964   5.188   5.714   4.704 -1.1091 -0.1110 -1.2007
17491TIP3    H273965   5.108   5.807   4.792  0.6151  0.1381  0.1445
17492TIP3   OH273966   6.157   4.372  11.691  0.4109  0.7320  0.8238
17492TIP3    H173967   6.251   4.357  11.693  0.2507 -2.2991 -2.7398
17492TIP3    H273968   6.143   4.430  11.616 -0.5889  0.0069  0.4160
17493TIP3   OH273969   0.815   3.280  11.736  0.3029  0.3578 -0.2341
17493TIP3    H173970   0.808   3.306  11.644 -0.2280 -1.0357 -0.6181
17493TIP3    H273971   0.848   3.190  11.733  2.3510  0.9932  1.0350
17494TIP3   OH273972   0.154   5.932   5.822  0.1754 -0.5094  0.5803
17494TIP3    H173973   0.211   5.856   5.825 -0.1302 -0.7471  0.4358
17494TIP3    H273974   0.066   5.896   5.808  0.1994 -0.0693 -0.9216
17495TIP3   OH273975   2.849   3.719  15.430  0.1160  0.5399  0.6727
17495TIP3    H173976   2.845   3.720  15.335  1.1345  2.2121  0.6197
17495TIP3    H273977   2.939   3.691  15.450  0.5398  2.0654  1.0680
17496TIP3   OH273978   2.810   2.664  13.053 -0.1930 -0.2784  0.1099
17496TIP3    H173979   2.715   2.673  13.047 -0.1822 -0.3569 -0.2406
17496TIP3    H273980   2.832   2.695  13.140 -0.4006  0.9467 -0.2511
17497TIP3   OH273981   6.705   2.488  16.783  0.5704  0.1439  0.4789
17497TIP3    H173982   6.724   2.548  16.711 -0.3386  1.4800  1.2958
17497TIP3    H273983   6.612   2.467  16.773  0.6891 -0.5006  0.6657
17498TIP3   OH273984   4.953   3.701   6.036 -0.2286 -0.1745 -0.1311
17498TIP3    H173985   4.909   3.739   5.961 -0.9054  0.5902  0.6381
17498TIP3    H273986   4.969   3.774   6.095 -0.1484 -0.8376  0.6943
17499TIP3   OH273987   0.175   4.467  14.452  0.2751 -0.1967  0.2842
17499TIP3    H173988   0.232   4.515  14.511  0.4586 -0.0569 -0.0095
17499TIP3    H273989   0.185   4.375  14.479  1.8015 -0.3659 -0.7376
17500TIP3   OH273990   2.048   1.770  16.592  0.3000  0.1947 -0.1379
17500TIP3    H173991   1.959   1.755  16.624 -0.0733 -0.0491 -1.2283
17500TIP3    H273992   2.047   1.733  16.503  1.4917  0.1878 -0.1547
17501TIP3   OH273993   4.629   3.711  14.532 -0.6961 -0.1017  0.5452
17501TIP3    H173994   4.671   3.639  14.484 -1.2765  0.4120 -0.7924
17501TIP3    H273995   4.701   3.770  14.554 -0.2869 -0.8320  1.1968
17502TIP3   OH273996   1.958   1.013   3.013 -0.1513 -0.0542  0.5227
17502TIP3    H173997   1.944   0.966   2.931  0.7342  2.1255 -0.9685
17502TIP3    H273998   1.876   1.060   3.028 -0.6097 -1.0842  1.3756
17503TIP3   OH273999   3.218   5.585   1.775  0.6093  0.1395 -0.0076
17503TIP3    H174000   3.249   5.592   1.866  0.0032  1.0544  0.1386
17503TIP3    H274001   3.123   5.582   1.783  0.3312  3.5081 -0.7442
17504TIP3   OH274002   4.046   3.917   5.814  0.6123  0.0500 -0.2989
17504TIP3    H174003   4.121   3.857   5.813  0.2169 -0.4530 -0.3653
17504TIP3    H274004   4.020   3.921   5.906 -0.2077 -0.9706 -0.4671
17505TIP3   OH274005   4.559   2.755  15.496  0.6023  0.5768  0.2887
17505TIP3    H174006   4.496   2.702  15.544 -1.3133  0.6088 -2.0192
17505TIP3    H274007   4.527   2.845  15.504  0.8054  0.7000 -0.2048
17506TIP3   OH274008   5.083   2.945   5.896 -0.5188 -0.0357 -0.0084
17506TIP3    H174009   5.118   3.034   5.904  1.4004 -0.8893  2.4993
17506TIP3    H274010   5.158   2.893   5.866 -1.3812 -0.9493 -0.6183
17507TIP3   OH274011   0.266   4.976  15.348 -0.2784 -0.9598  0.3256
17507TIP3    H174012   0.183   5.022  15.359 -1.2061 -2.4912  0.0408
17507TIP3    H274013   0.279   4.931  15.432  1.3292  0.8760  1.1144
17508TIP3   OH274014   5.252   6.392   5.327  0.3890  0.4183 -0.1602
17508TIP3    H174015   5.195   6.468   5.324 -1.3455 -0.8375 -0.4556
17508TIP3    H274016   5.248   6.361   5.417 -1.0428 -0.8012 -0.5880
17509TIP3   OH274017   4.461   3.594  16.475  1.0264 -0.2032 -0.5834
17509TIP3    H174018   4.504   3.636  16.549  1.7351  0.2680 -1.2369
17509TIP3    H274019   4.447   3.504  16.503 -0.2728  0.3797  0.7468
17510TIP3   OH274020   6.793   3.635   5.521  0.5516  0.7894 -0.3551
17510TIP3    H174021   6.854   3.638   5.595 -2.1177 -0.6279  2.0850
17510TIP3    H274022   6.716   3.684   5.551 -1.4517 -1.5774 -1.2834
17511TIP3   OH274023   6.356   6.760   4.662 -0.4790 -0.5673  0.2268
17511TIP3    H174024   6.326   6.750   4.753 -1.1948 -1.6127 -0.1084
17511TIP3    H274025   6.329   6.848   4.637 -0.3934 -0.3179  0.9783
17512TIP3   OH274026   2.257   3.106   3.152  0.2846 -0.3164 -0.5391
17512TIP3    H174027   2.311   3.029   3.170  1.7568  0.8977  0.5208
17512TIP3    H274028   2.286   3.171   3.217 -0.2521  1.4352 -1.9665
17513TIP3   OH274029   5.602   4.218  16.598 -0.5773  0.0847 -0.6766
17513TIP3    H174030   5.531   4.166  16.634 -0.0745  0.4681  0.9302
17513TIP3    H274031   5.604   4.297  16.652  0.8216  0.2457 -0.9287
17514TIP3   OH274032   3.142   3.691   2.560  0.2313 -0.1979  0.3476
17514TIP3    H174033   3.222   3.742   2.550  0.2660 -0.5329 -1.5468
17514TIP3    H274034   3.092   3.737   2.628  1.1998  1.1075  0.2091
17515TIP3   OH274035   1.724   6.059  15.590  0.5539 -0.3170  0.4388
17515TIP3    H174036   1.632   6.050  15.566  0.1372 -0.3876  2.0087
17515TIP3    H274037   1.736   6.153  15.604  0.3774 -0.4547  1.5394
17516TIP3   OH274038   1.638   2.167   1.452 -0.2632  0.0815 -0.1305
17516TIP3    H174039   1.646   2.232   1.382  0.0536  0.7488  0.5103
17516TIP3    H274040   1.726   2.161   1.489 -0.6597  0.6028  0.9559
17517TIP3   OH274041   6.311   3.130  11.799  0.0408  0.3188  0.0795
17517TIP3    H174042   6.309   3.210  11.745 -0.2507 -0.4493 -1.0794
17517TIP3    H274043   6.400   3.097  11.790 -0.5908 -1.0276 -1.8218
17518TIP3   OH274044   2.503   1.143   3.078 -0.3405  0.1240 -0.5118
17518TIP3    H174045   2.554   1.221   3.058  0.1648 -0.1382 -0.2517
17518TIP3    H274046   2.567   1.077   3.102 -0.8562  0.3287  1.6836
17519TIP3   OH274047   5.701   0.740   3.998 -0.1214  0.5927 -0.8064
17519TIP3    H174048   5.763   0.813   3.989  0.8186 -0.0446  0.2827
17519TIP3    H274049   5.632   0.775   4.055 -0.5979  1.1836 -1.7178
17520TIP3   OH274050   4.853   1.264   2.392  0.0591  0.5482  0.5116
17520TIP3    H174051   4.870   1.298   2.304  1.4610 -1.0633  0.1029
17520TIP3    H274052   4.922   1.301   2.446  1.6601 -1.5887  0.0410
17521TIP3   OH274053   5.641   1.663   5.249 -0.5012 -0.5530 -0.4114
17521TIP3    H174054   5.624   1.584   5.197 -1.2460  0.2839 -1.4865
17521TIP3    H274055   5.702   1.714   5.196 -0.8562  0.0782 -0.2189
17522TIP3   OH274056   6.535   1.013   6.262  0.4575 -0.5099 -0.2643
17522TIP3    H174057   6.530   0.922   6.289 -2.1346 -0.7126 -1.0669
17522TIP3    H274058   6.487   1.061   6.330 -0.2779 -0.1277 -1.0173
17523TIP3   OH274059   6.187   1.159  14.244 -0.0202 -0.7312  0.1811
17523TIP3    H174060   6.168   1.066  14.260  2.7510 -1.1491  1.7046
17523TIP3    H274061   6.108   1.205  14.272 -1.1763 -2.5742  0.1192
17524TIP3   OH274062   2.037   4.667  12.713  0.3705  0.1994 -0.1685
17524TIP3    H174063   1.989   4.737  12.668 -0.7786 -1.3742 -1.5176
17524TIP3    H274064   2.027   4.688  12.806 -0.7275  1.3238 -0.5051
17525TIP3   OH274065   3.601   0.987  12.867 -0.2177  0.2007  0.1602
17525TIP3    H174066   3.508   0.987  12.892  0.2879 -0.5774  2.2541
17525TIP3    H274067   3.639   0.915  12.917  1.4438  0.2205 -1.0182
17526TIP3   OH274068   1.920   2.778  10.913 -0.0287 -0.7709  0.2055
17526TIP3    H174069   1.960   2.840  10.974  0.7453 -1.7203  0.6740
17526TIP3    H274070   1.949   2.692  10.943  0.0119 -1.2828 -1.2441
17527TIP3   OH274071   0.117   4.310   3.089 -0.1973  0.1950  0.0356
17527TIP3    H174072   0.100   4.276   3.001 -0.3787  1.8960 -0.6159
17527TIP3    H274073   0.212   4.308   3.098 -0.1790  0.0211 -0.2044
17528TIP3   OH274074   0.387   0.210   1.068 -0.2978  0.3248 -0.0209
17528TIP3    H174075   0.396   0.115   1.075  1.3753  0.5608  1.7703
17528TIP3    H274076   0.394   0.228   0.974  0.0853 -1.2532 -0.3181
17529TIP3   OH274077   1.130   1.179  11.633  0.0666  0.1900  0.0968
17529TIP3    H174078   1.181   1.100  11.615 -1.0471 -0.7793  1.0058
17529TIP3    H274079   1.053   1.171  11.576  0.3965  1.1360 -0.5212
17530TIP3   OH274080   0.763   3.466  11.973 -0.1972 -0.5793  0.1979
17530TIP3    H174081   0.712   3.431  11.901 -0.1983  0.9245 -0.5754
17530TIP3    H274082   0.854   3.466  11.942  0.2160 -2.4500  1.2496
17531TIP3   OH274083   5.370   4.950  11.595 -0.0580  0.3723  0.0357
17531TIP3    H174084   5.427   5.012  11.549  0.8329 -0.2035  0.3256
17531TIP3    H274085   5.282   4.970  11.564  0.4343  0.4659 -1.3765
17532TIP3   OH274086   0.638   2.559  14.439  0.6791 -0.0973  0.0050
17532TIP3    H174087   0.685   2.564  14.523  1.6825  1.6135 -0.5927
17532TIP3    H274088   0.674   2.481  14.396  3.5916  1.4689 -0.6834
17533TIP3   OH274089   0.190   4.190  14.500 -0.2567  0.2466 -0.0110
17533TIP3    H174090   0.172   4.100  14.525  0.3513 -0.7849 -2.8313
17533TIP3    H274091   0.277   4.187  14.459  1.0816  2.7204  2.3352
17534TIP3   OH274092   5.230   3.621   1.687 -0.5349 -0.4701 -0.1933
17534TIP3    H174093   5.146   3.632   1.731 -1.0142  0.7493 -1.3131
17534TIP3    H274094   5.274   3.551   1.734 -1.0230  0.7073  2.1561
17535TIP3   OH274095   6.821   4.913  16.372  0.4099  0.2585  0.3583
17535TIP3    H174096   6.816   5.006  16.391 -1.0434 -0.1201  2.0616
17535TIP3    H274097   6.812   4.870  16.457 -0.0827 -1.4549 -0.5090
17536TIP3   OH274098   3.450   2.860   1.020  0.1562 -0.5933 -0.1335
17536TIP3    H174099   3.408   2.890   0.939 -1.0444  0.4136  0.8019
17536TIP3    H274100   3.512   2.793   0.992 -0.3004 -0.3479 -1.8678
17537TIP3   OH274101   1.361   1.651  14.309 -0.0834  0.0134  0.2188
17537TIP3    H174102   1.404   1.707  14.374  0.8331 -1.9306  1.3830
17537TIP3    H274103   1.432   1.623  14.251 -0.2889 -0.9296  0.4178
17538TIP3   OH274104   4.012   2.706  13.977  0.2513 -0.1865  0.5625
17538TIP3    H174105   4.099   2.692  14.012  0.1900 -1.0863  0.4045
17538TIP3    H274106   4.018   2.787  13.926  1.0415 -0.3396  0.4027
17539TIP3   OH274107   6.264   6.261  17.148 -0.1032  0.4465  0.1915
17539TIP3    H174108   6.274   6.271  17.053  2.1134  2.4850  0.5403
17539TIP3    H274109   6.312   6.181  17.168 -0.1564  0.2705 -0.3457
17540TIP3   OH274110   5.717   6.599   4.373 -0.3011  0.1498 -0.3889
17540TIP3    H174111   5.742   6.529   4.313 -0.8082  0.4489 -0.9624
17540TIP3    H274112   5.798   6.623   4.418 -0.2860 -1.4514  0.5223
17541TIP3   OH274113   1.286   1.615   3.968 -0.6027  0.1893 -0.2313
17541TIP3    H174114   1.232   1.552   3.921  0.2831 -0.6229 -0.1950
17541TIP3    H274115   1.310   1.681   3.903 -1.2345  0.2957 -0.3578
17542TIP3   OH274116   5.524   4.001  15.451  0.1735 -0.4624  0.2459
17542TIP3    H174117   5.517   4.013  15.356  1.1317 -0.5102  0.1577
17542TIP3    H274118   5.468   4.068  15.488 -0.1066 -0.3561 -0.3513
17543TIP3   OH274119   0.405   0.971  16.910  0.5228 -0.2958  0.3292
17543TIP3    H174120   0.347   0.962  16.985 -0.0180  0.9090  0.0896
17543TIP3    H274121   0.346   0.968  16.834  0.6226  1.8212  0.1179
17544TIP3   OH274122   4.512   1.105  13.534 -0.1470 -0.0555  0.0146
17544TIP3    H174123   4.551   1.066  13.612  1.8837  1.6018 -0.0984
17544TIP3    H274124   4.436   1.153  13.566 -0.6877 -1.2347  0.5933
17545TIP3   OH274125   0.313   3.031   1.094  0.1925  0.1364  0.1988
17545TIP3    H174126   0.255   2.955   1.095  0.8320 -0.3580  0.3162
17545TIP3    H274127   0.387   3.004   1.039 -0.5157  1.3895 -1.4397
17546TIP3   OH274128   0.561   1.521   3.613  0.3701 -0.4633  0.2027
17546TIP3    H174129   0.598   1.468   3.542  1.7510 -0.4742  0.9023
17546TIP3    H274130   0.574   1.468   3.692 -0.3448 -0.0609  0.6020
17547TIP3   OH274131   6.323   6.392  16.179  0.1280  0.5720 -0.4341
17547TIP3    H174132   6.274   6.464  16.218  2.6752  2.8097 -1.0762
17547TIP3    H274133   6.413   6.406  16.209  0.9937 -1.4258 -1.9066
17548TIP3   OH274134   4.610   6.176   4.679  0.2783  0.3798 -0.3200
17548TIP3    H174135   4.616   6.147   4.588 -0.9341  1.1396 -0.6686
17548TIP3    H274136   4.663   6.113   4.728 -0.7293 -1.2992 -1.2755
17549TIP3   OH274137   3.722   6.288  13.394 -1.0474 -0.0834  0.0055
17549TIP3    H174138   3.808   6.330  13.404 -1.3285  0.7053 -0.7440
17549TIP3    H274139   3.672   6.316  13.471 -1.3767  1.3685 -0.6942
17550TIP3   OH274140   3.651   4.567   0.245 -0.0025 -0.1078  0.4027
17550TIP3    H174141   3.606   4.585   0.328  0.5135 -0.7857  0.8371
17550TIP3    H274142   3.738   4.537   0.271  0.6900  1.0967 -0.4228
17551TIP3   OH274143   6.166   1.614  11.402  0.3338 -0.0221  0.0600
17551TIP3    H174144   6.187   1.593  11.311  3.8108 -0.1020  0.7448
17551TIP3    H274145   6.220   1.555  11.454  0.4219  1.7561  2.1660
17552TIP3   OH274146   5.764   3.632  11.990 -0.4695  0.2029  0.0649
17552TIP3    H174147   5.744   3.709  12.043 -0.3518  0.7507 -0.6601
17552TIP3    H274148   5.742   3.658  11.900 -0.2442 -0.5418 -0.2184
17553TIP3   OH274149   5.913   0.405  12.283  0.2583  0.3788  0.5338
17553TIP3    H174150   5.864   0.372  12.207  0.9310 -2.5869  1.2637
17553TIP3    H274151   5.857   0.385  12.358  0.0577  2.3667  0.9742
17554TIP3   OH274152   4.082   4.546  15.551 -0.2490 -0.0931  0.0675
17554TIP3    H174153   4.005   4.489  15.554  0.6650 -1.3480  0.9297
17554TIP3    H274154   4.063   4.608  15.481 -0.1355 -3.2487 -3.0806
17555TIP3   OH274155   1.084   5.960   0.722  0.3664  0.3628 -0.0451
17555TIP3    H174156   1.047   5.893   0.780  1.0734  0.0898  0.0967
17555TIP3    H274157   1.137   6.015   0.779 -0.2287  1.0772 -0.1541
17556TIP3   OH274158   4.263   3.168   1.967 -0.1731  0.3997 -0.0845
17556TIP3    H174159   4.240   3.128   2.051  0.1602  1.1900  0.3989
17556TIP3    H274160   4.180   3.184   1.923 -0.2972 -1.1261 -0.4411
17557TIP3   OH274161   2.574   2.939   5.653  0.2960 -0.2581  0.1367
17557TIP3    H174162   2.575   3.034   5.646  3.3247 -0.1164  0.8605
17557TIP3    H274163   2.560   2.922   5.746 -0.6692 -0.5514 -0.0570
17558TIP3   OH274164   6.656   4.770  17.192 -0.9864  0.5317  0.0713
17558TIP3    H174165   6.638   4.813  17.109 -3.0106  0.0467  0.2028
17558TIP3    H274166   6.595   4.812  17.254 -1.9333 -1.4218  0.5346
17559TIP3   OH274167   2.542   4.018   0.168 -0.1436 -0.1758 -0.1817
17559TIP3    H174168   2.508   4.035   0.080  0.6102  0.7032 -0.3306
17559TIP3    H274169   2.499   3.938   0.196 -0.9070 -0.1000 -1.0852
17560TIP3   OH274170   3.127   6.567  15.909 -0.8704 -0.0599 -0.0842
17560TIP3    H174171   3.208   6.615  15.890 -1.0555  0.1824 -0.2709
17560TIP3    H274172   3.103   6.594  15.997  0.4016 -1.7643  0.8499
17561TIP3   OH274173   2.679   0.306  15.839  0.2916 -0.2520 -0.1854
17561TIP3    H174174   2.674   0.399  15.861 -0.5445  0.0845 -1.6621
17561TIP3    H274175   2.662   0.303  15.744 -0.7625 -2.0027  0.0197
17562TIP3   OH274176   1.696   5.623   5.349  0.2790 -0.5243 -0.2873
17562TIP3    H174177   1.716   5.619   5.256  0.9948  1.1709 -0.2416
17562TIP3    H274178   1.699   5.716   5.370  0.7601 -0.9237  1.5638
17563TIP3   OH274179   4.358   2.458  12.444 -0.6238 -0.0106  0.1650
17563TIP3    H174180   4.424   2.477  12.510 -0.7919  0.3768  0.2230
17563TIP3    H274181   4.390   2.379  12.400 -0.7643 -0.5685  1.0465
17564TIP3   OH274182   3.814   4.875  14.213  0.3673  0.3952 -0.1952
17564TIP3    H174183   3.778   4.885  14.125 -0.9821  1.0914  0.3949
17564TIP3    H274184   3.796   4.784  14.237 -0.0240  0.4372 -0.3273
17565TIP3   OH274185   5.802   0.370   1.479 -0.2359  0.1557  0.0034
17565TIP3    H174186   5.798   0.425   1.557  0.8337 -0.8571  0.8221
17565TIP3    H274187   5.711   0.344   1.464 -0.3240 -0.7900  1.8075
17566TIP3   OH274188   6.099   1.198  16.574  0.0399 -0.6947  0.2623
17566TIP3    H174189   6.169   1.264  16.570  0.1967 -0.8214  0.8979
17566TIP3    H274190   6.054   1.207  16.490  0.5978 -0.3671 -0.0101
17567TIP3   OH274191   2.017   1.397  15.167 -0.3658 -0.0414  0.2734
17567TIP3    H174192   2.098   1.442  15.142 -0.3541 -1.4036 -2.5802
17567TIP3    H274193   2.044   1.306  15.180 -1.5732 -0.8165 -2.1424
17568TIP3   OH274194   6.615   5.159  14.443 -0.3360  0.6443  0.0286
17568TIP3    H174195   6.622   5.254  14.445 -1.2913  0.7205 -0.1181
17568TIP3    H274196   6.559   5.140  14.368  1.1726 -0.1320 -0.9579
17569TIP3   OH274197   2.261   0.973   4.887 -0.4654  0.1838  0.2676
17569TIP3    H174198   2.316   0.894   4.884  0.6571  0.9618 -0.0168
17569TIP3    H274199   2.249   0.990   4.980  2.1965  1.6111  0.4341
17570TIP3   OH274200   5.944   5.777   0.278  0.4557 -0.5585  0.7964
17570TIP3    H174201   5.935   5.788   0.373  4.0792 -3.0713  1.6568
17570TIP3    H274202   5.993   5.854   0.250 -1.9612  0.9941  0.5293
17571TIP3   OH274203   3.235   2.417  13.445  0.1451  0.1595  0.2311
17571TIP3    H174204   3.155   2.389  13.490  0.5332 -0.1846  0.7279
17571TIP3    H274205   3.235   2.369  13.362  0.3857 -0.6978  0.7144
17572TIP3   OH274206   1.905   3.889   5.453 -0.1307 -0.6685  0.0832
17572TIP3    H174207   1.962   3.965   5.444  0.2250 -0.7923  1.0895
17572TIP3    H274208   1.935   3.828   5.385 -0.8390  0.3226 -1.1515
17573TIP3   OH274209   1.365   2.958  15.503  0.1126 -0.0347  0.1360
17573TIP3    H174210   1.451   2.916  15.502 -0.0382 -0.3574  0.3192
17573TIP3    H274211   1.382   3.050  15.484  0.2342 -0.5662 -2.6880
17574TIP3   OH274212   3.260   6.689   3.042 -0.4381  0.8714  0.1999
17574TIP3    H174213   3.195   6.755   3.066 -0.8389  1.1942 -1.6080
17574TIP3    H274214   3.211   6.607   3.036 -0.5329  0.9732 -0.4343
17575TIP3   OH274215   3.719   0.474   3.978 -0.4226 -0.4115  0.2952
17575TIP3    H174216   3.762   0.475   3.893  0.5104 -1.8266  0.7040
17575TIP3    H274217   3.699   0.381   3.993  1.2090 -0.4892  2.4360
17576TIP3   OH274218   4.792   2.953   1.864 -0.3450  0.2540  0.7200
17576TIP3    H174219   4.702   2.975   1.841 -0.9956  0.1554  3.0196
17576TIP3    H274220   4.794   2.955   1.959  2.2915  1.0595  0.7296
17577TIP3   OH274221   1.470   3.678  16.798 -0.3305 -0.3084  0.0346
17577TIP3    H174222   1.535   3.713  16.859 -0.9276 -0.8137  0.9896
17577TIP3    H274223   1.417   3.619  16.851 -0.8527 -0.7907 -0.9946
17578TIP3   OH274224   4.380   2.527  11.929  0.1611  0.4501  0.4406
17578TIP3    H174225   4.366   2.590  12.000 -2.3857  1.6282 -1.0032
17578TIP3    H274226   4.300   2.530  11.877  1.1558 -1.8252 -1.4021
17579TIP3   OH274227   0.233   3.660   0.171  0.2787  0.0234  0.3663
17579TIP3    H174228   0.242   3.666   0.076  1.5831  0.0779  0.4663
17579TIP3    H274229   0.148   3.699   0.190  1.4262  3.2739 -0.4946
17580TIP3   OH274230   0.602   6.223   4.017 -0.4610  0.2768  0.0442
17580TIP3    H174231   0.538   6.153   4.002  0.6722 -0.4270 -1.7588
17580TIP3    H274232   0.684   6.178   4.034 -0.4375  1.1662  2.8825
17581TIP3   OH274233   4.374   0.430  16.510  0.3363  0.2593  0.4405
17581TIP3    H174234   4.309   0.436  16.580 -1.4955  0.5580 -1.1911
17581TIP3    H274235   4.370   0.339  16.480 -0.0001  0.4882 -0.2407
17582TIP3   OH274236   5.800   2.069   0.391 -0.2055  0.1414 -0.0646
17582TIP3    H174237   5.756   2.150   0.418  1.1267  1.0000 -0.3697
17582TIP3    H274238   5.870   2.057   0.455 -1.3475 -1.6713  0.9170
17583TIP3   OH274239   5.229   5.286  11.855  0.3262 -0.2916 -0.1026
17583TIP3    H174240   5.180   5.350  11.804  0.9657 -0.8777 -1.5156
17583TIP3    H274241   5.163   5.239  11.906 -0.2625  0.7497  0.1035
17584TIP3   OH274242   5.448   0.452   0.348  0.4570 -0.3262 -0.0010
17584TIP3    H174243   5.379   0.512   0.376  0.0331 -1.0425  0.5388
17584TIP3    H274244   5.406   0.365   0.351  0.6407 -0.5281 -2.0745
17585TIP3   OH274245   6.692   3.206  13.640 -0.0782  0.4348 -0.7430
17585TIP3    H174246   6.748   3.201  13.717 -0.1675  1.2872 -0.6084
17585TIP3    H274247   6.731   3.145  13.578 -0.7324 -1.2249  0.4120
17586TIP3   OH274248   1.901   3.778  12.683  0.4255 -0.3292 -0.3389
17586TIP3    H174249   1.955   3.791  12.605  3.2879 -0.6102  1.4508
17586TIP3    H274250   1.933   3.696  12.721 -0.5579  0.0196  1.3617
17587TIP3   OH274251   0.848   0.020  15.862 -0.2873 -0.2662 -0.0673
17587TIP3    H174252   0.921  -0.017  15.911 -0.2478 -0.1550 -0.0418
17587TIP3    H274253   0.776   0.024  15.924  0.5310  2.5014  0.8256
17588TIP3   OH274254   2.823   3.310  16.863 -0.2872 -0.1296  0.3710
17588TIP3    H174255   2.776   3.352  16.790  0.0871  0.5669  0.5244
17588TIP3    H274256   2.834   3.380  16.927  0.6455 -0.3818  0.4891
17589TIP3   OH274257   5.504   1.872   4.715 -0.0724 -0.6057 -0.2644
17589TIP3    H174258   5.429   1.874   4.655 -0.3689  0.4909  0.1067
17589TIP3    H274259   5.544   1.786   4.701 -0.5296 -0.6377 -1.5330
17590TIP3   OH274260   2.701   3.733   4.848  0.0829 -0.1004  0.3087
17590TIP3    H174261   2.649   3.812   4.862 -2.7605 -2.0491  1.4881
17590TIP3    H274262   2.658   3.688   4.776  1.9822 -0.4276 -0.7035
17591TIP3   OH274263   5.402   4.739  14.789  0.1524 -0.2818 -0.3301
17591TIP3    H174264   5.397   4.823  14.835  3.1100 -1.0626  1.6803
17591TIP3    H274265   5.488   4.739  14.747 -0.6511 -1.4928 -2.1161
17592TIP3   OH274266   0.343   3.312   2.677  0.1971 -0.0988 -0.0681
17592TIP3    H174267   0.370   3.245   2.615 -0.2702 -1.0011  0.6779
17592TIP3    H274268   0.382   3.285   2.760 -0.4727  0.2383  0.3672
17593TIP3   OH274269   4.375   0.067   3.796  0.9147  0.3017 -0.2231
17593TIP3    H174270   4.446   0.104   3.742  0.1339  1.2225 -0.6506
17593TIP3    H274271   4.390   0.104   3.883  1.4576 -0.2066 -0.0908
17594TIP3   OH274272   1.039   5.719   3.136  0.6491 -0.5154  0.1691
17594TIP3    H174273   1.037   5.765   3.052 -2.0048 -2.0705 -0.7257
17594TIP3    H274274   1.067   5.630   3.115 -0.2510 -0.9861  0.8629
17595TIP3   OH274275   1.672   2.058   0.555  0.4005  0.1101  0.3711
17595TIP3    H174276   1.695   2.004   0.630  1.2190 -0.5610 -0.3366
17595TIP3    H274277   1.599   2.112   0.585 -0.2215 -1.1465  1.2035
17596TIP3   OH274278   2.435   6.559  13.273 -0.0953  0.4024  0.5473
17596TIP3    H174279   2.522   6.522  13.292 -1.5536 -2.0389  3.3967
17596TIP3    H274280   2.397   6.576  13.359 -2.6489  0.9214 -0.5898
17597TIP3   OH274281   5.302   4.537   4.960  0.1020  0.0864 -0.1776
17597TIP3    H174282   5.315   4.461   4.902 -0.5477 -0.6727  0.6531
17597TIP3    H274283   5.318   4.503   5.048 -0.2244  0.9133  0.2117
17598TIP3   OH274284   4.299   5.786   4.797  0.5072  0.0660  0.5842
17598TIP3    H174285   4.352   5.759   4.722 -0.9930  0.9643 -0.8571
17598TIP3    H274286   4.335   5.871   4.823  0.2655  0.3275  0.0809
17599TIP3   OH274287   4.815   6.630   3.936  0.4274  0.1072  0.2270
17599TIP3    H174288   4.774   6.545   3.918  0.0226  0.2308  0.5574
17599TIP3    H274289   4.831   6.668   3.849 -1.3673  0.6304  0.0819
17600TIP3   OH274290   1.367   6.059   4.635  0.7974  0.6468  0.3792
17600TIP3    H174291   1.398   5.993   4.573  0.4129  0.7959  0.0199
17600TIP3    H274292   1.320   6.122   4.580  0.7598  0.9704  0.7798
17601TIP3   OH274293   3.064   3.596  17.183 -0.0047  0.2462 -0.1614
17601TIP3    H174294   3.121   3.607  17.259  0.6740 -0.5811 -0.5323
17601TIP3    H274295   3.119   3.553  17.118 -0.5697  0.9768 -1.1390
17602TIP3   OH274296   4.281   1.361  15.106  0.0257  0.0344 -0.7100
17602TIP3    H174297   4.312   1.420  15.037 -0.2106 -0.5207 -1.2933
17602TIP3    H274298   4.207   1.315  15.067  1.3353 -2.0066 -0.9038
17603TIP3   OH274299   0.787   4.465  11.494 -0.1470 -0.2277 -0.0327
17603TIP3    H174300   0.848   4.465  11.421 -0.9453 -0.3078 -0.7118
17603TIP3    H274301   0.842   4.452  11.571  0.8303  0.9089 -0.5012
17604TIP3   OH274302   2.093   5.993   5.471  0.0294 -0.1685 -0.2314
17604TIP3    H174303   1.999   6.007   5.478 -0.0116 -0.1935 -0.7206
17604TIP3    H274304   2.102   5.923   5.407  0.4019  0.1354 -0.5134
17605TIP3   OH274305   3.309   1.960  16.012 -0.0006  0.7682 -0.1494
17605TIP3    H174306   3.328   1.899  15.941 -0.7004  0.1289  0.1950
17605TIP3    H274307   3.221   1.994  15.992 -0.5642 -0.0472  0.8113
17606TIP3   OH274308   0.923   4.031   5.853  0.1281  0.4922  0.1190
17606TIP3    H174309   1.006   4.001   5.890 -0.7502 -2.1681  0.1148
17606TIP3    H274310   0.895   4.102   5.911  1.5700  0.2989  1.1004
17607TIP3   OH274311   0.364   5.223   0.456  0.0777  0.0948  0.2244
17607TIP3    H174312   0.443   5.221   0.510 -0.4183 -2.1240  0.9882
17607TIP3    H274313   0.316   5.300   0.484  0.8747  0.1697  1.4143
17608TIP3   OH274314   0.386   1.192  12.815 -0.2408  0.1984  0.4282
17608TIP3    H174315   0.375   1.143  12.733  0.7870 -1.2778  1.1304
17608TIP3    H274316   0.306   1.172  12.865 -1.0909  1.4785 -0.3540
17609TIP3   OH274317   4.538   4.293   1.367 -0.3837 -0.7267 -0.4871
17609TIP3    H174318   4.465   4.262   1.421 -0.0684  1.3784  1.3013
17609TIP3    H274319   4.499   4.306   1.280 -1.1153 -3.3985 -0.6458
17610TIP3   OH274320   1.221   2.503   4.347 -0.2931  0.1196 -0.0947
17610TIP3    H174321   1.192   2.489   4.256  2.1187 -1.6375 -0.6918
17610TIP3    H274322   1.269   2.586   4.344  0.1891 -0.1686 -0.5574
17611TIP3   OH274323   6.514   2.212  11.943 -0.3858 -0.4958  0.4464
17611TIP3    H174324   6.501   2.117  11.937  0.4148 -0.7473  2.0839
17611TIP3    H274325   6.448   2.249  11.884 -1.7315 -2.0253  0.9110
17612TIP3   OH274326   1.006   0.711  16.275 -0.2494  0.1495  0.1462
17612TIP3    H174327   0.920   0.670  16.276 -0.6945  1.0195 -0.7040
17612TIP3    H274328   0.995   0.790  16.223  0.7420  0.9855  1.1300
17613TIP3   OH274329   3.194   1.650   0.647  0.1278  0.4109  0.0389
17613TIP3    H174330   3.194   1.746   0.651 -2.2147  0.4620  3.3789
17613TIP3    H274331   3.118   1.628   0.593 -1.8525  0.6543  2.5000
17614TIP3   OH274332   0.925   2.492   0.905  0.8996 -0.2319 -0.4443
17614TIP3    H174333   1.001   2.542   0.874  1.2175 -0.7050 -0.4439
17614TIP3    H274334   0.869   2.484   0.828 -1.1023  3.4804  0.3798
17615TIP3   OH274335   1.335   2.841   2.869  1.0621 -0.1291  0.1747
17615TIP3    H174336   1.349   2.936   2.862 -0.6404  0.0985 -0.6996
17615TIP3    H274337   1.423   2.804   2.877  1.8959  1.3822 -1.3915
17616TIP3   OH274338   6.492   3.346   4.260 -0.0356  0.4402  0.3243
17616TIP3    H174339   6.449   3.345   4.175 -0.9268  0.8596  0.7514
17616TIP3    H274340   6.556   3.418   4.253 -0.3660  0.7177  0.1358
17617TIP3   OH274341   2.805   2.643   0.625  0.3563  0.0173 -0.2256
17617TIP3    H174342   2.807   2.723   0.572  2.4490 -0.5244 -1.0329
17617TIP3    H274343   2.760   2.670   0.705  0.5036  1.8644 -0.7039
17618TIP3   OH274344   6.145   3.261  14.375  0.3457  0.0762 -0.2517
17618TIP3    H174345   6.074   3.325  14.381 -0.3077 -0.8029  2.8940
17618TIP3    H274346   6.146   3.236  14.283 -4.0081 -0.4826 -0.3372
17619TIP3   OH274347   0.042   2.497   4.433  0.8105 -0.1869 -0.6449
17619TIP3    H174348   0.023   2.435   4.362  2.2128 -1.1115 -0.2635
17619TIP3    H274349   0.073   2.575   4.388 -0.3283  0.0186 -1.1100
17620TIP3   OH274350   3.675   1.375   4.471  0.2802  0.3602  0.9608
17620TIP3    H174351   3.673   1.318   4.394  0.6495  1.2206  0.2968
17620TIP3    H274352   3.648   1.318   4.543  1.1769 -0.7989  0.4160
17621TIP3   OH274353   2.187   1.891  15.405  0.3900  0.3893 -0.4913
17621TIP3    H174354   2.279   1.896  15.380  0.0870  1.5476 -1.4420
17621TIP3    H274355   2.172   1.970  15.457 -0.0529  0.1626 -0.2676
17622TIP3   OH274356   5.285   2.287   0.853 -0.4536  0.8811 -0.3541
17622TIP3    H174357   5.297   2.207   0.904 -2.6643 -0.2032 -1.4069
17622TIP3    H274358   5.191   2.304   0.858 -0.4176  1.8984 -2.3697
17623TIP3   OH274359   3.675   3.522  11.992 -0.2232  0.4948  0.8937
17623TIP3    H174360   3.641   3.435  12.013  1.1572 -0.3053  0.0349
17623TIP3    H274361   3.607   3.583  12.021 -0.5036 -0.7589  3.0480
17624TIP3   OH274362   3.715   1.316   5.510 -0.7521  0.3583  0.5102
17624TIP3    H174363   3.764   1.235   5.499 -0.3183  0.4751  1.4481
17624TIP3    H274364   3.649   1.314   5.441 -1.3116 -1.2057  1.0491
17625TIP3   OH274365   0.368   4.469  12.511 -0.2059  0.2260  0.4616
17625TIP3    H174366   0.435   4.419  12.558 -0.2227  1.3135  1.6886
17625TIP3    H274367   0.414   4.546  12.478 -0.3803 -0.1224 -0.6305
17626TIP3   OH274368   4.021   0.155  16.450  0.2110  0.1488 -0.2510
17626TIP3    H174369   4.008   0.060  16.447  0.7730  0.0946 -2.7209
17626TIP3    H274370   3.935   0.190  16.472 -0.0313 -0.9164  0.5652
17627TIP3   OH274371   1.956   0.312  12.785 -0.5753  0.0701  0.5514
17627TIP3    H174372   2.018   0.343  12.851  2.5486  1.0134 -2.5169
17627TIP3    H274373   1.978   0.219  12.773 -0.1134  0.2622 -0.1423
17628TIP3   OH274374   5.378   5.617   4.878 -0.3614  0.0454  0.1414
17628TIP3    H174375   5.423   5.629   4.961  0.3886 -0.8845 -0.1197
17628TIP3    H274376   5.351   5.706   4.852  2.7675  0.9398 -0.5051
17629TIP3   OH274377   5.245   1.477  12.720  0.3168  0.0280  0.7715
17629TIP3    H174378   5.236   1.538  12.647  3.1076 -0.5371 -0.1597
17629TIP3    H274379   5.236   1.390  12.679  2.1857 -0.3032  0.9887
17630TIP3   OH274380   0.933   0.061  15.614  0.5558  1.2618 -0.0937
17630TIP3    H174381   0.992   0.135  15.627  1.8464  0.0022  1.6448
17630TIP3    H274382   0.891   0.048  15.699  0.3091  0.0319 -0.3815
17631TIP3   OH274383   5.866   6.462   0.220 -0.1472 -0.3179 -0.8770
17631TIP3    H174384   5.859   6.547   0.264  0.1990 -0.8758  0.2832
17631TIP3    H274385   5.777   6.425   0.225  0.2440 -1.1228  0.9393
17632TIP3   OH274386   3.315   1.733  15.437 -0.1322 -0.1763  0.8424
17632TIP3    H174387   3.321   1.812  15.492  0.8969  0.0650  0.4116
17632TIP3    H274388   3.335   1.764  15.349  0.2288 -0.9048  0.6572
17633TIP3   OH274389   1.445   4.618   1.567  0.2103  0.0129 -0.1599
17633TIP3    H174390   1.414   4.706   1.546  0.4036  0.6306  1.9232
17633TIP3    H274391   1.540   4.623   1.555  0.2264  0.1263 -0.0013
17634TIP3   OH274392   2.553   3.187   1.655 -0.1556  0.0566 -0.0667
17634TIP3    H174393   2.633   3.196   1.602  1.0161  0.3595  1.6396
17634TIP3    H274394   2.515   3.104   1.628  2.6533 -1.8680  1.4168
17635TIP3   OH274395   2.991   2.393  16.252  0.4255 -0.3280  0.1514
17635TIP3    H174396   2.943   2.393  16.335 -1.0912 -1.1157 -0.6883
17635TIP3    H274397   3.021   2.483  16.241 -1.5030  0.3714  0.3537
17636TIP3   OH274398   4.610   0.364   2.625 -0.2818 -0.1994 -0.1469
17636TIP3    H174399   4.537   0.310   2.656 -0.7847  0.4215 -0.2082
17636TIP3    H274400   4.613   0.437   2.688  0.5644 -0.4412  0.0999
17637TIP3   OH274401   2.725   3.229  12.840  0.5037  0.1505  0.1061
17637TIP3    H174402   2.790   3.160  12.826  0.2022 -0.0791 -0.1816
17637TIP3    H274403   2.643   3.192  12.807  0.8532  1.7288 -2.9266
17638TIP3   OH274404   2.073   5.058  15.760  0.5180  0.2053  0.0174
17638TIP3    H174405   2.107   5.080  15.846 -0.5794  2.0419  0.0397
17638TIP3    H274406   1.978   5.048  15.773  0.6773 -3.0321 -0.3627
17639TIP3   OH274407   2.985   3.923   3.311  0.3060 -0.1871 -0.4760
17639TIP3    H174408   2.987   4.013   3.342 -1.7891  0.2063 -1.2736
17639TIP3    H274409   3.069   3.886   3.336  0.6682  1.5776  1.0941
17640TIP3   OH274410   3.528   5.543   3.387 -0.4434  0.5604  0.1550
17640TIP3    H174411   3.465   5.472   3.380 -0.2888  0.2802  1.2865
17640TIP3    H274412   3.605   5.512   3.340 -0.2675 -0.1688  0.9058
17641TIP3   OH274413   0.976   4.331   2.440 -0.2553  0.6427 -0.0908
17641TIP3    H174414   1.013   4.291   2.361  0.4056 -0.8737  0.9422
17641TIP3    H274415   1.000   4.423   2.433  1.7264  0.1414 -0.6153
17642TIP3   OH274416   2.566   4.319  15.994 -0.2418 -0.2956  0.1859
17642TIP3    H174417   2.494   4.312  15.932  0.1084 -2.0523 -0.0718
17642TIP3    H274418   2.602   4.231  15.999  0.5767  0.0911  1.8938
17643TIP3   OH274419   5.790   4.794   2.932 -0.2334 -0.0530  0.3488
17643TIP3    H174420   5.881   4.766   2.919 -0.2790 -0.3644  0.6854
17643TIP3    H274421   5.763   4.828   2.846 -0.3491 -1.5344 -0.2312
17644TIP3   OH274422   4.477   2.843  16.648 -0.7658 -0.7096 -0.1530
17644TIP3    H174423   4.464   2.819  16.556 -0.4563 -2.0244  0.1189
17644TIP3    H274424   4.562   2.804  16.670  0.5742  2.0656 -0.0898
17645TIP3   OH274425   0.342   5.425  14.855  0.0900 -0.0803 -0.1833
17645TIP3    H174426   0.400   5.468  14.919 -0.1413  0.9394 -0.6422
17645TIP3    H274427   0.401   5.380  14.796  0.4245  0.7333 -0.4879
17646TIP3   OH274428   2.597   1.267  16.216  0.5878 -0.2076 -0.2074
17646TIP3    H174429   2.642   1.250  16.299  0.2497 -1.2958 -0.2256
17646TIP3    H274430   2.658   1.322  16.166  0.5759  0.8805  0.9407
17647TIP3   OH274431   1.558   3.764   0.523 -0.6958 -0.2499  0.0093
17647TIP3    H174432   1.629   3.741   0.583  0.3214 -0.5807 -1.2767
17647TIP3    H274433   1.503   3.824   0.573 -0.5460 -1.4222  1.6674
17648TIP3   OH274434   1.338   0.745  12.225  0.1471 -0.1339 -0.1534
17648TIP3    H174435   1.262   0.803  12.213  0.7933  0.5253 -1.1525
17648TIP3    H274436   1.333   0.684  12.152  0.3711 -0.3227 -0.0107
17649TIP3   OH274437   1.978   2.203   2.643  0.3272  0.2292 -0.3428
17649TIP3    H174438   1.975   2.263   2.569  2.2219  0.0702 -0.5815
17649TIP3    H274439   2.038   2.134   2.616  1.6457  0.5266  1.5773
17650TIP3   OH274440   4.473   4.815   0.418 -0.1604  0.0935 -0.3143
17650TIP3    H174441   4.471   4.874   0.343  0.5835 -1.1993 -1.3893
17650TIP3    H274442   4.490   4.872   0.493 -2.2180  1.5889 -0.9091
17651TIP3   OH274443   6.181   0.912   0.472 -0.0625 -0.1726 -0.0580
17651TIP3    H174444   6.213   1.002   0.481  0.7558 -0.5703  1.4090
17651TIP3    H274445   6.139   0.893   0.556  1.1349 -1.6450  0.2566
17652TIP3   OH274446   1.223   0.507  13.924 -0.2074  0.1007 -0.2838
17652TIP3    H174447   1.243   0.523  14.016 -1.1770  0.2659 -0.0819
17652TIP3    H274448   1.307   0.488  13.883  0.0024 -2.7147  1.1758
17653TIP3   OH274449   3.743   6.597   0.860 -0.2824  0.0285 -0.1327
17653TIP3    H174450   3.760   6.659   0.931 -0.0098  0.3648 -0.4881
17653TIP3    H274451   3.815   6.534   0.867 -0.7296 -0.4372  0.4228
17654TIP3   OH274452   5.907   0.782  16.202 -0.2668  0.3171  0.1765
17654TIP3    H174453   5.969   0.838  16.157 -0.6292  0.6281  0.0573
17654TIP3    H274454   5.824   0.798  16.157 -0.1800 -1.0628 -0.5241
17655TIP3   OH274455   3.097   4.720  14.865 -0.0457  0.1528  0.0084
17655TIP3    H174456   3.019   4.774  14.853 -0.8241 -0.7701  0.7337
17655TIP3    H274457   3.143   4.761  14.939  0.4947  1.0418 -0.7877
17656TIP3   OH274458   1.229   6.049   0.975 -0.0595  0.0029 -0.0042
17656TIP3    H174459   1.215   5.962   1.012 -1.1353 -0.0902 -0.5867
17656TIP3    H274460   1.236   6.107   1.052 -0.2147 -0.4696  0.3720
17657TIP3   OH274461   2.062   0.262   5.643  0.3217  0.6295 -0.3709
17657TIP3    H174462   2.082   0.284   5.552 -0.1905  0.5184 -0.5144
17657TIP3    H274463   2.041   0.346   5.684  0.7718  0.7076 -0.2972
17658TIP3   OH274464   5.659   3.009   3.653  0.3086 -0.5881  0.0582
17658TIP3    H174465   5.741   3.042   3.617  1.4878 -1.3292  1.8974
17658TIP3    H274466   5.610   2.978   3.577  1.5999  0.1238 -1.1153
17659TIP3   OH274467   5.009   1.810   0.270 -0.3857  0.2042  0.1725
17659TIP3    H174468   4.955   1.757   0.328  0.4108 -0.0665  0.6811
17659TIP3    H274469   5.098   1.780   0.286 -0.1339  0.2142 -1.1070
17660TIP3   OH274470   5.620   4.466  14.038  0.1373 -1.2695  0.3812
17660TIP3    H174471   5.539   4.517  14.047  1.3335  1.3445 -2.0200
17660TIP3    H274472   5.657   4.495  13.955  3.1131 -3.0415  0.9524
17661TIP3   OH274473   2.658   5.487   0.045 -0.1894 -0.6116 -0.5670
17661TIP3    H174474   2.693   5.414  -0.005 -0.0603  0.6071 -2.3427
17661TIP3    H274475   2.735   5.534   0.076 -0.2627 -0.4820 -0.5788
17662TIP3   OH274476   0.664   4.843  16.128 -0.1843  0.0404 -1.5104
17662TIP3    H174477   0.594   4.824  16.190  1.0478 -1.1273 -0.3811
17662TIP3    H274478   0.697   4.929  16.154  1.2157 -1.0042  0.4431
17663TIP3   OH274479   3.913   4.363   4.044 -0.2506  0.8568 -0.1677
17663TIP3    H174480   3.968   4.329   3.973 -0.0930  1.9645 -0.6078
17663TIP3    H274481   3.833   4.392   4.000  0.0108  1.9240  0.0348
17664TIP3   OH274482   6.087   2.712  16.134 -0.2105  0.4184 -0.3063
17664TIP3    H174483   6.134   2.721  16.217 -0.0971 -1.2208 -0.1482
17664TIP3    H274484   6.054   2.622  16.136 -2.5438  1.2174 -0.8599
17665TIP3   OH274485   2.916   0.123  11.037  0.7710  0.4787  0.0702
17665TIP3    H174486   2.893   0.216  11.036 -1.5474 -0.0271 -0.7569
17665TIP3    H274487   2.933   0.102  10.945 -2.6705 -0.6806 -0.4536
17666TIP3   OH274488   6.277   3.794   5.838 -0.0538  0.0797  0.1131
17666TIP3    H174489   6.252   3.707   5.867  0.6160 -0.5441 -1.0655
17666TIP3    H274490   6.277   3.788   5.742  0.8416  1.1138  0.0212
17667TIP3   OH274491   0.755   4.517   3.225 -0.1330  0.1617  0.1154
17667TIP3    H174492   0.758   4.524   3.320  1.3409  1.3226  0.0237
17667TIP3    H274493   0.814   4.444   3.205 -0.9294 -0.4885  0.1155
17668TIP3   OH274494   6.725   6.114   3.014 -0.4173  0.6893  0.0158
17668TIP3    H174495   6.708   6.193   3.067 -2.6316  0.0456  0.3482
17668TIP3    H274496   6.641   6.093   2.975  0.1429 -1.5100 -0.1011
17669TIP3   OH274497   3.801   3.461  13.851 -0.1940  0.0606  0.1296
17669TIP3    H174498   3.883   3.508  13.838 -1.9378  2.8071 -2.3388
17669TIP3    H274499   3.818   3.374  13.815  2.2711 -0.3479  2.0138
17670TIP3   OH274500   2.069   2.758   2.982 -0.1751 -0.3367 -0.4331
17670TIP3    H174501   2.163   2.765   2.965  0.2770  1.2153  2.2389
17670TIP3    H274502   2.033   2.842   2.955 -0.1661  0.3975  1.6479
17671TIP3   OH274503   0.770   1.413   6.356 -0.1543  0.2338  0.0945
17671TIP3    H174504   0.703   1.466   6.399 -1.5808 -0.4393 -1.1909
17671TIP3    H274505   0.725   1.332   6.334  0.8216  0.1325 -1.6549
17672TIP3   OH274506   2.949   1.456   0.020 -0.4249  0.5238  0.0970
17672TIP3    H174507   2.933   1.365  -0.007 -0.9744  0.4595  0.6225
17672TIP3    H274508   3.042   1.458   0.042 -0.1509  0.3726 -0.9844
17673TIP3   OH274509   5.465   5.311  12.230 -0.6484  0.3229  0.0496
17673TIP3    H174510   5.532   5.246  12.253  1.1431  2.3650  0.9712
17673TIP3    H274511   5.474   5.323  12.136  1.1563  1.3610  0.2941
17674TIP3   OH274512   3.523   2.973  14.526 -0.1847 -0.2245  0.0752
17674TIP3    H174513   3.502   3.065  14.543  1.0941  0.5740 -2.1518
17674TIP3    H274514   3.479   2.925  14.596 -3.2064  1.8261 -0.2042
17675TIP3   OH274515   0.938   0.559   3.754 -0.2233 -0.0888 -0.6338
17675TIP3    H174516   0.876   0.570   3.826  1.4060 -0.2261  0.8583
17675TIP3    H274517   0.947   0.464   3.744  1.2789 -0.1367  0.6351
17676TIP3   OH274518   6.066   1.316  13.390  0.0230 -0.2052  0.3676
17676TIP3    H174519   6.146   1.336  13.440  0.1496  0.0861  0.0504
17676TIP3    H274520   6.066   1.380  13.319 -1.8070  1.4769  1.7628
17677TIP3   OH274521   1.501   4.654   2.701 -0.4383  0.1918  0.5601
17677TIP3    H174522   1.510   4.738   2.745  0.7073 -0.2468  1.2038
17677TIP3    H274523   1.591   4.630   2.677 -0.7202 -0.9521  0.5966
17678TIP3   OH274524   1.023   6.653   0.328  0.3896  0.2271  0.2889
17678TIP3    H174525   1.036   6.748   0.326 -0.9652  0.4701  1.1359
17678TIP3    H274526   1.049   6.627   0.416  0.9893 -0.2372 -0.0211
17679TIP3   OH274527   2.168   0.454  14.047  0.0872 -0.2912  0.2496
17679TIP3    H174528   2.199   0.375  14.091  0.2536  0.5794  1.7516
17679TIP3    H274529   2.210   0.451  13.961 -0.4146 -2.1412  0.0205
17680TIP3   OH274530   2.490   6.189   5.717 -0.3275  0.1784 -0.2766
17680TIP3    H174531   2.438   6.186   5.797  0.2407 -1.5470  0.0733
17680TIP3    H274532   2.430   6.163   5.648 -0.1747 -0.9750  0.0029
17681TIP3   OH274533   0.724   0.074  13.042  0.1707  0.5477  0.1390
17681TIP3    H174534   0.706   0.136  12.971 -0.3644  1.6897  1.2351
17681TIP3    H274535   0.795   0.114  13.091 -0.6565  0.6746  1.2768
17682TIP3   OH274536   4.250   0.976   0.666 -0.4362  0.0587 -0.3757
17682TIP3    H174537   4.333   0.934   0.689 -1.1106 -1.5189 -0.7121
17682TIP3    H274538   4.219   0.927   0.590 -1.0105  1.5339 -1.1440
17683TIP3   OH274539   4.477   0.868  12.651 -0.1438 -0.7198  0.1019
17683TIP3    H174540   4.555   0.819  12.679  1.0939 -0.6343 -2.8551
17683TIP3    H274541   4.439   0.813  12.583 -2.3346 -0.3924  0.9955
17684TIP3   OH274542   5.298   5.090  14.752 -0.4251 -0.0664 -0.4867
17684TIP3    H174543   5.228   5.131  14.701  0.5262  0.9901 -1.0065
17684TIP3    H274544   5.378   5.111  14.703  0.3727 -0.2655  0.6845
17685TIP3   OH274545   4.240   6.772  15.886  1.3120  0.0240  0.0698
17685TIP3    H174546   4.193   6.850  15.857 -0.3991 -1.2706 -0.8039
17685TIP3    H274547   4.276   6.796  15.972 -0.0778  1.4258  0.3018
17686TIP3   OH274548   3.733   0.103   0.083 -0.2233 -0.3624  0.1518
17686TIP3    H174549   3.727   0.129   0.175  0.2687 -0.2599  0.1555
17686TIP3    H274550   3.736   0.007   0.086  3.0847 -0.3654  0.4826
17687TIP3   OH274551   2.488   6.491   2.498 -0.3948 -0.7116  0.2808
17687TIP3    H174552   2.514   6.438   2.574  2.7086  1.6797  1.1021
17687TIP3    H274553   2.571   6.523   2.462 -1.9712  1.1663 -1.9662
17688TIP3   OH274554   5.289   3.808  13.981 -0.5776  0.3329 -0.2068
17688TIP3    H174555   5.354   3.821  14.051  0.1884  0.7790 -0.9802
17688TIP3    H274556   5.327   3.851  13.905 -0.9513 -0.9632 -1.1645
17689TIP3   OH274557   6.339   1.333  15.101 -0.1926  0.3365 -0.1783
17689TIP3    H174558   6.276   1.265  15.079  0.3795 -0.2734  0.0228
17689TIP3    H274559   6.293   1.388  15.165 -0.4258 -0.2751  0.1950
17690TIP3   OH274560   2.469   6.364   2.876  0.1559  0.1900 -0.0895
17690TIP3    H174561   2.516   6.284   2.901 -0.1293 -0.2046 -0.7893
17690TIP3    H274562   2.394   6.333   2.825 -0.5337  0.8533  0.5003
17691TIP3   OH274563   0.474   2.376   6.507 -0.1196 -0.0205 -0.3853
17691TIP3    H174564   0.497   2.283   6.509  3.5600  0.7417  1.3526
17691TIP3    H274565   0.498   2.405   6.419  0.6414 -0.3857 -0.3113
17692TIP3   OH274566   0.901   3.504  10.349 -0.0866  0.4010 -0.1111
17692TIP3    H174567   0.983   3.496  10.302 -0.1381  1.9014 -0.5038
17692TIP3    H274568   0.833   3.499  10.281 -0.2943 -0.0532  0.1217
17693TIP3   OH274569   2.479   4.167   0.528 -0.2626  0.1761  0.0434
17693TIP3    H174570   2.404   4.120   0.490  1.3951 -1.6427 -1.2217
17693TIP3    H274571   2.464   4.163   0.622 -2.1679  0.6264 -0.2024
17694TIP3   OH274572   4.188   4.052  11.200  0.2102 -0.0417 -0.4567
17694TIP3    H174573   4.264   4.091  11.242  0.0660  0.1352 -0.3588
17694TIP3    H274574   4.139   4.127  11.164 -1.4059  0.1470  1.9186
17695TIP3   OH274575   4.958   5.333  10.822  0.1705 -0.2289 -0.2249
17695TIP3    H174576   4.926   5.421  10.805  1.5865  0.3126 -0.2518
17695TIP3    H274577   5.029   5.345  10.885  0.8801 -1.2603 -0.7907
17696TIP3   OH274578   5.901   6.024   0.805  0.5371  0.2839  0.0926
17696TIP3    H174579   5.917   6.110   0.767  2.4842  0.0412  0.2592
17696TIP3    H274580   5.809   6.006   0.786  0.0055  2.5048  0.3075
17697TIP3   OH274581   4.650   1.001   1.847  0.3307 -0.2297  0.5023
17697TIP3    H174582   4.571   0.966   1.805 -0.6411  1.4963  0.7924
17697TIP3    H274583   4.656   0.953   1.930  0.6770 -1.6761 -0.3163
17698TIP3   OH274584   0.204   3.702  15.810 -0.2244  0.6221 -0.1786
17698TIP3    H174585   0.262   3.632  15.838 -1.2197  0.7490  2.5471
17698TIP3    H274586   0.136   3.659  15.758 -0.7862 -0.4994  1.4038
17699TIP3   OH274587   3.511   2.356   1.495 -0.5713 -0.2838 -0.1799
17699TIP3    H174588   3.529   2.422   1.428 -0.0806  0.9249  1.0817
17699TIP3    H274589   3.481   2.280   1.447 -0.7476  0.7241 -1.7298
17700TIP3   OH274590   5.079   1.087   0.875 -0.0141  0.3647 -0.3676
17700TIP3    H174591   5.052   1.048   0.792  0.3750 -0.1566 -0.2543
17700TIP3    H274592   5.040   1.030   0.942 -2.0984  1.9429 -0.1320
17701TIP3   OH274593   0.877   1.808  13.335 -0.4269  0.1904 -0.2538
17701TIP3    H174594   0.859   1.840  13.247  2.4313 -2.3385 -1.9400
17701TIP3    H274595   0.840   1.720  13.336 -0.1655  0.0784  0.9976
17702TIP3   OH274596   5.340   6.242   0.305  0.4902 -0.0253  0.1479
17702TIP3    H174597   5.372   6.152   0.296  0.5207  0.0581 -0.7244
17702TIP3    H274598   5.246   6.235   0.286  0.1741 -0.0993  1.6079
17703TIP3   OH274599   1.895   6.722  13.749 -0.2405 -0.0475 -0.2606
17703TIP3    H174600   1.850   6.646  13.712 -0.9944  0.8395 -1.2775
17703TIP3    H274601   1.829   6.791  13.748 -0.2051  0.1418  2.5412
17704TIP3   OH274602   2.321   5.834   6.379  0.2011 -0.6233  0.0025
17704TIP3    H174603   2.300   5.742   6.365  0.8138 -1.1732  2.2319
17704TIP3    H274604   2.409   5.844   6.345  0.8415 -1.3606  1.3653
17705TIP3   OH274605   0.029   3.326  12.546  0.5339 -0.3929 -0.1990
17705TIP3    H174606   0.123   3.307  12.541  0.3758 -0.8626 -1.6456
17705TIP3    H274607   0.024   3.410  12.593  1.5653 -1.0889  1.2478
17706TIP3   OH274608   0.766   1.933  11.992  0.7197 -0.0918 -0.3755
17706TIP3    H174609   0.775   2.028  12.006  1.4087  0.0711 -1.8206
17706TIP3    H274610   0.673   1.920  11.975  0.1131 -0.0736  2.3347
17707TIP3   OH274611   4.859   2.507   1.152 -0.0244 -0.5098  0.2686
17707TIP3    H174612   4.801   2.580   1.176 -0.3891 -0.0517 -1.8044
17707TIP3    H274613   4.935   2.518   1.209 -0.2444  1.2685  0.2809
17708TIP3   OH274614   0.978   3.073   1.992 -0.6317  0.6669 -0.2168
17708TIP3    H174615   0.884   3.088   1.986 -0.5131  2.4107  1.3395
17708TIP3    H274616   1.009   3.142   2.051  1.4153 -0.6740  0.3629
17709TIP3   OH274617   4.945   1.402  14.681 -0.5358  0.1262 -0.3316
17709TIP3    H174618   4.899   1.386  14.599  1.2272 -0.7881 -1.2183
17709TIP3    H274619   5.003   1.326  14.690 -1.4020 -0.3216  2.3171
17710TIP3   OH274620   2.081   2.772  14.724 -0.2753  0.2722 -0.6661
17710TIP3    H174621   2.088   2.736  14.812  2.4608  2.1603  0.0338
17710TIP3    H274622   2.029   2.708  14.675  0.7958 -2.4244  1.5001
17711TIP3   OH274623   4.166   0.694   1.343  0.7274 -0.4492  0.0382
17711TIP3    H174624   4.175   0.762   1.409  0.0109 -1.8117  1.6026
17711TIP3    H274625   4.224   0.722   1.272  1.4965  1.0687  1.2024
17712TIP3   OH274626   1.233   1.501  12.501  0.5805  0.4337 -0.5112
17712TIP3    H174627   1.173   1.529  12.570 -0.3842 -1.1718 -0.6482
17712TIP3    H274628   1.318   1.536  12.527 -0.1976  1.7928  0.2819
17713TIP3   OH274629   2.489   3.954  11.275 -0.1021 -0.1435  0.2381
17713TIP3    H174630   2.478   4.047  11.258  0.3534 -0.0974  0.1848
17713TIP3    H274631   2.583   3.939  11.266 -0.3078 -0.8403 -0.9932
17714TIP3   OH274632   6.034   1.807  15.781 -0.3149  0.1093  0.9887
17714TIP3    H174633   6.074   1.761  15.854  0.1090 -1.5922 -0.2629
17714TIP3    H274634   5.940   1.790  15.789 -0.2982  0.1433  1.2643
17715TIP3   OH274635   2.546   0.327  16.092  0.2583  0.3340  0.1502
17715TIP3    H174636   2.534   0.355  16.002 -0.9561  1.1498  0.5371
17715TIP3    H274637   2.618   0.264  16.089 -0.2054 -0.1485 -1.4748
17716TIP3   OH274638   5.855   2.551  13.425  0.2004  0.7011 -0.0517
17716TIP3    H174639   5.777   2.507  13.459 -0.4169 -0.0428 -2.2914
17716TIP3    H274640   5.928   2.510  13.471 -0.5755 -0.3324  0.2912
17717TIP3   OH274641   1.328   4.454  11.653 -0.4066 -0.6671 -0.3965
17717TIP3    H174642   1.417   4.482  11.675  0.7887 -2.9888 -1.8801
17717TIP3    H274643   1.299   4.516  11.587 -0.4535  0.8675  0.9916
17718TIP3   OH274644   5.251   4.879  15.268  0.1738  0.2963  0.1104
17718TIP3    H174645   5.264   4.787  15.245 -0.7404  0.1652  0.0867
17718TIP3    H274646   5.283   4.927  15.192 -0.5966 -0.0551 -0.4565
17719TIP3   OH274647   5.765   5.161   0.747 -0.0052  0.1759  0.4120
17719TIP3    H174648   5.792   5.203   0.665 -0.6158  0.2619  0.2467
17719TIP3    H274649   5.726   5.231   0.799  1.0109  0.2590  1.0715
17720TIP3   OH274650   6.522   4.116  15.467 -0.6315  0.2239  0.3840
17720TIP3    H174651   6.470   4.060  15.410 -0.5267 -0.9191  1.3758
17720TIP3    H274652   6.481   4.202  15.460 -1.6499 -0.2855 -0.1074
17721TIP3   OH274653   1.489   1.906   5.865 -0.0862  0.5670 -0.2508
17721TIP3    H174654   1.397   1.912   5.839 -0.1252 -0.0344 -0.2473
17721TIP3    H274655   1.488   1.858   5.948  0.2078  0.8356 -0.0868
17722TIP3   OH274656   1.600   2.736   5.213  0.2228  0.3910  0.0611
17722TIP3    H174657   1.650   2.815   5.236  1.6807 -0.1797 -0.9742
17722TIP3    H274658   1.640   2.667   5.267 -1.0419  0.3285  0.9603
17723TIP3   OH274659   5.868   2.854   6.161 -0.4080  0.6280 -0.1755
17723TIP3    H174660   5.871   2.947   6.142  0.1142  0.8300  0.8144
17723TIP3    H274661   5.838   2.813   6.080  0.3658  1.5541 -0.9462
17724TIP3   OH274662   0.650   3.479  15.437  0.6017  0.4551 -0.2842
17724TIP3    H174663   0.631   3.436  15.520  0.2377 -0.2477 -0.7226
17724TIP3    H274664   0.696   3.559  15.461  0.3595  0.3318  0.5998
17725TIP3   OH274665   0.993   6.482   5.607  0.0558 -0.2796 -0.2644
17725TIP3    H174666   0.995   6.429   5.686  0.9076  0.5204  0.2713
17725TIP3    H274667   1.046   6.434   5.544 -2.5099 -2.1244 -1.2032
17726TIP3   OH274668   0.004   4.457   1.023  0.0768 -0.5105 -0.0707
17726TIP3    H174669  -0.068   4.493   1.074 -1.4002 -2.3018 -0.7799
17726TIP3    H274670  -0.013   4.485   0.933 -0.2690 -1.6734 -0.3870
17727TIP3   OH274671   4.912   4.233  12.923  0.1068 -0.8546  0.3336
17727TIP3    H174672   4.842   4.231  12.858  1.7728 -1.8411 -1.5377
17727TIP3    H274673   4.876   4.285  12.996 -1.7637  0.4792 -1.4349
17728TIP3   OH274674   3.973   0.102   3.756 -1.0478  0.0416 -0.8460
17728TIP3    H174675   3.887   0.062   3.742 -0.8899 -0.5253 -0.1915
17728TIP3    H274676   4.036   0.031   3.743 -0.6977  0.3679 -0.9504
17729TIP3   OH274677   1.259   5.838   6.291 -0.0026 -0.1873  0.2392
17729TIP3    H174678   1.305   5.886   6.222  0.9048  0.1276  1.0421
17729TIP3    H274679   1.170   5.829   6.258  0.1275  0.9269 -0.4864
17730TIP3   OH274680   1.459   5.403   5.746  1.0151  0.2118  0.1124
17730TIP3    H174681   1.456   5.497   5.767 -0.5784  0.1479  0.2567
17730TIP3    H274682   1.550   5.388   5.721  1.3767  1.7326  0.3815
17731TIP3   OH274683   4.364   0.364  13.304 -0.5651 -0.1759  0.3250
17731TIP3    H174684   4.286   0.418  13.312  0.1074  0.9303 -0.1721
17731TIP3    H274685   4.436   0.422  13.332  0.5411  0.2862 -2.9163
17732TIP3   OH274686   4.925   4.504  15.012  0.5089  0.0983 -0.0795
17732TIP3    H174687   4.985   4.514  14.938  1.6731  1.0349  0.9504
17732TIP3    H274688   4.856   4.568  14.995  1.1844  0.8688  0.0168
17733TIP3   OH274689   4.668   3.078  14.718 -0.2125  0.2904 -0.2003
17733TIP3    H174690   4.743   3.128  14.687  1.1331 -0.7816  1.1729
17733TIP3    H274691   4.596   3.103  14.660  0.8386  2.4317 -0.6526
17734TIP3   OH274692   0.490   4.374  14.887 -0.3529 -0.2718  0.1042
17734TIP3    H174693   0.575   4.384  14.931 -0.9114 -0.1176  1.1768
17734TIP3    H274694   0.510   4.323  14.808  0.5566 -1.1938  0.9033
17735TIP3   OH274695   6.726   1.026  13.054  0.4030 -0.6635  0.4240
17735TIP3    H174696   6.748   1.093  12.989 -0.8008 -0.8600 -0.2175
17735TIP3    H274697   6.752   0.944  13.014 -1.3649 -0.8924 -0.3203
17736TIP3   OH274698   1.979   4.500   3.497 -0.3755  0.0326  0.2526
17736TIP3    H174699   1.962   4.555   3.421 -1.2367  1.6917  1.5829
17736TIP3    H274700   1.898   4.501   3.547  0.8644  1.0224  2.4079
17737TIP3   OH274701   1.518   0.806  14.499 -0.2311  0.2304  0.2922
17737TIP3    H174702   1.593   0.837  14.548  1.0222 -1.5311 -0.4042
17737TIP3    H274703   1.524   0.851  14.415  0.8392 -0.8527 -0.2421
17738TIP3   OH274704   2.109   3.960   3.281  0.3886  0.7683 -0.5006
17738TIP3    H174705   2.045   3.944   3.351  0.7477  0.0604 -0.3250
17738TIP3    H274706   2.071   4.032   3.231  0.1806  1.3758  0.4962
17739TIP3   OH274707   3.447   3.380   1.358 -0.1115 -0.1340  0.3481
17739TIP3    H174708   3.476   3.326   1.432 -0.7542 -1.3892 -0.2955
17739TIP3    H274709   3.398   3.452   1.399 -0.8947 -1.0795  1.1320
17740TIP3   OH274710   6.726   6.480  12.849  0.3692 -0.2306  0.4380
17740TIP3    H174711   6.778   6.438  12.917 -0.6835  1.7493  2.5860
17740TIP3    H274712   6.701   6.564  12.885 -2.7426 -0.2692 -1.2041
17741TIP3   OH274713   2.979   4.580   0.413  0.3890 -0.2358 -0.0443
17741TIP3    H174714   3.009   4.584   0.323 -0.6046 -0.7426 -0.4081
17741TIP3    H274715   2.948   4.491   0.425 -0.1203  0.0129  0.5794
17742TIP3   OH274716   6.325   5.793  13.830 -0.2122  0.5733  0.1239
17742TIP3    H174717   6.325   5.735  13.906  0.4512  0.4737  0.0510
17742TIP3    H274718   6.236   5.787  13.796  0.3699 -2.1408 -1.1954
17743TIP3   OH274719   3.252   4.494  10.929  0.4977  0.8115 -0.7500
17743TIP3    H174720   3.245   4.576  10.880 -1.1357  2.2548  1.6699
17743TIP3    H274721   3.318   4.512  10.996  0.0677  0.1987 -0.1500
17744TIP3   OH274722   2.044   3.189   1.534 -0.1462 -0.1833  0.0970
17744TIP3    H174723   2.048   3.155   1.445 -0.3193  2.0058 -0.8255
17744TIP3    H274724   2.100   3.131   1.585 -0.1347 -1.5556 -1.3969
17745TIP3   OH274725   5.616   2.107  15.436  0.1945  0.2417  0.8020
17745TIP3    H174726   5.660   2.090  15.520 -0.0533 -0.7228  0.7458
17745TIP3    H274727   5.543   2.045  15.434  1.2304 -1.0113 -0.9055
17746TIP3   OH274728   5.058   4.226   2.061 -0.6673 -0.1056 -0.0956
17746TIP3    H174729   4.970   4.195   2.040 -1.5871  1.3611  1.3897
17746TIP3    H274730   5.110   4.146   2.067 -2.0794 -1.0672 -0.1951
17747TIP3   OH274731   2.426   4.695   5.392 -0.4907  0.2587  0.0859
17747TIP3    H174732   2.480   4.763   5.433 -1.5159  1.2484 -0.1444
17747TIP3    H274733   2.489   4.632   5.357  0.4641  0.6090  1.1054
17748TIP3   OH274734   1.794   0.851   2.834 -0.4531 -0.1109  0.1359
17748TIP3    H174735   1.752   0.831   2.750 -2.4077 -5.0122  1.9321
17748TIP3    H274736   1.723   0.851   2.897  1.2372  1.0270  2.1403
17749TIP3   OH274737   5.806   1.041   0.234  0.4293 -0.2370 -0.2981
17749TIP3    H174738   5.800   1.080   0.147  0.0233  0.0006 -0.1660
17749TIP3    H274739   5.741   1.088   0.286  2.0546  1.0304  0.6810
17750TIP3   OH274740   0.445   4.546   4.130 -0.1326  0.1145  0.2608
17750TIP3    H174741   0.529   4.562   4.086  0.0414 -0.4091  0.4021
17750TIP3    H274742   0.426   4.629   4.175  0.3876  0.1852  0.3593
17751TIP3   OH274743   6.436   6.509  16.450 -0.0410  0.3672  0.1502
17751TIP3    H174744   6.506   6.542  16.506 -0.4336 -0.0236  0.8939
17751TIP3    H274745   6.357   6.516  16.504 -0.3017 -0.7738 -0.0610
17752TIP3   OH274746   1.350   6.289  12.271  0.5891  0.4110  0.0380
17752TIP3    H174747   1.381   6.206  12.235 -0.9791 -0.7759  1.2928
17752TIP3    H274748   1.303   6.331  12.199  1.1337  0.1020 -0.5097
17753TIP3   OH274749   3.560   4.272   0.893  0.3235  0.1569  0.1922
17753TIP3    H174750   3.516   4.217   0.957 -0.0013  0.5192  0.2824
17753TIP3    H274751   3.492   4.331   0.861 -0.1144 -1.4830 -2.1589
17754TIP3   OH274752   6.192   2.078  14.810 -0.3637  0.6089  0.2202
17754TIP3    H174753   6.150   2.129  14.879 -0.6995  1.6880 -0.7483
17754TIP3    H274754   6.124   2.065  14.745  0.2514  0.6290 -0.4446
17755TIP3   OH274755   5.932   1.353  12.053  0.2615  0.2607  0.5486
17755TIP3    H174756   5.850   1.403  12.054  0.4133  0.5112  0.9076
17755TIP3    H274757   5.994   1.409  12.100  0.7848  0.3137 -0.1924
17756TIP3   OH274758   6.753   4.735   3.547 -0.0056 -0.2887  0.7332
17756TIP3    H174759   6.688   4.805   3.549  0.5508  0.4158 -2.0381
17756TIP3    H274760   6.748   4.695   3.634 -2.1387  1.5264  1.5322
17757TIP3   OH274761   5.212   1.945   2.525  0.2431 -0.4142 -0.1495
17757TIP3    H174762   5.122   1.914   2.514  0.2364  0.2688 -2.8356
17757TIP3    H274763   5.231   1.934   2.618 -3.0662  0.6597  0.7868
17758TIP3   OH274764   3.243   0.149   1.641 -1.1125  0.2375 -0.3263
17758TIP3    H174765   3.237   0.112   1.729 -0.9292  0.9654 -0.0070
17758TIP3    H274766   3.185   0.093   1.588 -1.1216 -0.2825  0.2199
17759TIP3   OH274767   5.330   5.133   0.657  0.0395  0.4426 -0.1042
17759TIP3    H174768   5.398   5.087   0.707 -0.1408 -0.9720 -1.1239
17759TIP3    H274769   5.272   5.169   0.724  0.5276 -0.2848  0.7359
17760TIP3   OH274770   1.763   1.226   3.026 -0.4026  0.5089  0.1335
17760TIP3    H174771   1.750   1.293   3.092  1.2862  2.6664 -1.5417
17760TIP3    H274772   1.788   1.275   2.947  2.6704 -2.0967 -0.7508
17761TIP3   OH274773   0.501   3.227  11.856 -0.0656  0.8300 -0.4773
17761TIP3    H174774   0.546   3.214  11.939  2.5708  2.7687 -1.4484
17761TIP3    H274775   0.536   3.158  11.799 -0.0836  0.9289 -0.6084
17762TIP3   OH274776   5.916   5.359  16.492 -0.1994 -0.1596 -0.0642
17762TIP3    H174777   5.937   5.307  16.569  1.9157 -1.8365 -1.6524
17762TIP3    H274778   5.926   5.450  16.520 -3.6901 -0.4154  2.7150
17763TIP3   OH274779   3.173   3.453   4.584 -0.5699 -0.3130  0.1999
17763TIP3    H174780   3.126   3.526   4.625 -0.3112  0.1656 -0.3420
17763TIP3    H274781   3.257   3.491   4.557 -0.3727 -0.8522  0.0458
17764TIP3   OH274782   0.812   2.281  16.376 -0.3024  0.3363  0.1442
17764TIP3    H174783   0.893   2.271  16.325  0.9853 -0.2381  2.1822
17764TIP3    H274784   0.759   2.206  16.351  0.7877 -0.5687  0.4597
17765TIP3   OH274785   6.432   5.269   4.815  0.2956  0.2572 -0.2360
17765TIP3    H174786   6.419   5.240   4.905 -0.0935  1.7022  0.1871
17765TIP3    H274787   6.378   5.347   4.806  0.2273  0.0673 -1.7674
17766TIP3   OH274788   4.793   0.337  16.506 -0.0429 -0.5278  0.2068
17766TIP3    H174789   4.889   0.339  16.506  0.0517 -2.6036  0.5561
17766TIP3    H274790   4.771   0.254  16.464 -1.8039  1.0383 -2.1876
17767TIP3   OH274791   6.437   6.730   0.944  0.6314 -0.2540 -0.0732
17767TIP3    H174792   6.412   6.638   0.931 -0.0586  0.0443 -0.8935
17767TIP3    H274793   6.527   6.734   0.912  0.7664 -0.7059  0.2313
17768TIP3   OH274794   6.553   5.562  17.212  0.0241  0.9411 -0.0777
17768TIP3    H174795   6.568   5.495  17.146 -3.8148  0.0136 -0.2358
17768TIP3    H274796   6.585   5.643  17.172  1.4109 -0.1937 -1.3720
17769TIP3   OH274797   2.141   5.550   4.864 -0.6526 -0.3189  0.1292
17769TIP3    H174798   2.090   5.469   4.851 -0.0290 -0.7481  0.3053
17769TIP3    H274799   2.077   5.620   4.855 -1.0691 -0.7957 -0.8142
17770TIP3   OH274800   1.844   6.648   0.674 -0.0710  0.0890 -0.1300
17770TIP3    H174801   1.875   6.736   0.656 -0.6361  0.5939  1.2039
17770TIP3    H274802   1.751   6.650   0.655  0.0485 -0.4357 -0.8033
17771TIP3   OH274803   0.879   2.965  11.404 -0.1136  0.0973  0.3227
17771TIP3    H174804   0.833   3.047  11.390  1.5220  0.9412 -0.3851
17771TIP3    H274805   0.971   2.990  11.414  0.2754 -1.5488  1.2752
17772TIP3   OH274806   2.156   3.168  11.757  0.2468  0.5610 -0.0713
17772TIP3    H174807   2.120   3.249  11.792 -0.5887  0.8981 -1.5964
17772TIP3    H274808   2.088   3.136  11.697  1.7395  0.2494 -1.6809
17773TIP3   OH274809   6.571   0.732  13.096 -0.1428 -0.1077 -0.4172
17773TIP3    H174810   6.665   0.722  13.112 -0.2168 -1.5513 -0.6715
17773TIP3    H274811   6.533   0.748  13.182  0.4421  1.6098 -0.4576
17774TIP3   OH274812   0.969   2.396   5.223 -0.3049  0.0818 -0.7229
17774TIP3    H174813   1.049   2.402   5.171  0.1940 -0.5212 -0.0482
17774TIP3    H274814   0.955   2.485   5.255  1.7035 -0.2778  1.4523
17775TIP3   OH274815   0.767   5.515  15.142 -0.0132 -0.2820  0.3323
17775TIP3    H174816   0.846   5.460  15.137 -1.1851 -2.0148  0.1255
17775TIP3    H274817   0.801   5.603  15.157  1.9354 -1.1559  1.5225
17776TIP3   OH274818   1.220   6.060   5.650 -0.0735  0.7281 -0.1886
17776TIP3    H174819   1.271   5.986   5.683  0.2018  1.1165  0.2832
17776TIP3    H274820   1.129   6.038   5.669  0.0001  0.4599 -0.1492
17777TIP3   OH274821   6.167   6.802   2.422 -0.1709 -0.2633  0.4471
17777TIP3    H174822   6.095   6.860   2.397  0.0343 -0.1202  0.1911
17777TIP3    H274823   6.146   6.777   2.512  0.0178  0.6276  0.7491
17778TIP3   OH274824   3.796   1.565  14.341 -0.1498  0.0251 -0.5359
17778TIP3    H174825   3.879   1.544  14.384 -1.3368 -1.2291  1.2886
17778TIP3    H274826   3.757   1.480  14.322 -1.4334  0.5861 -0.4788
17779TIP3   OH274827   2.204   5.331   0.504 -0.2040  0.8020 -0.5655
17779TIP3    H174828   2.204   5.412   0.556 -0.4352  0.8183 -0.5887
17779TIP3    H274829   2.293   5.324   0.471  0.1111  0.4838  0.3128
17780TIP3   OH274830   4.804   6.264   0.659 -0.4393 -0.5185  0.0656
17780TIP3    H174831   4.890   6.305   0.655 -0.0061 -1.4802 -1.2403
17780TIP3    H274832   4.822   6.170   0.658 -1.5114 -0.7523 -1.6394
17781TIP3   OH274833   0.261   3.850  14.859 -0.1422  0.3029  0.4638
17781TIP3    H174834   0.339   3.851  14.915  1.3937 -0.6819 -1.5220
17781TIP3    H274835   0.226   3.761  14.869  0.6387 -0.1660 -0.7006
17782TIP3   OH274836   2.969   1.480  16.523 -0.2501 -0.4063  0.2575
17782TIP3    H174837   3.008   1.452  16.440  1.1777  2.2748 -0.1124
17782TIP3    H274838   3.022   1.437  16.590  0.7193 -0.0703 -0.2683
17783TIP3   OH274839   2.778   1.022  15.108  0.2002  0.4499  0.7780
17783TIP3    H174840   2.778   0.958  15.179  2.2049  0.6004  0.9935
17783TIP3    H274841   2.784   1.107  15.152  0.3220  0.6112  0.4603
17784TIP3   OH274842   5.675   4.359  16.833 -0.2253 -0.2275 -0.0148
17784TIP3    H174843   5.674   4.429  16.768 -0.8534  0.6183  0.8877
17784TIP3    H274844   5.768   4.343  16.850 -0.0860  0.8060  0.2140
17785TIP3   OH274845   1.604   3.104   1.618  0.4065  0.2190 -0.1651
17785TIP3    H174846   1.543   3.033   1.636 -0.0982  1.0437  1.6851
17785TIP3    H274847   1.549   3.174   1.582  0.3955  0.6170  0.5954
17786TIP3   OH274848   3.194   4.370  14.675  0.1473 -0.3506  0.0620
17786TIP3    H174849   3.209   4.463  14.658 -0.5737 -0.6272 -2.5049
17786TIP3    H274850   3.225   4.326  14.596 -1.0176 -2.1592  0.5531
17787TIP3   OH274851   0.553   1.547   0.033  0.5419  0.2284  0.4107
17787TIP3    H174852   0.485   1.482   0.051 -0.1102  1.0160  0.8408
17787TIP3    H274853   0.531   1.621   0.088 -0.5968  2.1244 -2.3770
17788TIP3   OH274854   4.956   4.388  12.563  0.5901  0.5061  0.1843
17788TIP3    H174855   4.898   4.324  12.603  1.0616 -0.1927 -0.2252
17788TIP3    H274856   5.044   4.353  12.578  0.9295  1.6097  0.9196
17789TIP3   OH274857   0.894   2.160  12.652 -0.0992  0.5770  0.1114
17789TIP3    H174858   0.921   2.219  12.581  2.0316 -0.9675 -0.4590
17789TIP3    H274859   0.828   2.103  12.611 -0.8614  1.3915  0.1714
17790TIP3   OH274860   1.569   3.047   2.771 -0.3098  0.5234 -0.2392
17790TIP3    H174861   1.593   3.123   2.719  1.2339  0.2666  0.0223
17790TIP3    H274862   1.552   2.978   2.707 -2.4586  1.2482 -0.5033
17791TIP3   OH274863   1.847   6.683  14.295  0.0693 -0.3856 -0.3812
17791TIP3    H174864   1.858   6.597  14.334 -0.7295 -1.2503 -1.9715
17791TIP3    H274865   1.854   6.668  14.201  2.1426  1.6574 -0.6303
17792TIP3   OH274866   0.159   5.258   0.986 -0.4082 -0.0931 -0.2884
17792TIP3    H174867   0.175   5.238   0.894 -2.8272 -0.4973 -0.7031
17792TIP3    H274868   0.116   5.344   0.984  2.9512  1.8054  0.8613
17793TIP3   OH274869   1.562   0.008   5.822 -0.5382 -0.6781  0.0754
17793TIP3    H174870   1.632  -0.056   5.829  1.2133  0.7698 -2.5666
17793TIP3    H274871   1.579   0.053   5.739 -4.7494 -0.3966 -0.8768
17794TIP3   OH274872   0.227   6.665  15.694 -0.0931  0.1092 -0.0632
17794TIP3    H174873   0.191   6.641  15.779 -0.4164 -0.5217 -0.3757
17794TIP3    H274874   0.310   6.709  15.715  0.1832 -0.6914  0.5478
17795TIP3   OH274875   5.724   5.811   0.097  0.2222  0.3162 -0.3544
17795TIP3    H174876   5.765   5.898   0.093 -0.6292  0.8145  1.0044
17795TIP3    H274877   5.759   5.772   0.177 -0.5512  0.0224 -0.1510
17796TIP3   OH274878   5.072   5.530  15.351 -0.1192  0.4096  0.7518
17796TIP3    H174879   5.039   5.462  15.292 -1.8638  0.6345  1.4038
17796TIP3    H274880   5.136   5.485  15.405  0.7225 -0.0552 -0.5812
17797TIP3   OH274881   2.867   5.958  14.392  0.0580  0.3491 -0.1073
17797TIP3    H174882   2.776   5.954  14.360  0.0935  1.9482 -0.5188
17797TIP3    H274883   2.867   6.031  14.453  0.8810 -0.2392  0.6118
17798TIP3   OH274884   5.584   3.920  15.983 -0.0453  0.5950  0.2766
17798TIP3    H174885   5.652   3.857  15.958 -1.2781 -1.2370  1.3126
17798TIP3    H274886   5.627   3.980  16.043  0.5962 -0.7747  1.2364
17799TIP3   OH274887   4.073   2.289   5.512  0.1337 -0.2029 -0.3590
17799TIP3    H174888   4.120   2.206   5.507  2.5074  1.0081  0.3388
17799TIP3    H274889   4.066   2.307   5.606 -0.2037  0.4382 -0.5022
17800TIP3   OH274890   3.230   4.746   4.115  0.2753  0.3698 -0.0908
17800TIP3    H174891   3.288   4.812   4.155  0.2645  0.7385 -0.6744
17800TIP3    H274892   3.154   4.744   4.172  0.5402  0.4205  0.2714
17801TIP3   OH274893   0.551   1.247   0.275 -0.1488 -0.0577 -0.0389
17801TIP3    H174894   0.474   1.300   0.254 -0.7709 -0.9561 -0.0516
17801TIP3    H274895   0.594   1.232   0.191 -0.9828 -1.1026 -0.2984
17802TIP3   OH274896   4.761   5.268   3.359 -0.1724  0.3325 -0.1853
17802TIP3    H174897   4.827   5.309   3.415 -1.5102  1.7283  0.4381
17802TIP3    H274898   4.796   5.277   3.270  1.6248 -1.2441  0.2890
17803TIP3   OH274899   4.010   5.966   1.424 -0.3616 -0.3595 -0.5153
17803TIP3    H174900   4.044   5.923   1.502  1.1089  0.2363 -0.7837
17803TIP3    H274901   4.017   5.900   1.355 -1.8618 -0.9549 -0.1270
17804TIP3   OH274902   4.202   5.465   6.253  0.9309  0.1061  0.0178
17804TIP3    H174903   4.115   5.458   6.293 -0.8280 -0.5566 -3.4842
17804TIP3    H274904   4.206   5.555   6.221  1.2521 -0.0498 -0.3921
17805TIP3   OH274905   2.870   1.863   1.466 -0.4250  0.6571 -0.8737
17805TIP3    H174906   2.818   1.926   1.416 -1.4421 -0.2866 -1.0591
17805TIP3    H274907   2.924   1.819   1.400 -0.0966  0.9750 -0.8176
17806TIP3   OH274908   5.225   6.518  16.351  0.1585 -0.4558 -0.3518
17806TIP3    H174909   5.165   6.480  16.287  2.1300 -0.6523 -2.1796
17806TIP3    H274910   5.247   6.445  16.409  0.8231 -1.1311 -1.4183
17807TIP3   OH274911   5.175   6.134   2.099  0.2165 -0.0132 -0.3729
17807TIP3    H174912   5.195   6.155   2.191  1.0835 -1.1957 -0.2658
17807TIP3    H274913   5.205   6.044   2.089 -2.9245 -1.1044 -0.9081
17808TIP3   OH274914   3.489   2.258   5.312  0.0391  0.7046  0.2772
17808TIP3    H174915   3.518   2.346   5.286 -1.9937  1.4682  0.4027
17808TIP3    H274916   3.528   2.245   5.398  0.6562  1.3184  0.1061
17809TIP3   OH274917   3.924   3.636   1.843 -0.8671 -0.2826  0.7277
17809TIP3    H174918   3.917   3.696   1.917  0.6317  0.5671  0.2223
17809TIP3    H274919   4.009   3.594   1.854 -0.4412  0.1438 -0.6863
17810TIP3   OH274920   1.607   4.348  12.907 -0.0624  0.1504  0.1709
17810TIP3    H174921   1.578   4.402  12.834  0.6560 -0.1309 -0.3344
17810TIP3    H274922   1.702   4.361  12.911 -0.0271 -0.2207  0.7429
17811TIP3   OH274923   5.665   4.920  10.805 -0.1485  0.0778  0.0569
17811TIP3    H174924   5.663   4.826  10.784  3.1199  0.6110 -3.6743
17811TIP3    H274925   5.624   4.963  10.730 -1.7885  1.8052  1.7937
17812TIP3   OH274926   3.039   4.570   5.900 -0.0952  0.0898  0.2093
17812TIP3    H174927   3.033   4.638   5.967  0.1540 -0.8361  1.2066
17812TIP3    H274928   3.060   4.491   5.949 -0.9664 -0.8314 -0.8509
17813TIP3   OH274929   0.365   1.815   0.727  0.2156  0.3016 -0.0717
17813TIP3    H174930   0.400   1.742   0.777  0.5126  0.7908  0.4451
17813TIP3    H274931   0.283   1.838   0.771  0.3456  0.5638  0.0367
17814TIP3   OH274932   0.468   2.534   5.059 -0.3619 -0.5136 -0.0882
17814TIP3    H174933   0.559   2.515   5.082 -0.2394  0.7496  0.5339
17814TIP3    H274934   0.420   2.520   5.140 -0.3673  1.0596  0.2044
17815TIP3   OH274935   4.070   3.142  14.987 -0.3922 -0.4268  0.0450
17815TIP3    H174936   3.988   3.187  15.009 -0.4296  0.4764 -1.8040
17815TIP3    H274937   4.070   3.065  15.044 -1.2699  0.8622  1.9150
17816TIP3   OH274938   4.459   1.512  16.348 -0.2123 -0.4422 -0.0530
17816TIP3    H174939   4.481   1.507  16.441  0.1360 -0.6930 -0.1471
17816TIP3    H274940   4.519   1.451  16.305  0.6346  0.7664 -0.6226
17817TIP3   OH274941   3.114   3.569   5.294 -0.1167  0.1580 -0.0834
17817TIP3    H174942   3.179   3.638   5.287 -0.0642  0.0286 -1.0423
17817TIP3    H274943   3.141   3.504   5.229  0.5562 -1.3754  1.6396
17818TIP3   OH274944   1.611   1.250   0.071 -0.3310 -0.1448  0.4289
17818TIP3    H174945   1.581   1.272  -0.017  1.4268 -1.2051 -0.4931
17818TIP3    H274946   1.662   1.327   0.099 -2.4259  1.0033  1.3754
17819TIP3   OH274947   0.618   1.405  16.729 -0.6812 -0.4888 -0.3196
17819TIP3    H174948   0.529   1.430  16.706 -0.4403  0.6058 -0.1101
17819TIP3    H274949   0.609   1.317  16.766 -1.4429 -1.0601 -1.7962
17820TIP3   OH274950   4.716   5.577  12.052 -0.2417 -0.2291  0.2354
17820TIP3    H174951   4.809   5.555  12.049  0.1216  1.3493 -1.7586
17820TIP3    H274952   4.675   5.516  11.990  0.1165  1.6044 -1.9175
17821TIP3   OH274953   4.403   5.671   1.299 -0.0499  0.2411 -0.1800
17821TIP3    H174954   4.439   5.627   1.376  0.9311  2.9370  1.0586
17821TIP3    H274955   4.359   5.602   1.249  0.5189 -1.8718  2.0563
17822TIP3   OH274956   3.169   1.450   4.595 -0.3798  0.3899 -0.0386
17822TIP3    H174957   3.242   1.497   4.554  0.2053  1.0046  1.6474
17822TIP3    H274958   3.094   1.510   4.585  0.2684  1.5577  1.7219
17823TIP3   OH274959   0.152   5.226   0.720  0.6432 -0.0651 -0.0352
17823TIP3    H174960   0.089   5.158   0.698 -1.6426  1.9210  0.0260
17823TIP3    H274961   0.146   5.289   0.648  3.0661 -0.0889 -0.3485
17824TIP3   OH274962   6.689   3.292  12.787 -0.1318 -0.0638  0.3068
17824TIP3    H174963   6.744   3.336  12.722  0.0029  1.5291  1.4511
17824TIP3    H274964   6.613   3.349  12.797 -1.3435 -1.5103 -0.1803
17825TIP3   OH274965   4.550   4.808   4.827 -0.9570 -0.1695  0.1107
17825TIP3    H174966   4.481   4.784   4.888  0.0880 -0.1056  1.3655
17825TIP3    H274967   4.617   4.740   4.838 -0.3374  0.3636 -0.2550
17826TIP3   OH274968   2.999   0.354   0.831  0.6259 -0.1012  0.4929
17826TIP3    H174969   3.080   0.308   0.811  0.2921 -0.5525  0.1381
17826TIP3    H274970   2.987   0.414   0.758 -0.5070 -1.6317 -0.6598
17827TIP3   OH274971   3.932   6.145  15.903  0.1889 -0.1466  0.1008
17827TIP3    H174972   3.924   6.223  15.849 -0.5928 -0.4604 -0.2548
17827TIP3    H274973   3.885   6.077  15.854  0.0703 -0.6078  0.8402
17828TIP3   OH274974   1.308   1.730   6.491  0.2359  0.5620 -0.3180
17828TIP3    H174975   1.347   1.719   6.577  0.4086 -0.5313 -0.5255
17828TIP3    H274976   1.370   1.784   6.443  2.2061 -2.1555 -1.0426
17829TIP3   OH274977   1.891   3.347   5.355 -0.3411  0.5117  0.0947
17829TIP3    H174978   1.911   3.337   5.262 -2.2152  0.7158 -0.3619
17829TIP3    H274979   1.935   3.429   5.380  0.0133  0.5606 -0.6509
17830TIP3   OH274980   4.783   2.279  10.805 -0.1738 -0.4301 -0.2205
17830TIP3    H174981   4.818   2.231  10.730 -0.6089  0.9634 -1.3621
17830TIP3    H274982   4.707   2.325  10.770 -0.3799  0.2589  1.0814
17831TIP3   OH274983   1.999   5.817   0.351  0.1657  0.1601  0.1812
17831TIP3    H174984   2.038   5.905   0.346  2.5768 -0.8199  0.4428
17831TIP3    H274985   2.010   5.781   0.263 -0.3211 -0.1065  0.2245
17832TIP3   OH274986   5.036   5.100   3.872 -0.5875  0.0751 -0.0513
17832TIP3    H174987   5.126   5.075   3.890 -0.2430  0.3391 -1.3067
17832TIP3    H274988   5.030   5.191   3.902 -1.4929 -0.9642  3.3548
17833TIP3   OH274989   0.189   2.933   3.563  0.1151  0.2387 -0.4610
17833TIP3    H174990   0.151   2.849   3.588  1.2637 -0.5850 -1.3936
17833TIP3    H274991   0.266   2.942   3.619  0.9446 -0.1462 -1.5087
17834TIP3   OH274992   3.812   1.175   1.542 -0.1752 -0.1359 -0.2066
17834TIP3    H174993   3.871   1.210   1.475  1.2693 -0.2228  0.9563
17834TIP3    H274994   3.806   1.081   1.521 -1.0691  0.1186 -1.1585
17835TIP3   OH274995   1.079   6.309   0.625 -0.0525  0.2324 -0.3698
17835TIP3    H174996   1.135   6.363   0.680  0.6324  0.7858 -1.5641
17835TIP3    H274997   1.126   6.226   0.617  0.4356  0.5750 -1.0898
17836TIP3   OH274998   3.569   1.272  16.612 -0.6273 -0.0310  0.1094
17836TIP3    H174999   3.500   1.209  16.629  0.3010 -0.7385  1.3763
17836TIP3    H275000   3.531   1.332  16.547 -1.4683 -1.9632 -1.2707
17837TIP3   OH275001   5.064   5.176   3.272  0.0044  0.0023  0.6023
17837TIP3    H175002   5.065   5.255   3.218  1.9702 -1.2693 -1.3724
17837TIP3    H275003   5.150   5.175   3.314 -0.1289 -0.9117  0.8679
17838TIP3   OH275004   3.000   0.006   1.583  0.3088  0.5123  0.6275
17838TIP3    H175005   2.996   0.053   1.499  2.2997 -0.8307 -0.2972
17838TIP3    H275006   2.928   0.042   1.633 -1.3480  0.9690 -1.8759
17839TIP3   OH275007   6.297   4.719   0.903  0.0936  0.1441  0.1793
17839TIP3    H175008   6.385   4.685   0.888 -0.0989  0.5485 -2.2027
17839TIP3    H275009   6.251   4.646   0.945  1.4303 -0.1931  1.1559
17840TIP3   OH275010   2.222   5.302   5.047 -0.8513 -0.0871 -0.3159
17840TIP3    H175011   2.165   5.232   5.079 -1.6563  0.9181  0.5325
17840TIP3    H275012   2.190   5.381   5.091  1.8304  0.3900  1.0081
17841TIP3   OH275013   6.249   3.990   6.182 -0.1993 -0.1042 -0.0838
17841TIP3    H175014   6.324   3.932   6.191 -1.5934 -1.9698 -0.0271
17841TIP3    H275015   6.249   4.016   6.090  0.6121  0.0766 -0.0396
17842TIP3   OH275016   3.529   5.640  11.634 -0.5341  0.0866 -0.8359
17842TIP3    H175017   3.513   5.643  11.540 -0.1500 -0.1305 -0.9079
17842TIP3    H275018   3.442   5.653  11.673 -0.5518  1.1770 -1.2009
17843TIP3   OH275019   2.604   3.028   0.251  0.8130 -0.0811  0.5783
17843TIP3    H175020   2.566   2.941   0.265 -0.8902  0.4989 -0.1155
17843TIP3    H275021   2.667   3.016   0.180  0.2750 -0.6860  0.1863
17844TIP3   OH275022   0.598   5.976   2.830  0.3427  0.2305  0.4566
17844TIP3    H175023   0.642   5.927   2.899  1.4681 -2.0701 -1.6990
17844TIP3    H275024   0.665   5.989   2.763 -0.7534  2.1112 -0.3448
17845TIP3   OH275025   6.404   1.127  16.589 -0.2264 -0.4787  0.2127
17845TIP3    H175026   6.363   1.209  16.563 -0.4870 -1.0154 -1.1526
17845TIP3    H275027   6.403   1.073  16.510  0.5715 -1.5448  0.8945
17846TIP3   OH275028   4.414   6.349  12.635 -0.3710 -0.1210  0.7663
17846TIP3    H175029   4.478   6.419  12.649  0.4635 -0.8305  0.5583
17846TIP3    H275030   4.438   6.282  12.699  0.4451 -1.3145 -0.7357
17847TIP3   OH275031   1.559   4.432   0.104  0.2443 -0.3749  0.4173
17847TIP3    H175032   1.654   4.444   0.099  0.1029  0.4487 -1.1334
17847TIP3    H275033   1.523   4.517   0.078 -0.8908 -1.2092 -0.8464
17848TIP3   OH275034   4.129   0.346  17.114  0.0639 -0.2462  0.3619
17848TIP3    H175035   4.036   0.364  17.130  0.1208  1.9577 -1.2888
17848TIP3    H275036   4.131   0.311  17.025  0.7286 -1.3236  0.7891
17849TIP3   OH275037   1.383   2.950   5.731 -0.4080 -0.0219  0.5166
17849TIP3    H175038   1.361   2.858   5.745 -1.4947  0.0776 -0.4274
17849TIP3    H275039   1.412   2.981   5.817 -2.2815 -0.6418  1.4235
17850TIP3   OH275040   2.269   1.973   5.825 -0.0585  0.1017  0.5352
17850TIP3    H175041   2.341   2.020   5.784 -0.1149  0.3770  0.7488
17850TIP3    H275042   2.227   2.038   5.882 -1.6713  0.5443 -1.0260
17851TIP3   OH275043   2.431   3.633  14.721  0.4023  0.0001  0.2742
17851TIP3    H175044   2.410   3.659  14.632 -0.4186 -0.2256  0.3977
17851TIP3    H275045   2.448   3.715  14.767 -0.0363  0.1729  0.1281
17852TIP3   OH275046   4.464   0.037   3.422 -0.5198  0.3140  0.4268
17852TIP3    H175047   4.544   0.024   3.474  0.5387  1.6218 -0.7876
17852TIP3    H275048   4.426  -0.050   3.412  1.2421 -0.4661  0.2942
17853TIP3   OH275049   3.033   4.521  13.280 -0.4786 -0.0882  0.1392
17853TIP3    H175050   3.009   4.458  13.211  0.2250  1.6569 -1.8098
17853TIP3    H275051   2.988   4.602  13.256  0.5656  0.8411  1.1935
17854TIP3   OH275052   3.199   6.103   2.183 -0.3726 -0.0944 -0.0563
17854TIP3    H175053   3.224   6.086   2.092 -1.0042  0.8923 -0.4280
17854TIP3    H275054   3.138   6.033   2.205  0.0745 -0.5560 -0.2650
17855TIP3   OH275055   0.590   0.093  15.337 -0.4817  1.0434  0.4865
17855TIP3    H175056   0.497   0.083  15.358 -0.3698 -0.2488  0.4031
17855TIP3    H275057   0.595   0.078  15.243  0.0108 -0.4696  0.7339
17856TIP3   OH275058   3.363   1.126  16.884  0.0563  0.1420  0.3308
17856TIP3    H175059   3.422   1.059  16.920  0.8190 -0.5579 -2.0358
17856TIP3    H275060   3.364   1.110  16.790 -0.3723  3.0038 -0.2437
17857TIP3   OH275061   1.068   6.789   2.397 -0.4289 -0.3060  0.2830
17857TIP3    H175062   1.117   6.871   2.405  2.0367 -1.6064 -0.3315
17857TIP3    H275063   1.075   6.766   2.305 -0.5285 -1.4989  0.5554
17858TIP3   OH275064   0.467   2.025  16.758  0.0180  0.2508  0.6263
17858TIP3    H175065   0.471   2.027  16.662  0.6018 -0.0320  0.6401
17858TIP3    H275066   0.391   2.079  16.780  0.2574  0.8456  0.0275
17859TIP3   OH275067   2.281   3.654  12.544  0.0884 -0.4156 -0.4505
17859TIP3    H175068   2.369   3.662  12.580 -0.2734  1.1730  0.1396
17859TIP3    H275069   2.265   3.559  12.541  0.8793 -0.6706  1.7170
17860TIP3   OH275070   2.505   3.914  16.696 -0.1023 -0.3002 -0.4198
17860TIP3    H175071   2.527   3.835  16.648  1.3815  0.6830 -1.4433
17860TIP3    H275072   2.440   3.958  16.642  2.1961  1.2342 -2.0998
17861TIP3   OH275073   3.674   6.164  11.272  0.3345  0.1943  0.0690
17861TIP3    H175074   3.654   6.250  11.235  2.2997  1.1323  1.0403
17861TIP3    H275075   3.720   6.183  11.353 -3.3441 -1.7758  2.9145
17862TIP3   OH275076   1.211   6.286  12.547 -0.0156 -0.3756  0.5854
17862TIP3    H175077   1.115   6.288  12.549 -0.0377 -1.3773  1.2330
17862TIP3    H275078   1.233   6.262  12.457 -0.3063  1.5362 -0.0373
17863TIP3   OH275079   5.481   0.334  15.360  0.3287  0.1052  0.3606
17863TIP3    H175080   5.572   0.309  15.381 -0.0593 -1.3651  0.4162
17863TIP3    H275081   5.435   0.326  15.444 -0.0638 -0.2134  0.1170
17864TIP3   OH275082   0.118   0.840  14.481 -0.1195 -0.1384  0.6163
17864TIP3    H175083   0.152   0.870  14.565 -2.8970 -0.5098  1.9841
17864TIP3    H275084   0.157   0.754  14.467  0.9587  0.2591  1.1199
17865TIP3   OH275085   4.070   4.545  10.745  0.1174  0.6028  0.3100
17865TIP3    H175086   4.034   4.618  10.796 -1.9819 -0.5393  0.6005
17865TIP3    H275087   4.145   4.516  10.796 -0.0518  1.4735  1.1013
17866TIP3   OH275088   0.924   3.638   4.834 -0.6387  0.2953 -0.2823
17866TIP3    H175089   0.894   3.728   4.853 -1.4123  0.1218 -0.6359
17866TIP3    H275090   0.988   3.648   4.763  0.5138  0.7186  0.7855
17867TIP3   OH275091   6.602   0.276  16.601 -0.3943 -0.3564  0.5809
17867TIP3    H175092   6.634   0.327  16.675 -2.5057  0.3704  1.0408
17867TIP3    H275093   6.520   0.318  16.575  0.7351  0.0513 -2.8777
17868TIP3   OH275094   4.210   3.365   5.304 -0.2791 -0.5983  0.5212
17868TIP3    H175095   4.147   3.433   5.282 -1.3823 -1.8264 -0.2690
17868TIP3    H275096   4.242   3.389   5.391 -0.7826  0.7944  0.3532
17869TIP3   OH275097   1.140   1.865   6.014 -0.3203 -0.8760 -0.4528
17869TIP3    H175098   1.202   1.880   6.086  0.1257 -0.2214 -0.9686
17869TIP3    H275099   1.082   1.796   6.047  1.4446 -2.4436 -0.4322
17870TIP3   OH275100   1.140   5.730  12.031 -0.0708 -0.7571  0.2551
17870TIP3    H175101   1.142   5.651  11.977  0.9370 -0.9508  0.5594
17870TIP3    H275102   1.231   5.746  12.054 -0.4582 -0.6473  1.8584
17871TIP3   OH275103   1.074   3.550  16.239  0.1780  0.0663 -0.1221
17871TIP3    H175104   1.003   3.538  16.302  0.3037  0.2192  0.0514
17871TIP3    H275105   1.134   3.478  16.257  0.5154  0.4589  0.3499
17872TIP3   OH275106   0.369   1.138   1.086  0.0775  0.9033 -0.7016
17872TIP3    H175107   0.327   1.052   1.089 -0.5763  1.2210 -0.3585
17872TIP3    H275108   0.298   1.200   1.106  0.9443  1.3816  1.1343
17873TIP3   OH275109   5.079   4.692   4.835 -0.2911 -0.4969  0.5649
17873TIP3    H175110   5.159   4.674   4.884 -0.8795 -0.9120  1.4120
17873TIP3    H275111   5.083   4.634   4.759  0.9545  0.6416 -0.2779
17874TIP3   OH275112   0.930   6.509   1.571  0.7343 -0.3963 -0.0255
17874TIP3    H175113   1.007   6.453   1.578  0.3846 -0.8673  0.0707
17874TIP3    H275114   0.940   6.572   1.643  0.5392 -1.0609  0.5923
17875TIP3   OH275115   2.040   4.271  12.009  0.3913 -0.0561  0.2880
17875TIP3    H175116   2.091   4.197  11.976 -0.2313  0.9749 -3.4579
17875TIP3    H275117   2.099   4.346  12.001 -0.7316  0.6999 -1.4979
17876TIP3   OH275118   1.415   0.449   2.566  0.1717  0.1397  0.4539
17876TIP3    H175119   1.327   0.465   2.601 -0.4929  1.6223 -1.6721
17876TIP3    H275120   1.417   0.498   2.484  3.1940  0.5610  0.6849
17877TIP3   OH275121   5.085   1.452   2.849 -0.0092  0.3459 -0.6015
17877TIP3    H175122   5.029   1.389   2.804 -1.6625  0.4350  1.1649
17877TIP3    H275123   5.026   1.527   2.866  0.7721  0.6524  0.8950
17878TIP3   OH275124   4.507   4.807   0.144 -0.1080 -0.2919 -0.1244
17878TIP3    H175125   4.567   4.809   0.069  1.6125  1.5518  1.2060
17878TIP3    H275126   4.524   4.723   0.186  0.5496 -0.3862 -0.5640
17879TIP3   OH275127   2.475   1.786   0.797 -0.4752 -0.3157 -0.1608
17879TIP3    H175128   2.417   1.713   0.775 -0.1319 -0.6209 -0.0610
17879TIP3    H275129   2.419   1.847   0.845 -0.6703 -0.6964  0.1050
17880TIP3   OH275130   6.392   0.201  12.534 -0.0583  0.0880 -0.1327
17880TIP3    H175131   6.325   0.254  12.491  0.3275  0.4302 -0.3214
17880TIP3    H275132   6.398   0.237  12.622  0.5991  0.7402 -0.4311
17881TIP3   OH275133   0.785   0.588   1.165 -0.7827 -0.3159  0.2477
17881TIP3    H175134   0.812   0.546   1.247 -0.8073  0.6346  0.7566
17881TIP3    H275135   0.821   0.531   1.097  0.4030 -0.4104  0.9152
17882TIP3   OH275136   1.624   6.758   4.393 -0.2929 -0.3189  0.2192
17882TIP3    H175137   1.608   6.687   4.455  0.2594  0.0113  0.7636
17882TIP3    H275138   1.549   6.757   4.335 -0.3302 -1.2976  0.2662
17883TIP3   OH275139   3.281   6.651   1.638 -0.0800 -0.2764  0.0975
17883TIP3    H175140   3.201   6.671   1.588 -1.5550 -2.1987  1.5135
17883TIP3    H275141   3.339   6.610   1.574  0.3593  2.2959 -1.2581
17884TIP3   OH275142   0.320   5.352   1.559 -0.3932  0.1105 -0.6397
17884TIP3    H175143   0.295   5.357   1.467 -1.7373 -0.2174 -0.3157
17884TIP3    H275144   0.285   5.268   1.589 -1.1657  0.8134  0.4989
17885TIP3   OH275145   0.599   6.709  13.587 -0.1109  0.1797 -0.2977
17885TIP3    H175146   0.691   6.728  13.601 -0.1828  0.4026 -0.1172
17885TIP3    H275147   0.583   6.731  13.495  0.0516 -0.0100 -0.3710
17886TIP3   OH275148   5.416   0.519   6.178 -0.1263  0.7713  0.5393
17886TIP3    H175149   5.460   0.602   6.198  1.0599 -0.2064  2.2136
17886TIP3    H275150   5.448   0.496   6.090 -0.1091  1.8347  0.2473
17887TIP3   OH275151   1.994   5.776   0.068 -0.0001  0.2876 -0.0969
17887TIP3    H175152   1.958   5.689   0.051  1.2213  0.0907 -1.9568
17887TIP3    H275153   1.950   5.833   0.005  2.0170  0.2411 -1.6517
17888TIP3   OH275154   5.363   4.706   6.286  0.4753 -0.2351  0.2631
17888TIP3    H175155   5.307   4.652   6.231  0.8966 -1.5471  1.0692
17888TIP3    H275156   5.418   4.643   6.333  0.8654  0.8921  1.3759
17889TIP3   OH275157   2.451   4.613   5.690  0.1051 -1.2451  0.1601
17889TIP3    H175158   2.386   4.673   5.725  2.0889  1.9960 -1.1996
17889TIP3    H275159   2.413   4.580   5.609 -0.2441 -0.0746 -0.1757
17890TIP3   OH275160   1.686   2.942  10.681  0.3135  0.2722 -0.0067
17890TIP3    H175161   1.771   2.986  10.681  0.4619  0.0741  1.6348
17890TIP3    H275162   1.707   2.850  10.694 -0.1223  0.1601 -0.1014
17891TIP3   OH275163   1.956   3.017  13.831 -0.1099  0.2150 -0.6115
17891TIP3    H175164   1.902   3.095  13.848 -0.8327 -0.4840  0.3575
17891TIP3    H275165   1.900   2.943  13.853  1.6974 -0.5391  1.9654
17892TIP3   OH275166   0.254   0.309  13.911 -0.7200  0.0390 -0.1426
17892TIP3    H175167   0.292   0.332  13.995  0.5431  1.4659 -1.0556
17892TIP3    H275168   0.177   0.255  13.933  1.2274 -2.1696  1.8155
17893TIP3   OH275169   0.834   6.641   2.470 -0.0154 -0.3082 -0.4468
17893TIP3    H175170   0.884   6.693   2.407 -2.2943  0.9126 -1.3591
17893TIP3    H275171   0.805   6.565   2.419  1.1536 -1.2135  0.1852
17894TIP3   OH275172   2.943   0.459  13.234 -0.1079  0.0807 -0.0359
17894TIP3    H175173   2.949   0.497  13.321 -1.3030  0.2814 -0.0149
17894TIP3    H275174   2.922   0.533  13.177 -0.3054 -0.1980 -0.3318
17895TIP3   OH275175   2.609   5.966  11.210 -0.2430 -0.5283 -0.6394
17895TIP3    H175176   2.588   6.021  11.134  2.8423  1.4238 -0.2775
17895TIP3    H275177   2.580   6.018  11.285  0.5676 -0.4183 -0.3865
17896TIP3   OH275178   6.090   5.825   4.663 -0.4496 -0.0778  0.6862
17896TIP3    H175179   6.176   5.787   4.682  1.3318  2.2418 -1.9859
17896TIP3    H275180   6.034   5.749   4.647  0.8898 -1.6780  2.9663
17897TIP3   OH275181   0.105   2.077   2.988 -0.2841 -0.2732  0.3654
17897TIP3    H175182   0.060   1.997   2.961  0.7251 -1.0687  0.9462
17897TIP3    H275183   0.114   2.068   3.083  0.4597  0.2072  0.3474
17898TIP3   OH275184   1.644   6.808   1.550 -0.2656 -0.0995 -0.3825
17898TIP3    H175185   1.672   6.772   1.466  1.6090 -0.7586  0.4759
17898TIP3    H275186   1.707   6.774   1.613 -0.5269  1.8729  1.0219
17899TIP3   OH275187   5.034   0.768   2.042  0.3206 -0.5678 -0.2050
17899TIP3    H175188   5.008   0.798   1.955 -1.0781  1.4637  0.8240
17899TIP3    H275189   5.081   0.842   2.080  0.2772 -1.1478  1.0233
17900TIP3   OH275190   6.667   0.782   2.869  0.2628 -0.3573  0.3006
17900TIP3    H175191   6.717   0.795   2.949 -0.4548 -0.0878  0.7161
17900TIP3    H275192   6.726   0.808   2.798  0.7166 -0.0912  0.7759
17901TIP3   OH275193   5.541   0.426   1.887 -0.5843 -0.3267  0.0689
17901TIP3    H175194   5.567   0.346   1.841 -1.3687 -0.3711 -0.3181
17901TIP3    H275195   5.489   0.475   1.823 -1.5436 -0.2996  0.8311
17902TIP3   OH275196   5.382   4.625   6.607 -0.2191  0.1331  0.1595
17902TIP3    H175197   5.360   4.551   6.663 -0.1440  0.5388  0.7358
17902TIP3    H275198   5.449   4.591   6.547 -1.8021 -0.8893 -1.1033
17903TIP3   OH275199   6.778   1.914  16.805  0.0766 -0.2330  0.0140
17903TIP3    H175200   6.798   1.967  16.727  1.9929 -0.1765  0.4880
17903TIP3    H275201   6.782   1.976  16.877  1.8040 -0.8764  0.5152
17904TIP3   OH275202   1.854   2.902  11.819  0.0864 -0.0033 -0.2216
17904TIP3    H175203   1.874   2.992  11.846 -1.0280  0.3819 -0.6491
17904TIP3    H275204   1.828   2.910  11.728 -1.2469 -0.5836  0.0900
17905TIP3   OH275205   4.524   3.248   0.607  0.3831  0.3183  0.0475
17905TIP3    H175206   4.505   3.277   0.697 -1.2625 -0.6008  0.0321
17905TIP3    H275207   4.534   3.330   0.558 -3.1821  1.0136  0.2029
17906TIP3   OH275208   3.659   4.834   6.063 -0.0262 -0.1682  0.4523
17906TIP3    H175209   3.745   4.803   6.032 -0.3914 -1.2124  0.4456
17906TIP3    H275210   3.599   4.762   6.041 -1.0302  0.8278 -0.1597
17907TIP3   OH275211   2.299   3.470  14.301 -0.0377  0.5994  0.1039
17907TIP3    H175212   2.209   3.465  14.268  0.3060  0.4517 -0.8262
17907TIP3    H275213   2.307   3.395  14.360 -0.3764  0.3468 -0.1685
17908TIP3   OH275214   1.019   1.698   2.460  0.2224 -0.6290  0.4033
17908TIP3    H175215   0.931   1.685   2.425  0.1760 -0.3481  0.4116
17908TIP3    H275216   1.071   1.628   2.421  0.0131 -0.7511  0.3396
17909TIP3   OH275217   3.161   2.209   0.380  0.1357  0.2373  0.3192
17909TIP3    H175218   3.096   2.280   0.378  0.1097  0.1919 -0.4873
17909TIP3    H275219   3.110   2.130   0.398 -0.0126  0.2278 -0.1331
17910TIP3   OH275220   2.806   0.156   0.786 -0.5857  0.2813 -0.0439
17910TIP3    H175221   2.884   0.206   0.810 -0.6437  1.2606 -1.6941
17910TIP3    H275222   2.821   0.069   0.821  0.9752  0.6214  0.2148
17911TIP3   OH275223   5.972   5.554   0.107 -0.3627 -0.0052  0.0385
17911TIP3    H175224   5.991   5.648   0.109  3.6253 -0.5855 -0.5860
17911TIP3    H275225   5.966   5.533   0.014  2.6062 -0.8022 -0.0760
17912TIP3   OH275226   2.095   5.295  15.051  0.6949  0.1063 -0.0432
17912TIP3    H175227   2.010   5.294  15.008  0.0247 -0.4142  1.2545
17912TIP3    H275228   2.128   5.384  15.036  0.3449  0.0289 -1.3429
17913TIP3   OH275229   1.491   5.699   0.328 -0.3371  0.4031  0.7298
17913TIP3    H175230   1.568   5.732   0.374  0.5226 -1.4446  0.7122
17913TIP3    H275231   1.421   5.704   0.393  0.6067 -1.1299  1.9441
17914TIP3   OH275232   4.168   0.007   5.290  0.2801 -0.3331  0.1009
17914TIP3    H175233   4.228  -0.055   5.250  0.0652 -0.5778  0.1600
17914TIP3    H275234   4.181   0.088   5.240  1.3550 -0.1039  0.7232
17915TIP3   OH275235   4.843   4.371   3.433  0.2995 -0.2916  0.1695
17915TIP3    H175236   4.801   4.286   3.448  0.2034 -0.5867 -1.5501
17915TIP3    H275237   4.816   4.396   3.345  0.2203  1.6180  0.6917
17916TIP3   OH275238   2.030   1.906  13.000  0.1147  0.3416 -0.2642
17916TIP3    H175239   2.020   1.853  13.079  1.5778 -0.0834 -0.3365
17916TIP3    H275240   2.097   1.971  13.024  2.2505 -1.1586 -1.7804
17917TIP3   OH275241   0.938   0.421  13.490 -0.6152 -0.3060  0.6638
17917TIP3    H175242   1.006   0.361  13.462  0.0892  0.1220  1.3918
17917TIP3    H275243   0.872   0.365  13.531 -0.3328 -0.6579  0.6450
17918TIP3   OH275244   5.177   6.351   2.880 -0.3025  0.4627  0.4873
17918TIP3    H175245   5.244   6.373   2.945  0.9877  1.1436 -1.0090
17918TIP3    H275246   5.135   6.272   2.915  0.7421  0.4720  1.8503
17919TIP3   OH275247   5.218   3.491   4.654 -0.2321  0.1991  0.1118
17919TIP3    H175248   5.213   3.586   4.644 -0.3188  0.0111 -2.0352
17919TIP3    H275249   5.260   3.460   4.574 -1.7626 -1.7020 -0.0428
17920TIP3   OH275250   2.333   4.807   3.645 -0.2381 -0.9288 -0.0078
17920TIP3    H175251   2.352   4.803   3.739 -0.5564 -0.5606  0.0728
17920TIP3    H275252   2.255   4.753   3.634  0.3753 -1.7943 -0.2185
17921TIP3   OH275253   5.700   2.423   3.011  0.4039  0.5768 -0.1239
17921TIP3    H175254   5.680   2.364   2.939 -1.4599  0.3691  0.5230
17921TIP3    H275255   5.729   2.365   3.082 -0.7792  0.4837  0.2933
17922TIP3   OH275256   2.676   0.330   2.660 -0.2412  0.1091  0.5785
17922TIP3    H175257   2.745   0.296   2.603 -1.6636  0.5122 -1.5082
17922TIP3    H275258   2.634   0.253   2.697  1.4732 -0.1366  2.1478
17923TIP3   OH275259   1.054   5.910  13.339  0.2328 -0.2440 -0.4255
17923TIP3    H175260   1.043   5.975  13.270  3.3934  0.7296 -0.1666
17923TIP3    H275261   1.042   5.958  13.420  3.3134  0.3693 -0.2069
17924TIP3   OH275262   0.369   4.522  14.680  0.1160  0.2307 -0.3428
17924TIP3    H175263   0.452   4.569  14.669  0.4319 -0.2342  0.0082
17924TIP3    H275264   0.387   4.458  14.749 -0.2192 -0.6086 -1.0171
17925TIP3   OH275265   6.055   1.710  13.500  0.6005  0.0547  0.2547
17925TIP3    H175266   5.984   1.764  13.466  0.5772 -0.2865 -0.2411
17925TIP3    H275267   6.135   1.760  13.482  0.4544  0.7434  1.3929
17926TIP3   OH275268   2.494   4.622   2.259 -0.1047  0.2129  0.4239
17926TIP3    H175269   2.455   4.592   2.176  1.0677  1.6780 -0.6996
17926TIP3    H275270   2.418   4.649   2.312 -0.8106  0.2913 -0.5930
17927TIP3   OH275271   5.572   1.817   3.405  0.6424  0.6585  0.1032
17927TIP3    H175272   5.580   1.809   3.500 -2.1566 -0.7037  0.3215
17927TIP3    H275273   5.581   1.728   3.373 -1.8475  0.5598 -0.5003
17928TIP3   OH275274   0.441   1.311  12.514 -0.0560  0.1178 -0.4803
17928TIP3    H175275   0.383   1.235  12.518  0.8298 -0.6421 -1.5331
17928TIP3    H275276   0.399   1.376  12.571 -2.7743  0.1938 -2.3392
17929TIP3   OH275277   0.819   3.848   1.688  0.6740 -0.3818 -0.5739
17929TIP3    H175278   0.776   3.933   1.697  1.3846  0.1005 -1.5191
17929TIP3    H275279   0.897   3.855   1.744  1.5875  0.2155 -1.8417
17930TIP3   OH275280   4.440   5.358  15.490  0.3022  0.3161  0.4768
17930TIP3    H175281   4.532   5.380  15.478 -0.0048  2.5972  1.7967
17930TIP3    H275282   4.432   5.334  15.582 -0.4170 -0.0450  0.3322
17931TIP3   OH275283   1.652   5.758  13.597 -0.0664  0.1658 -0.4928
17931TIP3    H175284   1.608   5.690  13.649  1.9822 -0.3661  0.6513
17931TIP3    H275285   1.666   5.717  13.511 -1.7172  0.3367 -0.8698
17932TIP3   OH275286   5.090   5.972   0.001 -0.4118 -0.4514  0.0664
17932TIP3    H175287   5.140   5.977  -0.081  0.8251 -0.4156  0.8118
17932TIP3    H275288   5.125   5.895   0.046 -1.8895 -1.1653  0.0683
17933TIP3   OH275289   1.453   3.945   2.001  0.0589  1.0769 -0.5451
17933TIP3    H175290   1.505   3.998   2.061  0.7026  2.2717 -2.0844
17933TIP3    H275291   1.365   3.945   2.039  0.8071  0.2881  1.2969
17934TIP3   OH275292   1.694   2.551  11.588 -0.0126 -0.0379 -0.0974
17934TIP3    H175293   1.789   2.558  11.588 -0.0767  1.6525  1.7794
17934TIP3    H275294   1.673   2.511  11.672 -0.9146 -2.6268 -1.4426
17935TIP3   OH275295   4.435   0.816   0.774 -0.4205  0.3105 -0.4002
17935TIP3    H175296   4.495   0.770   0.715  1.2528  3.0747 -1.0462
17935TIP3    H275297   4.489   0.837   0.851 -1.7854 -0.7349  0.8965
17936TIP3   OH275298   4.523   0.592  17.179  0.2576  0.3731 -0.3896
17936TIP3    H175299   4.511   0.512  17.230  0.7507  0.1603 -0.6041
17936TIP3    H275300   4.469   0.579  17.101  0.2071  0.3205 -0.3462
17937TIP3   OH275301   5.342   0.155   0.188  0.0747 -0.4475  0.0041
17937TIP3    H175302   5.408   0.127   0.252  0.7466  0.0802 -0.4460
17937TIP3    H275303   5.325   0.076   0.136  0.9375 -0.4050 -0.3711
17938TIP3   OH275304   0.485   5.677  13.020  0.5939 -0.4877 -0.2703
17938TIP3    H175305   0.511   5.691  12.929 -2.0558 -0.3648 -1.0854
17938TIP3    H275306   0.409   5.618  13.014  1.1149 -1.4992  1.9668
17939TIP3   OH275307   2.486   5.868   4.600  0.6072 -0.0259 -0.1439
17939TIP3    H175308   2.405   5.861   4.649  2.1011 -2.5807  2.2406
17939TIP3    H275309   2.515   5.778   4.589  2.8323  0.7694 -1.4594
17940TIP3   OH275310   2.656   5.810  13.860  0.1095 -0.4290  0.3246
17940TIP3    H175311   2.596   5.761  13.804  0.9389  0.5416 -1.4625
17940TIP3    H275312   2.732   5.752  13.870 -0.1646 -0.7299  0.7631
17941TIP3   OH275313   1.875   1.705   0.194 -0.0363 -0.0803 -0.4054
17941TIP3    H175314   1.946   1.743   0.245 -1.4077  1.4313  0.4540
17941TIP3    H275315   1.913   1.691   0.107  1.1683  1.1474 -0.1000
17942TIP3   OH275316   2.501   5.582   2.812  0.5312 -0.0387 -0.2866
17942TIP3    H175317   2.553   5.514   2.769  1.0630  0.6060 -0.6789
17942TIP3    H275318   2.453   5.535   2.880  0.1803 -0.9623 -1.1409
17943TIP3   OH275319   0.796   0.585   0.687 -0.3883  0.2985 -0.4150
17943TIP3    H175320   0.859   0.656   0.689 -0.6270  0.4975  1.1056
17943TIP3    H275321   0.767   0.581   0.596  0.5295  1.3230 -0.7712
17944TIP3   OH275322   0.601   0.915   5.484 -0.9683  0.6191 -0.0732
17944TIP3    H175323   0.553   0.839   5.517 -0.2524 -0.6277 -1.7301
17944TIP3    H275324   0.580   0.917   5.390  3.7280 -1.3282 -1.4496
17945TIP3   OH275325   3.703   5.545  16.899  0.8002 -0.4455  0.0870
17945TIP3    H175326   3.627   5.599  16.877  1.0773 -0.7010 -1.5990
17945TIP3    H275327   3.776   5.587  16.855  1.6017 -0.4032  1.4074
17946TIP3   OH275328   6.811   2.002  11.537  0.3333 -0.6862 -1.0377
17946TIP3    H175329   6.731   2.035  11.498 -0.0152 -1.5814 -1.1129
17946TIP3    H275330   6.796   2.005  11.631  0.7079  0.3294 -0.9978
17947TIP3   OH275331   5.531   1.081  13.838 -0.0279  0.2924 -0.1658
17947TIP3    H175332   5.436   1.066  13.837 -0.2963  0.7778 -5.1605
17947TIP3    H275333   5.569   0.997  13.814  0.9251  0.1289  1.7117
17948TIP3   OH275334   5.793   0.297   3.751  0.5368  0.3706  0.9247
17948TIP3    H175335   5.715   0.244   3.767  1.3694 -1.7016 -1.2363
17948TIP3    H275336   5.798   0.303   3.655  2.5318  1.2113  1.0411
17949TIP3   OH275337   3.833   5.197  14.208 -0.2864  0.5035  0.0044
17949TIP3    H175338   3.745   5.187  14.171 -0.6207 -0.0514  0.9255
17949TIP3    H275339   3.818   5.233  14.295  0.3989  0.3070  0.2064
17950TIP3   OH275340   6.290   3.672   1.428  0.3270 -0.3024 -0.0391
17950TIP3    H175341   6.333   3.755   1.404 -0.5471 -0.3556 -2.0085
17950TIP3    H275342   6.220   3.698   1.488  0.7177  0.2590  0.1839
17951TIP3   OH275343   1.329   4.704   3.220 -0.0250 -0.1725  0.1656
17951TIP3    H175344   1.340   4.768   3.291 -1.6151 -0.7540  0.9963
17951TIP3    H275345   1.328   4.619   3.264 -1.0375 -0.5443 -0.5435
17952TIP3   OH275346   3.745   6.744   1.076 -0.3181  0.1166 -0.2430
17952TIP3    H175347   3.716   6.819   1.024 -2.1511 -0.0045  0.4957
17952TIP3    H275348   3.800   6.781   1.144 -0.5645  0.7057 -0.3594
17953TIP3   OH275349   6.248   1.324   5.636 -0.3064 -0.0692  0.3473
17953TIP3    H175350   6.289   1.408   5.655 -0.0279 -0.0781 -0.1744
17953TIP3    H275351   6.234   1.325   5.541  1.2474 -1.2781  0.0519
17954TIP3   OH275352   4.935   1.042   4.916  0.0146 -0.5101 -0.2142
17954TIP3    H175353   4.846   1.070   4.892  0.1367 -1.3238 -1.7293
17954TIP3    H275354   4.972   1.117   4.961 -0.7884  0.5613 -1.2784
17955TIP3   OH275355   4.012   2.350   5.773 -0.1018 -0.5080  0.2291
17955TIP3    H175356   3.944   2.357   5.840 -0.0629 -1.6215  0.4101
17955TIP3    H275357   4.092   2.334   5.822  0.0314 -0.7206 -0.0544
17956TIP3   OH275358   4.713   3.032  17.202  0.4083  0.1700 -0.8455
17956TIP3    H175359   4.718   3.000  17.112  0.7765  0.3521 -0.8948
17956TIP3    H275360   4.621   3.024  17.226  0.7643 -2.9510 -0.1161
17957TIP3   OH275361   0.129   4.803  12.594  0.3157 -0.0855  0.4548
17957TIP3    H175362   0.056   4.855  12.559 -0.1175  0.9971  2.7438
17957TIP3    H275363   0.193   4.800  12.523 -0.6406  1.6578 -0.5519
17958TIP3   OH275364   2.474   0.514   3.658 -0.6199 -0.5204  0.4236
17958TIP3    H175365   2.495   0.607   3.659 -0.2278 -0.6102  0.6097
17958TIP3    H275366   2.471   0.490   3.751 -1.0527 -0.6190  0.3853
17959TIP3   OH275367   4.456   1.887   2.523 -0.1122 -0.1397 -0.0812
17959TIP3    H175368   4.373   1.887   2.572 -0.3468  0.0372 -0.4756
17959TIP3    H275369   4.484   1.978   2.526  0.2182 -0.2504  0.2972
17960TIP3   OH275370   0.490   4.149   2.398 -0.6258  0.2445  0.1492
17960TIP3    H175371   0.540   4.230   2.385  1.5590 -1.1135 -0.3546
17960TIP3    H275372   0.520   4.116   2.483  1.1859 -1.7677 -1.1794
17961TIP3   OH275373   6.063   2.323  12.513  0.4347 -0.1438 -0.2746
17961TIP3    H175374   6.094   2.392  12.571  1.6885  1.1140 -2.3303
17961TIP3    H275375   6.131   2.256  12.516 -0.1585 -0.7248  0.7140
17962TIP3   OH275376   3.747   0.813   5.735 -0.1913  0.2346  0.0043
17962TIP3    H175377   3.823   0.824   5.792  0.0695 -0.5334 -0.1717
17962TIP3    H275378   3.763   0.871   5.661  0.6542 -0.5501 -0.4437
17963TIP3   OH275379   5.562   2.914  14.596  0.1688 -0.1921 -0.3660
17963TIP3    H175380   5.568   3.005  14.625  2.0958  0.0589 -1.3708
17963TIP3    H275381   5.543   2.920  14.503 -0.9830 -0.8768 -0.1952
17964TIP3   OH275382   1.171   4.206   6.188 -0.2652 -0.1501  0.8793
17964TIP3    H175383   1.127   4.121   6.191  2.0704 -1.5615 -1.2314
17964TIP3    H275384   1.262   4.187   6.210  0.7814  1.3299 -1.7181
17965TIP3   OH275385   1.145   2.028  10.588 -0.3775  0.2736 -0.0529
17965TIP3    H175386   1.155   1.959  10.653  1.4913  0.2485 -0.3116
17965TIP3    H275387   1.191   1.996  10.510  1.7713  2.2990  0.2517
17966TIP3   OH275388   5.597   1.624   4.643  0.2411  0.7650  0.1880
17966TIP3    H175389   5.681   1.595   4.607 -0.2260  0.5190 -0.7289
17966TIP3    H275390   5.538   1.550   4.630 -0.8014  1.8532 -1.5920
17967TIP3   OH275391   0.911   5.966   2.692  0.6811  0.0182  0.2796
17967TIP3    H175392   0.997   5.996   2.663  0.2910  1.6140  0.6883
17967TIP3    H275393   0.899   5.881   2.649  1.2157  1.1009 -2.1709
17968TIP3   OH275394   2.530   5.140  12.819  0.3545  0.1456 -0.1947
17968TIP3    H175395   2.552   5.206  12.754 -0.5218  0.7270  0.0854
17968TIP3    H275396   2.515   5.189  12.900 -0.8055 -0.3252 -0.1005
17969TIP3   OH275397   1.327   5.784  13.460 -0.4345 -0.1612  0.4026
17969TIP3    H175398   1.370   5.857  13.505 -0.4048  0.7861 -1.0876
17969TIP3    H275399   1.250   5.823  13.420  0.8293 -0.3507 -2.4207
17970TIP3   OH275400   2.894   1.653  14.245 -0.7111 -0.1748 -0.3545
17970TIP3    H175401   2.936   1.706  14.178 -0.1012 -0.1545  0.0402
17970TIP3    H275402   2.947   1.666  14.324 -1.8531  0.4269  0.3574
17971TIP3   OH275403   5.057   4.998  13.119 -0.4457  0.0853 -0.9376
17971TIP3    H175404   5.134   4.990  13.063 -1.2989  0.2765 -2.1983
17971TIP3    H275405   5.054   5.091  13.142  0.2054 -0.0879 -0.0982
17972TIP3   OH275406   4.883   1.275   4.604 -0.0355  0.4503 -0.1381
17972TIP3    H175407   4.924   1.360   4.621  0.9193  0.6228 -2.8307
17972TIP3    H275408   4.945   1.211   4.638  1.2515  0.7991 -1.6574
17973TIP3   OH275409   1.606   4.262  17.089 -0.1370  1.0598  0.1462
17973TIP3    H175410   1.572   4.206  17.159 -1.8622 -1.2968 -2.3439
17973TIP3    H275411   1.530   4.310  17.058  0.6500  2.2407  0.0009
17974TIP3   OH275412   2.823   5.082  16.314 -0.0113  0.3980 -0.0858
17974TIP3    H175413   2.829   5.137  16.392 -0.3573  1.5160 -0.8205
17974TIP3    H275414   2.740   5.034  16.325 -1.2016  2.2011 -0.7647
17975TIP3   OH275415   6.770   5.229   1.306 -0.6791  0.1215 -0.2886
17975TIP3    H175416   6.718   5.150   1.292 -0.7774  0.0645  0.3597
17975TIP3    H275417   6.737   5.291   1.242 -0.2107 -0.5453 -1.1862
17976TIP3   OH275418   6.819   2.603   6.526 -0.5080  0.0055  0.1656
17976TIP3    H175419   6.911   2.580   6.543 -0.0871 -0.1395 -2.0163
17976TIP3    H275420   6.769   2.534   6.571  0.4132  0.1670  1.5083
17977TIP3   OH275421   6.544   5.029   1.541 -0.4693  0.2622 -0.0604
17977TIP3    H175422   6.595   5.002   1.464 -0.4860 -2.7969  0.8714
17977TIP3    H275423   6.459   4.987   1.530 -0.3878 -0.4720  1.7035
17978TIP3   OH275424   1.283   2.092   5.078  0.3719 -0.2910  0.5675
17978TIP3    H175425   1.356   2.146   5.049 -0.5435  0.5795 -0.1745
17978TIP3    H275426   1.280   2.103   5.173  0.3365  0.7823  0.4458
17979TIP3   OH275427   5.242   3.166   1.837  0.5677 -0.1986  0.4471
17979TIP3    H175428   5.197   3.247   1.858  0.1071 -0.4670  0.4947
17979TIP3    H275429   5.335   3.187   1.850  0.4065  0.1008  1.1928
17980TIP3   OH275430   2.912   1.841   0.864  0.2273  0.2553 -0.1228
17980TIP3    H175431   2.851   1.902   0.905 -0.4062  2.4284 -3.8073
17980TIP3    H275432   2.857   1.782   0.813  1.0324  0.3657 -1.1574
17981TIP3   OH275433   6.529   2.491  11.770  0.2967  0.0644  0.0780
17981TIP3    H175434   6.592   2.419  11.769  3.0476  2.3007  0.2537
17981TIP3    H275435   6.482   2.483  11.686  0.1149 -2.1851  0.3441
17982TIP3   OH275436   3.258   4.543  16.533  0.2503 -0.0488 -0.4605
17982TIP3    H175437   3.249   4.607  16.462 -1.1782 -0.9699 -1.1553
17982TIP3    H275438   3.170   4.534  16.569  0.8647  0.0378  1.1417
17983TIP3   OH275439   4.427   0.238   2.185 -0.2630  0.3254 -0.7820
17983TIP3    H175440   4.371   0.168   2.222  1.4994 -0.7624 -0.0366
17983TIP3    H275441   4.449   0.206   2.098 -0.5339  0.5918 -0.9471
17984TIP3   OH275442   4.935   2.153  14.716  0.4338  0.0630 -0.2576
17984TIP3    H175443   5.028   2.162  14.698  0.5816 -1.1586 -0.1556
17984TIP3    H275444   4.892   2.210  14.652  1.2531  0.9888 -0.0092
17985TIP3   OH275445   6.003   3.670  15.248  0.1107  0.3469 -0.3487
17985TIP3    H175446   5.929   3.617  15.218  0.2869  0.5462 -1.1757
17985TIP3    H275447   6.021   3.729  15.175 -1.4966  3.0981  1.3007
17986TIP3   OH275448   6.692   2.607  12.508  0.7170  0.3150 -0.0931
17986TIP3    H175449   6.711   2.701  12.514  2.0659  0.0819 -0.3546
17986TIP3    H275450   6.703   2.587  12.415  2.4646 -0.4730  0.2406
17987TIP3   OH275451   5.758   1.830   1.191  0.1546 -0.1637 -0.2415
17987TIP3    H175452   5.767   1.917   1.152 -0.1743 -0.8127 -1.8791
17987TIP3    H275453   5.670   1.802   1.167  0.8554 -1.6291 -1.3098
17988TIP3   OH275454   4.768   4.933   1.821 -0.3927 -0.7623  0.6075
17988TIP3    H175455   4.696   4.871   1.835  0.1678 -1.4689  0.4031
17988TIP3    H275456   4.797   4.957   1.909 -1.0527 -0.2444  0.7003
17989TIP3   OH275457   4.670   0.210   1.100 -0.3697  0.4218 -0.0078
17989TIP3    H175458   4.627   0.179   1.021  0.5182  0.5873 -0.5778
17989TIP3    H275459   4.634   0.297   1.115 -0.1751  0.5937 -0.5272
17990TIP3   OH275460   3.211   4.258  12.080 -0.3608  0.1854 -0.4478
17990TIP3    H175461   3.132   4.233  12.128 -1.9002  1.4220 -2.1973
17990TIP3    H275462   3.225   4.350  12.102  2.3909 -0.6456  2.0888
17991TIP3   OH275463   6.256   5.480  15.523  0.1935 -0.0097  0.5979
17991TIP3    H175464   6.292   5.552  15.473  0.5140 -0.2906  0.4186
17991TIP3    H275465   6.280   5.402  15.474 -3.6146 -0.1156 -1.4702
17992TIP3   OH275466   3.506   6.041   1.711 -0.2193 -0.0521  0.0733
17992TIP3    H175467   3.510   6.010   1.620 -0.5480 -0.8920  0.3359
17992TIP3    H275468   3.427   6.001   1.746  0.6472 -0.9021  1.1394
17993TIP3   OH275469   3.069   5.127   2.970  0.5447  0.2721  0.2526
17993TIP3    H175470   3.110   5.146   3.054  0.2760 -0.9100  0.6640
17993TIP3    H275471   3.009   5.055   2.987 -1.2405  1.5201 -0.4938
17994TIP3   OH275472   5.808   6.275   2.430 -0.3706 -0.2948 -0.2522
17994TIP3    H175473   5.731   6.256   2.376  0.2675 -1.4226 -0.7948
17994TIP3    H275474   5.807   6.207   2.498  0.9591 -1.2631 -1.1587
17995TIP3   OH275475   3.073   1.021  11.521 -0.3294  0.1902  0.0160
17995TIP3    H175476   3.133   0.954  11.553  1.7813  2.1503  0.4478
17995TIP3    H275477   3.013   0.975  11.463  1.2784 -1.9869 -0.0218
17996TIP3   OH275478   5.618   5.448   4.779 -0.4714  0.0551 -0.0543
17996TIP3    H175479   5.539   5.413   4.737 -0.2475  2.2295 -2.5896
17996TIP3    H275480   5.588   5.480   4.864 -2.5016  1.1604 -1.0899
17997TIP3   OH275481   2.408   0.847   5.390  0.4323 -0.3171 -0.3717
17997TIP3    H175482   2.368   0.928   5.421 -0.4473 -0.4107 -1.2330
17997TIP3    H275483   2.493   0.844   5.435 -0.9544 -0.6972  2.4101
17998TIP3   OH275484   4.831   1.638  11.109  0.4172  0.4130  0.0118
17998TIP3    H175485   4.757   1.579  11.126 -2.3968  3.2826 -1.2933
17998TIP3    H275486   4.848   1.630  11.016  1.5096  0.1446  0.2122
17999TIP3   OH275487   1.511   1.830  13.689  0.6045  0.4686 -0.6235
17999TIP3    H175488   1.421   1.852  13.715  0.1052 -0.2674 -1.6657
17999TIP3    H275489   1.513   1.846  13.594  1.3842 -0.1609 -0.7176
18000TIP3   OH275490   1.072   5.013   1.488  0.3108 -0.2563 -0.2977
18000TIP3    H175491   0.988   5.038   1.527  0.6991 -0.8916  1.0034
18000TIP3    H275492   1.067   5.045   1.398 -0.9984  0.4391 -0.0064
18001TIP3   OH275493   6.245   0.889   1.128  0.1462 -0.5163  0.2171
18001TIP3    H175494   6.231   0.885   1.033 -1.1982 -1.4564  0.4345
18001TIP3    H275495   6.277   0.802   1.152 -0.3323 -0.5514  0.7421
18002TIP3   OH275496   1.344   5.354  14.604  0.4152 -0.1367  0.3245
18002TIP3    H175497   1.302   5.269  14.615  0.0488 -0.1045 -0.7196
18002TIP3    H275498   1.277   5.408  14.561  1.1722  0.2060 -0.4519
18003TIP3   OH275499   2.152   1.734   2.356 -0.1292  0.2449 -0.1033
18003TIP3    H175500   2.176   1.658   2.303 -1.7467 -1.3106  1.2716
18003TIP3    H275501   2.072   1.768   2.315  0.4581  1.0881 -0.5753
18004TIP3   OH275502   3.886   6.238  17.145  0.7162 -0.1288 -0.2689
18004TIP3    H175503   3.976   6.218  17.121 -0.1957 -1.2447 -3.1801
18004TIP3    H275504   3.844   6.152  17.155 -0.1262  0.3642  0.6183
18005TIP3   OH275505   6.078   0.405  13.744  0.1208  0.4017  0.0421
18005TIP3    H175506   6.135   0.418  13.668 -0.6114  1.9090 -0.2800
18005TIP3    H275507   6.138   0.407  13.819  1.0141 -2.2657 -0.4867
18006TIP3   OH275508   2.840   5.831  16.302 -0.2953  0.0367  0.2004
18006TIP3    H175509   2.897   5.880  16.243 -0.7828  1.0970  0.5939
18006TIP3    H275510   2.831   5.887  16.379 -1.0976 -0.5449  0.5396
18007TIP3   OH275511   1.329   2.017  12.487 -0.2805 -0.3553 -0.3583
18007TIP3    H175512   1.258   2.047  12.430 -0.7315  1.9652  1.2881
18007TIP3    H275513   1.369   1.944  12.439 -2.8387 -0.8209 -1.9853
18008TIP3   OH275514   5.110   6.384   1.683 -0.6770  0.2134  0.2777
18008TIP3    H175515   5.079   6.464   1.641  0.1510 -0.3053 -1.3837
18008TIP3    H275516   5.129   6.410   1.773 -0.7499  1.7878 -0.1391
18009TIP3   OH275517   1.927   3.681  14.342  0.1082 -0.3770 -0.0912
18009TIP3    H175518   1.917   3.776  14.336 -1.5825 -0.4875  0.4959
18009TIP3    H275519   2.003   3.669  14.398  2.4328  0.5870 -2.7999
18010TIP3   OH275520   3.460   4.644   5.147  0.1970  0.0572  0.4425
18010TIP3    H175521   3.455   4.668   5.240  1.2793 -0.3107  0.6096
18010TIP3    H275522   3.418   4.558   5.142 -1.0393  0.6397  0.3474
18011TIP3   OH275523   5.341   6.794  11.019  0.0769  0.4603  0.5542
18011TIP3    H175524   5.322   6.716  11.071 -3.6479  0.3006 -0.7192
18011TIP3    H275525   5.434   6.787  10.997  0.6145 -1.8933  3.1214
18012TIP3   OH275526   2.893   2.251  12.319 -0.8579 -0.4943  0.6475
18012TIP3    H175527   2.989   2.246  12.324 -0.7357  1.6878  1.7484
18012TIP3    H275528   2.871   2.205  12.239  1.2663  0.2137 -0.4216
18013TIP3   OH275529   5.529   3.683   2.352 -0.7803  0.1435 -0.2238
18013TIP3    H175530   5.596   3.679   2.421  0.7534 -0.2450 -1.6679
18013TIP3    H275531   5.472   3.608   2.370 -0.4384  0.0789  0.6377
18014TIP3   OH275532   2.571   3.307  15.646 -0.2765  0.0390  0.3630
18014TIP3    H175533   2.649   3.356  15.671 -0.6489  0.4062  0.8293
18014TIP3    H275534   2.579   3.223  15.692 -1.4394  1.0776  2.6221
18015TIP3   OH275535   6.351   6.592  11.228 -0.0889 -0.4777 -0.3024
18015TIP3    H175536   6.270   6.579  11.278 -0.0156 -0.7902 -0.2641
18015TIP3    H275537   6.325   6.585  11.136 -0.1562 -0.2815 -0.2985
18016TIP3   OH275538   2.735   6.231   1.319  0.4379  0.0106 -0.6208
18016TIP3    H175539   2.758   6.297   1.384 -0.5448 -0.7473  0.5326
18016TIP3    H275540   2.813   6.176   1.312  0.7818  0.4877 -0.5892
18017TIP3   OH275541   3.146   0.092  12.192  0.3512 -0.1757 -0.8686
18017TIP3    H175542   3.104   0.088  12.106 -3.7596 -0.9052  0.9591
18017TIP3    H275543   3.151   0.185  12.212  2.0336  0.0467 -2.1019
18018TIP3   OH275544   3.256   5.892  13.666  0.7739 -0.0498  0.3219
18018TIP3    H175545   3.332   5.945  13.689 -0.4556  1.0569  2.1726
18018TIP3    H275546   3.198   5.952  13.618  0.8481 -0.7411 -0.6532
18019TIP3   OH275547   5.545   4.698  16.806  0.6305 -0.6518 -0.7948
18019TIP3    H175548   5.527   4.667  16.718  0.4959  0.4748 -1.1809
18019TIP3    H275549   5.629   4.658  16.829  1.7817  0.7590 -2.3022
18020TIP3   OH275550   5.629   0.701  11.247  1.0683 -0.0621 -0.2440
18020TIP3    H175551   5.565   0.691  11.318 -0.8393  1.2667 -1.6768
18020TIP3    H275552   5.623   0.621  11.197 -1.4880  1.0149 -1.8461
18021TIP3   OH275553   4.862   2.880   4.939  0.0853 -0.0106 -0.4628
18021TIP3    H175554   4.824   2.839   5.016 -0.3178  2.0935  0.5434
18021TIP3    H275555   4.885   2.808   4.881 -1.3520 -1.5543  0.8163
18022TIP3   OH275556   1.269   6.717  16.289  0.1583  0.2404 -0.0222
18022TIP3    H175557   1.360   6.692  16.305 -0.4292 -0.2882  3.4386
18022TIP3    H275558   1.256   6.796  16.342 -1.2124  0.7449 -1.0401
18023TIP3   OH275559   1.130   1.703   3.292 -0.3550 -0.7881  0.3130
18023TIP3    H175560   1.109   1.651   3.215  0.4594  0.2077 -0.6223
18023TIP3    H275561   1.060   1.683   3.355 -2.2553 -0.0273 -1.4491
18024TIP3   OH275562   5.551   4.202  13.800  0.2612 -0.4445 -0.2236
18024TIP3    H175563   5.517   4.266  13.738  0.6243  0.6193  0.6293
18024TIP3    H275564   5.538   4.117  13.758 -2.0919  0.0177 -0.5383
18025TIP3   OH275565   3.261   4.382   3.745 -0.2637 -0.4436  0.5188
18025TIP3    H175566   3.241   4.373   3.838  0.0292 -1.1800  0.5149
18025TIP3    H275567   3.351   4.416   3.744 -0.0847 -0.9174  0.5003
18026TIP3   OH275568   1.562   4.805   0.593 -0.2126 -0.1986  0.3785
18026TIP3    H175569   1.595   4.838   0.509 -1.8464  1.4238  0.3136
18026TIP3    H275570   1.552   4.711   0.580  1.0907 -0.2218 -0.6868
18027TIP3   OH275571   2.179   0.932   1.470  0.1959 -0.5377  0.4722
18027TIP3    H175572   2.138   0.872   1.532 -0.2392 -1.0725 -0.3172
18027TIP3    H275573   2.261   0.888   1.446  0.3303 -0.3632  0.6087
18028TIP3   OH275574   5.536   0.820  12.514  0.0318 -0.6821 -0.3442
18028TIP3    H175575   5.494   0.906  12.525 -0.1393 -0.7090 -0.7810
18028TIP3    H275576   5.466   0.763  12.484  0.4318 -0.6690 -1.3242
18029TIP3   OH275577   2.071   5.392  15.947 -0.4452  0.3109 -0.5100
18029TIP3    H175578   2.103   5.308  15.980 -3.8069 -0.6704  0.6971
18029TIP3    H275579   2.132   5.415  15.878  1.8979 -1.9820  0.5991
18030TIP3   OH275580   1.273   2.297   0.155  0.2942  0.6862 -0.0347
18030TIP3    H175581   1.182   2.311   0.183  1.1368  3.9425  1.5539
18030TIP3    H275582   1.294   2.374   0.103  1.5603 -1.0906 -2.3266
18031TIP3   OH275583   0.568   4.426   3.730 -0.0058 -0.1531  0.0400
18031TIP3    H175584   0.576   4.364   3.802 -0.7976 -0.5827 -0.2201
18031TIP3    H275585   0.641   4.486   3.741 -0.4875  0.2025  1.5942
18032TIP3   OH275586   0.950   4.517  12.290  0.6973  0.2316  0.4126
18032TIP3    H175587   0.966   4.423  12.287 -1.2848 -0.1581 -2.0783
18032TIP3    H275588   1.018   4.555  12.233  0.3784  0.0533 -0.0974
18033TIP3   OH275589   4.481   1.522   3.698 -0.0853 -0.1704 -0.2752
18033TIP3    H175590   4.442   1.481   3.620 -0.4965 -2.4067  1.0056
18033TIP3    H275591   4.430   1.601   3.711 -0.0819  0.2046 -2.1919
18034TIP3   OH275592   3.282   5.463   5.705 -0.1297 -0.4039  0.2519
18034TIP3    H175593   3.214   5.435   5.644 -1.5657  0.8256  1.1992
18034TIP3    H275594   3.295   5.387   5.762  0.2964 -1.1149 -0.7605
18035TIP3   OH275595   3.055   5.035  13.085  0.2378  0.3548 -0.0286
18035TIP3    H175596   3.055   5.130  13.090 -1.0666  0.3715  0.0789
18035TIP3    H275597   3.005   5.015  13.006 -1.7570 -0.2315  1.2858
18036TIP3   OH275598   5.458   6.430   1.495  0.0428 -0.4212  0.5806
18036TIP3    H175599   5.390   6.367   1.519  0.8224 -0.8289  1.8093
18036TIP3    H275600   5.410   6.506   1.462 -1.0521 -0.4928  1.9278
18037TIP3   OH275601   6.367   4.149  16.589  0.1566  0.6529 -0.2489
18037TIP3    H175602   6.299   4.213  16.568  1.0247  2.1758  1.3186
18037TIP3    H275603   6.368   4.089  16.515 -2.4240  0.9699 -0.6025
18038TIP3   OH275604   5.559   1.874   5.780  0.0916 -0.3061 -0.1589
18038TIP3    H175605   5.633   1.876   5.721 -0.3058 -1.2694 -0.7092
18038TIP3    H275606   5.509   1.797   5.754 -1.1429  0.3554  0.1476
18039TIP3   OH275607   0.940   4.324   3.913  0.1482  0.1940 -0.4974
18039TIP3    H175608   0.909   4.284   3.832  1.3996  0.1783 -0.9914
18039TIP3    H275609   0.900   4.271   3.982  0.3923 -0.8432 -1.1225
18040TIP3   OH275610   0.057   4.948  11.210  0.3716 -0.1536  0.3864
18040TIP3    H175611   0.146   4.920  11.230 -0.2454 -3.1584 -0.5645
18040TIP3    H275612   0.051   4.945  11.115 -0.1386  2.3684  0.2538
18041TIP3   OH275613   1.239   4.199   5.145  0.2930 -0.3715  0.1380
18041TIP3    H175614   1.215   4.223   5.235 -0.2327 -0.5808  0.0595
18041TIP3    H275615   1.193   4.116   5.130 -1.2655  0.6358 -1.0011
18042TIP3   OH275616   6.166   0.032  15.375  0.5667 -0.1939 -0.1251
18042TIP3    H175617   6.194   0.016  15.285  0.3752  0.6557 -0.3511
18042TIP3    H275618   6.107   0.108  15.368  1.2922  0.4792  0.8224
18043TIP3   OH275619   6.574   4.453  16.786 -0.0990 -0.0224 -0.2989
18043TIP3    H175620   6.630   4.488  16.856 -1.7662  0.3061  0.9377
18043TIP3    H275621   6.558   4.362  16.812 -1.1649  0.2574  0.0581
18044TIP3   OH275622   5.392   3.545   0.561 -0.5427 -0.0289  0.2249
18044TIP3    H175623   5.432   3.493   0.491  0.6079  0.4760  0.4805
18044TIP3    H275624   5.331   3.603   0.516  0.4770  0.5670 -0.4176
18045TIP3   OH275625   4.419   0.236  12.856  1.0104 -0.2775 -0.3812
18045TIP3    H175626   4.361   0.312  12.860  1.1971 -0.1724  1.9154
18045TIP3    H275627   4.502   0.272  12.822  0.6086  0.1961 -0.8744
18046TIP3   OH275628   5.446   4.670   0.419 -0.9257 -0.2915 -0.4140
18046TIP3    H175629   5.527   4.712   0.448 -0.9564 -0.7762  0.4243
18046TIP3    H275630   5.387   4.742   0.399 -0.2256  0.0720 -1.2563
18047TIP3   OH275631   0.460   0.665  12.575 -0.6495 -0.0769  0.0998
18047TIP3    H175632   0.414   0.744  12.545  0.5423  0.4045 -0.5568
18047TIP3    H275633   0.546   0.671  12.533 -0.1859 -1.2218  0.8497
18048TIP3   OH275634   5.847   2.572  17.102 -0.2069  0.6486 -0.2653
18048TIP3    H175635   5.903   2.529  17.166  0.2902  3.7393  1.5361
18048TIP3    H275636   5.902   2.580  17.024  0.7227  0.7449  0.3898
18049TIP3   OH275637   2.789   3.227  11.620 -0.0221  0.1437 -0.1284
18049TIP3    H175638   2.795   3.131  11.623 -1.7847 -0.0683 -1.6286
18049TIP3    H275639   2.860   3.253  11.562 -0.0672 -0.3359 -0.4061
18050TIP3   OH275640   0.304   1.199  17.088 -0.3466 -0.6021  0.5869
18050TIP3    H175641   0.310   1.290  17.116 -1.6927 -0.8161  1.6495
18050TIP3    H275642   0.265   1.203  17.000  4.3032  0.0960 -1.7658
18051TIP3   OH275643   0.412   4.376  16.950  0.2312 -0.7539  0.0958
18051TIP3    H175644   0.332   4.356  16.998  1.1397  0.2917  2.1922
18051TIP3    H275645   0.403   4.330  16.867 -1.6079 -2.3715  1.1202
18052TIP3   OH275646   3.812   3.661   3.163 -0.3022  0.1787 -0.5230
18052TIP3    H175647   3.871   3.596   3.125 -0.0775  0.9884 -1.5958
18052TIP3    H275648   3.783   3.715   3.089 -2.9139 -0.5595 -0.1413
18053TIP3   OH275649   2.307   1.509  14.590 -0.0947  0.0460  0.2608
18053TIP3    H175650   2.347   1.429  14.557  0.0991  0.5513 -0.7834
18053TIP3    H275651   2.224   1.481  14.628 -0.1583 -0.6145 -0.3504
18054TIP3   OH275652   0.410   5.954   0.478 -0.8368 -0.3224 -0.8036
18054TIP3    H175653   0.445   6.014   0.412  1.6703  0.6577  1.2362
18054TIP3    H275654   0.432   5.996   0.562 -1.0141 -3.0211  0.6901
18055TIP3   OH275655   6.214   4.756   5.960 -0.2770 -0.3640  0.1705
18055TIP3    H175656   6.236   4.673   5.918 -0.0269 -1.3008  2.0933
18055TIP3    H275657   6.230   4.742   6.053 -0.6862  1.6964  0.6027
18056TIP3   OH275658   4.727   1.321   4.334  0.2103  0.2219  0.2625
18056TIP3    H175659   4.762   1.307   4.422 -0.5592 -0.1330  0.5151
18056TIP3    H275660   4.797   1.290   4.276  0.9155  0.9011  0.7292
18057TIP3   OH275661   2.658   4.043  10.717  0.0509  0.3201 -0.0426
18057TIP3    H175662   2.581   4.057  10.661 -0.5945  0.8717  0.9471
18057TIP3    H275663   2.655   4.115  10.779  1.2932  0.2494  0.1191
18058TIP3   OH275664   3.081   1.449  11.259  0.2792 -0.0629  0.0935
18058TIP3    H175665   3.063   1.368  11.211 -1.0617  0.3132 -0.0773
18058TIP3    H275666   3.071   1.424  11.351  0.3160 -0.2042  0.0599
18059TIP3   OH275667   4.158   2.300  15.017  0.0699 -0.1426  0.2411
18059TIP3    H175668   4.103   2.263  14.948  1.7721 -1.7183 -0.3801
18059TIP3    H275669   4.204   2.373  14.975  1.6017 -1.5065 -0.5943
18060TIP3   OH275670   1.682   4.400   3.411  0.3168 -0.3485 -0.5030
18060TIP3    H175671   1.710   4.403   3.502  0.1415 -2.0717 -0.3629
18060TIP3    H275672   1.688   4.308   3.387  2.5718  0.3191 -2.9468
18061TIP3   OH275673   5.853   1.358   3.726 -0.0899 -0.5122 -0.6514
18061TIP3    H175674   5.837   1.312   3.808  1.2960 -0.5237 -0.3650
18061TIP3    H275675   5.947   1.350   3.711  0.6217  3.6227  0.2883
18062TIP3   OH275676   0.794   1.921   0.097  0.0192 -0.1584 -0.0340
18062TIP3    H175677   0.707   1.956   0.115  0.3141  1.0070 -0.7827
18062TIP3    H275678   0.854   1.985   0.136  0.5496 -0.7229  0.0887
18063TIP3   OH275679   2.814   4.960   5.852 -0.1566  0.2259  0.0368
18063TIP3    H175680   2.867   4.898   5.801 -0.9148  0.4129 -1.0084
18063TIP3    H275681   2.775   5.017   5.786 -0.2028  1.2402  0.9245
18064TIP3   OH275682   2.111   6.168  17.172 -0.3822 -0.4313  0.0647
18064TIP3    H175683   2.102   6.075  17.153  0.9400 -0.6141  0.2807
18064TIP3    H275684   2.094   6.175  17.266 -0.2730 -0.4821  0.0882
18065TIP3   OH275685   4.684   3.242   5.613  0.2309  0.0709  0.2326
18065TIP3    H175686   4.767   3.273   5.649  0.0002  1.2267 -0.1610
18065TIP3    H275687   4.700   3.238   5.518  0.2411 -1.0198  0.2737
18066TIP3   OH275688   3.609   5.523  15.629  0.6984  0.1203 -0.0925
18066TIP3    H175689   3.605   5.492  15.538 -1.0738  0.2179 -0.0691
18066TIP3    H275690   3.647   5.449  15.677  0.3996 -0.4435 -0.7008
18067TIP3   OH275691   6.455   5.422   1.429 -0.0288  0.2191  0.1218
18067TIP3    H175692   6.418   5.386   1.348  1.0507  0.5528 -0.5455
18067TIP3    H275693   6.452   5.350   1.491  1.2098 -0.7655 -0.9072
18068TIP3   OH275694   2.295   4.370   5.471  0.2263 -0.1141 -0.2245
18068TIP3    H175695   2.341   4.324   5.401  1.6065 -1.0069  1.2085
18068TIP3    H275696   2.337   4.340   5.552 -3.3100 -1.5499  1.2788
18069TIP3   OH275697   3.881   5.975  16.194  0.1075  0.8097  0.1079
18069TIP3    H175698   3.884   5.882  16.214  1.3157  0.9018  0.4399
18069TIP3    H275699   3.834   6.014  16.268 -0.4245  0.4749 -0.0447
18070TIP3   OH275700   3.896   1.839   0.649 -0.6827 -0.3573 -0.1094
18070TIP3    H175701   3.986   1.819   0.674 -1.0465 -2.2601 -0.1401
18070TIP3    H275702   3.894   1.824   0.554 -1.0163 -0.2916 -0.1130
18071TIP3   OH275703   3.016   4.939   0.669  0.0036  0.3263 -0.0552
18071TIP3    H175704   3.106   4.907   0.678  0.1300  1.1061  2.0724
18071TIP3    H275705   3.025   5.034   0.666 -0.8189  0.5075  2.0321
18072TIP3   OH275706   5.360   2.217   5.600 -0.3245 -0.0309 -0.4313
18072TIP3    H175707   5.322   2.292   5.554 -1.4317 -0.6055 -0.4771
18072TIP3    H275708   5.338   2.231   5.692 -2.4496 -1.3405 -0.6677
18073TIP3   OH275709   1.545   2.289  15.917 -0.2463 -0.0250 -0.8897
18073TIP3    H175710   1.638   2.296  15.897 -0.3086 -0.5379 -1.3616
18073TIP3    H275711   1.513   2.379  15.910  0.7589  0.6796  2.1293
18074TIP3   OH275712   3.738   5.459   0.177  0.3679  0.2643  0.5039
18074TIP3    H175713   3.731   5.384   0.118  0.1304  1.9423 -1.7298
18074TIP3    H275714   3.682   5.526   0.137  1.7960  2.1757  1.5593
18075TIP3   OH275715   4.672   0.723  14.157  0.2575  0.1269  0.3923
18075TIP3    H175716   4.720   0.770  14.089  0.1848 -0.5528 -0.1395
18075TIP3    H275717   4.599   0.781  14.179  0.5286  0.5466  0.2084
18076TIP3   OH275718   4.187   6.568  13.358 -0.3792  0.2985  0.0668
18076TIP3    H175719   4.218   6.625  13.429 -0.9751  0.2902  0.3452
18076TIP3    H275720   4.217   6.611  13.278  0.7441  0.0399  0.3357
18077TIP3   OH275721   0.488   2.107   4.640  0.1080 -0.0791 -0.4101
18077TIP3    H175722   0.491   2.121   4.545 -1.0134  0.7151 -0.3394
18077TIP3    H275723   0.501   2.012   4.650 -2.1349 -0.5643 -1.5058
18078TIP3   OH275724   4.005   3.125  16.026  0.4677 -0.5187  0.4294
18078TIP3    H175725   3.956   3.102  15.946  1.2458 -0.2739 -0.1262
18078TIP3    H275726   3.956   3.198  16.064  1.2424  0.7733 -0.9609
18079TIP3   OH275727   4.984   3.101   0.463  0.1997  0.1246  0.1847
18079TIP3    H175728   4.961   3.146   0.544 -1.0640  0.9705 -0.6064
18079TIP3    H275729   4.918   3.032   0.454 -0.1882  0.5793 -0.5417
18080TIP3   OH275730   4.199   0.799  17.094 -0.2313 -0.4834  0.0253
18080TIP3    H175731   4.128   0.856  17.065 -0.7709 -0.1901  1.7626
18080TIP3    H275732   4.154   0.727  17.139  0.5225 -1.1271 -0.2431
18081TIP3   OH275733   5.111   5.346   1.713 -0.3805  0.7023 -0.4878
18081TIP3    H175734   5.055   5.335   1.636  0.8109 -0.2387 -1.2350
18081TIP3    H275735   5.134   5.258   1.741 -0.1234  1.0472  0.4635
18082TIP3   OH275736   4.898   5.542  13.566 -0.0364  0.4456 -0.2844
18082TIP3    H175737   4.891   5.526  13.661 -0.3315 -1.7304 -0.6112
18082TIP3    H275738   4.814   5.580  13.542 -0.1189  0.6153  0.2535
18083TIP3   OH275739   1.811   5.717  16.721 -0.1566  0.3555 -0.2011
18083TIP3    H175740   1.875   5.689  16.655  0.2830  0.4798  0.1701
18083TIP3    H275741   1.852   5.790  16.766 -0.7176  0.6813 -0.2013
18084TIP3   OH275742   4.036   1.240   5.896 -0.1118 -0.3039  0.1785
18084TIP3    H175743   4.056   1.198   5.980 -1.5724  2.4529  2.0648
18084TIP3    H275744   3.947   1.272   5.906  0.2145  1.4690 -1.8389
18085TIP3   OH275745   3.721   1.749  15.235  0.2638 -0.5442 -0.1418
18085TIP3    H175746   3.793   1.743  15.297  0.9471 -2.3742 -1.0415
18085TIP3    H275747   3.751   1.701  15.158 -1.3670 -0.1189 -1.0950
18086TIP3   OH275748   4.508   6.464   3.120  0.2148 -0.1714  1.0074
18086TIP3    H175749   4.599   6.444   3.143 -0.3087 -1.1580  2.4053
18086TIP3    H275750   4.462   6.380   3.130 -0.7138  0.1303 -0.4649
18087TIP3   OH275751   2.778   2.305  14.541 -0.1464  0.5990 -0.0927
18087TIP3    H175752   2.697   2.325  14.589 -0.3809  1.7819 -0.9572
18087TIP3    H275753   2.797   2.384  14.492  0.1616 -0.5281 -1.8621
18088TIP3   OH275754   4.681   3.599  11.801 -0.3694 -0.4382 -0.7097
18088TIP3    H175755   4.723   3.516  11.779 -2.2263 -0.4089 -5.5995
18088TIP3    H275756   4.596   3.574  11.837 -1.0595 -0.8306 -2.4686
18089TIP3   OH275757   5.952   6.656  16.231  0.2177  0.3016  0.1679
18089TIP3    H175758   5.991   6.592  16.291  0.0176  0.9179  0.9697
18089TIP3    H275759   5.857   6.646  16.244  0.1095 -0.5155 -1.0654
18090TIP3   OH275760   0.761   5.575  13.990 -0.1415  0.3767 -0.2535
18090TIP3    H175761   0.836   5.627  14.019  1.1981 -1.5862 -0.0506
18090TIP3    H275762   0.695   5.640  13.965  2.0899  2.2236 -1.7327
18091TIP3   OH275763   5.259   5.574   1.724  0.4269  0.1317 -0.7784
18091TIP3    H175764   5.185   5.515   1.734  1.1798 -0.7524 -0.2242
18091TIP3    H275765   5.321   5.547   1.792  1.5409  0.3906 -1.6447
18092TIP3   OH275766   0.172   6.459  13.641 -0.0096  0.4427  0.3384
18092TIP3    H175767   0.157   6.366  13.655 -2.7733  0.8353  0.5749
18092TIP3    H275768   0.152   6.472  13.548 -2.4459  1.1682  0.8874
18093TIP3   OH275769   6.417   4.446  12.956 -0.1966 -0.1473  0.3459
18093TIP3    H175770   6.439   4.431  12.864 -0.3358  0.6702  0.1721
18093TIP3    H275771   6.380   4.535  12.958 -1.0034 -0.4885  1.0585
18094TIP3   OH275772   5.099   6.817  16.657 -0.1519  0.2909 -0.1996
18094TIP3    H175773   5.076   6.788  16.569  1.7914 -1.7606 -0.1332
18094TIP3    H275774   5.065   6.749  16.715  0.9054  0.2230  0.3663
18095TIP3   OH275775   3.537   4.388  16.952 -0.1528 -0.0760  0.0783
18095TIP3    H175776   3.604   4.364  17.016 -1.5115  0.5315  1.7994
18095TIP3    H275777   3.504   4.473  16.982 -2.2612 -0.7347 -0.1880
18096TIP3   OH275778   6.344   2.776  15.499 -0.1811  0.9134  0.1954
18096TIP3    H175779   6.348   2.871  15.497 -1.6713  0.9921  0.1692
18096TIP3    H275780   6.328   2.751  15.408  1.0284  0.5791  0.0612
18097TIP3   OH275781   1.519   3.253   0.874  0.0651 -0.4001  0.3837
18097TIP3    H175782   1.611   3.234   0.889  0.6783  0.9528 -1.3594
18097TIP3    H275783   1.518   3.311   0.799 -2.0946  1.2432  1.5553
18098TIP3   OH275784   1.665   3.445   5.474  0.0446 -0.1357  0.2778
18098TIP3    H175785   1.745   3.433   5.424 -0.2093 -1.2949  0.1279
18098TIP3    H275786   1.652   3.540   5.475  0.5135 -0.0309 -1.1140
18099TIP3   OH275787   0.901   0.340   4.484  0.7520  0.3349 -0.2506
18099TIP3    H175788   0.907   0.395   4.562  0.4653  1.2054 -0.8285
18099TIP3    H275789   0.836   0.274   4.507  0.2286  0.9363  0.0440
18100TIP3   OH275790   5.006   3.701  13.408  0.4546 -0.0020  0.4148
18100TIP3    H175791   4.988   3.687  13.315 -0.0167  0.3576  0.4483
18100TIP3    H275792   4.929   3.747  13.441 -0.0426 -1.4335  1.3313
18101TIP3   OH275793   6.162   3.556   3.697 -0.3394 -0.1365 -0.0974
18101TIP3    H175794   6.121   3.567   3.611  1.3709 -1.8555 -1.2199
18101TIP3    H275795   6.153   3.463   3.716 -0.7100  0.2215  1.6325
18102TIP3   OH275796   3.573   3.226  12.063 -0.2119 -0.1996  0.0244
18102TIP3    H175797   3.595   3.143  12.020 -1.4786 -0.3770 -0.3058
18102TIP3    H275798   3.482   3.241  12.041 -0.0091  1.2805  0.1158
18103TIP3   OH275799   5.204   1.119   1.490  0.0268  0.1263  0.5043
18103TIP3    H175800   5.228   1.193   1.547 -1.6049  1.3259 -0.2842
18103TIP3    H275801   5.243   1.141   1.405 -0.7706  0.3038  0.1713
18104TIP3   OH275802   0.891   6.472   1.901 -0.4229 -0.3552  1.4129
18104TIP3    H175803   0.949   6.548   1.902 -0.2379 -0.4424 -0.1867
18104TIP3    H275804   0.947   6.398   1.925  0.8040 -0.8045 -2.2235
18105TIP3   OH275805   2.483   2.142  14.856  0.4195 -0.0786 -0.0020
18105TIP3    H175806   2.442   2.114  14.774  0.4709  2.3294 -0.9145
18105TIP3    H275807   2.417   2.199  14.897  1.7397  1.6284 -0.1535
18106TIP3   OH275808   0.214   2.930   1.818  0.1193  0.0577  0.3316
18106TIP3    H175809   0.287   2.934   1.880  0.5637 -1.7291 -0.0304
18106TIP3    H275810   0.253   2.900   1.736 -0.9051 -0.2586 -0.0626
18107TIP3   OH275811   4.580   3.636  14.827 -0.1657  0.0421 -0.1041
18107TIP3    H175812   4.638   3.559  14.832 -0.4275 -0.2305 -1.0106
18107TIP3    H275813   4.615   3.687  14.754 -0.2087  0.6118  0.2701
18108TIP3   OH275814   0.238   6.135  14.745  0.0730 -0.4253 -0.4624
18108TIP3    H175815   0.296   6.206  14.775 -0.8336  0.4001 -0.5930
18108TIP3    H275816   0.270   6.057  14.790  0.1399  0.3667  0.9270
18109TIP3   OH275817   3.740   4.524   4.528 -0.3809  0.6127  0.1033
18109TIP3    H175818   3.744   4.620   4.537 -1.2907  0.6649  0.0405
18109TIP3    H275819   3.814   4.492   4.579  1.5849  1.4500 -2.0357
18110TIP3   OH275820   5.970   6.476   5.658 -0.3005 -0.2478  0.0072
18110TIP3    H175821   5.903   6.480   5.589 -0.3047 -1.5418 -0.0866
18110TIP3    H275822   5.967   6.562   5.699 -2.3219 -0.4047  0.2794
18111TIP3   OH275823   3.336   5.833  15.134  0.2307 -0.2602  0.2738
18111TIP3    H175824   3.392   5.886  15.077  0.8638 -0.7242  0.4529
18111TIP3    H275825   3.328   5.884  15.214  1.7117 -0.8766  0.8517
18112TIP3   OH275826   6.492   2.665   1.661  0.2614  0.2470 -0.1785
18112TIP3    H175827   6.566   2.618   1.700  0.5507  0.4421 -0.4850
18112TIP3    H275828   6.532   2.741   1.618 -0.2713  1.2062  0.9649
18113TIP3   OH275829   2.134   6.562   5.015 -0.1540  0.2090 -0.6490
18113TIP3    H175830   2.053   6.571   4.964 -1.0582 -0.3881  0.6065
18113TIP3    H275831   2.204   6.582   4.953 -1.2610  0.8310 -1.7581
18114TIP3   OH275832   0.926   6.112  16.844 -0.1999 -0.0783  0.1159
18114TIP3    H175833   0.840   6.075  16.861 -0.5974  1.3530  1.4459
18114TIP3    H275834   0.981   6.080  16.916 -0.6112  1.9918  1.4222
18115TIP3   OH275835   5.137   6.416   3.202 -0.1877  0.3114  0.2488
18115TIP3    H175836   5.201   6.349   3.175  0.0672 -0.4931  2.6301
18115TIP3    H275837   5.062   6.366   3.232 -0.3117  1.1189  1.3146
18116TIP3   OH275838   2.730   3.330  12.311  0.0512 -0.2844  0.1951
18116TIP3    H175839   2.744   3.252  12.365  0.0788  0.8085  1.8608
18116TIP3    H275840   2.664   3.304  12.247 -0.0465 -1.6212  0.7996
18117TIP3   OH275841   5.310   5.218  15.191 -0.3252  0.5980  0.5987
18117TIP3    H175842   5.336   5.292  15.245  0.5482  0.4296  0.4200
18117TIP3    H275843   5.223   5.241  15.159  0.2608  1.9194 -0.1051
18118TIP3   OH275844   1.831   2.763   4.842  0.1468  0.2294 -0.2842
18118TIP3    H175845   1.856   2.779   4.933  2.2082  0.6277 -0.8686
18118TIP3    H275846   1.849   2.670   4.828 -0.0695  0.1939 -0.3403
18119TIP3   OH275847   3.121   1.459  12.740  0.5766 -0.1744 -0.0760
18119TIP3    H175848   3.154   1.545  12.768 -0.7548  1.2034 -2.3813
18119TIP3    H275849   3.076   1.424  12.816 -1.1774  2.4408  0.2129
18120TIP3   OH275850   4.041   0.368   3.806  0.0362 -0.0555  0.2035
18120TIP3    H175851   4.105   0.370   3.876  2.0819 -1.7025 -1.4894
18120TIP3    H275852   4.015   0.276   3.799 -1.6719  0.3896  0.0687
18121TIP3   OH275853   0.855   6.106   3.705  0.3507 -0.2239  0.0268
18121TIP3    H175854   0.832   6.111   3.613 -1.6551 -0.4782  0.4747
18121TIP3    H275855   0.795   6.041   3.742  1.3906 -0.4394  1.4414
18122TIP3   OH275856   5.834   1.074   1.829 -0.0687  0.6039  0.4561
18122TIP3    H175857   5.765   1.019   1.791  0.1743  0.0791  0.7724
18122TIP3    H275858   5.886   1.014   1.882  1.1453  0.8117 -0.4598
18123TIP3   OH275859   3.853   4.707   0.548 -0.1901  0.0504  0.1919
18123TIP3    H175860   3.767   4.674   0.520 -0.4689  1.8552 -1.2256
18123TIP3    H275861   3.914   4.675   0.481 -0.0354  0.2120  0.2557
18124TIP3   OH275862   0.773   5.214   5.614 -0.1967 -0.9367  0.4006
18124TIP3    H175863   0.845   5.153   5.634  1.1481  0.8538  1.2926
18124TIP3    H275864   0.797   5.295   5.659 -2.1753  0.1227 -0.3369
18125TIP3   OH275865   5.409   1.113   4.391  0.1449 -0.4130  0.1830
18125TIP3    H175866   5.315   1.102   4.410  0.0224  0.5855  0.1972
18125TIP3    H275867   5.413   1.114   4.295  0.1047 -0.2341  0.1817
18126TIP3   OH275868   4.093   5.168   5.568 -0.5060  0.5105 -0.2225
18126TIP3    H175869   4.101   5.106   5.640 -0.6267  0.4492 -0.2614
18126TIP3    H275870   4.079   5.114   5.490 -1.1899  0.5973 -0.1724
18127TIP3   OH275871   5.211   6.266  14.673 -0.1839  0.0371  0.2952
18127TIP3    H175872   5.264   6.338  14.640  1.1875 -0.6368  0.9236
18127TIP3    H275873   5.275   6.205  14.711 -1.4974 -0.1841  2.2891
18128TIP3   OH275874   4.645   5.003  12.073 -0.0056  0.7677  0.3311
18128TIP3    H175875   4.690   5.038  11.997 -2.0211  0.9045 -0.8806
18128TIP3    H275876   4.560   4.973  12.039  1.0311 -4.3176  1.4318
18129TIP3   OH275877   2.042   4.987   5.603 -0.1144  0.1317 -0.0230
18129TIP3    H175878   2.071   5.070   5.640 -1.3976 -0.1516  1.7150
18129TIP3    H275879   2.120   4.931   5.606  0.2489  0.6655  0.5901
18130TIP3   OH275880   1.535   2.061   4.834  0.0270 -0.2254 -0.2518
18130TIP3    H175881   1.500   2.148   4.853 -0.2091  0.0915 -1.9541
18130TIP3    H275882   1.603   2.047   4.900 -0.0366  1.1970  0.1386
18131TIP3   OH275883   0.169   3.249   3.246 -0.2109  0.5237  0.1418
18131TIP3    H175884   0.149   3.285   3.332 -1.9937  0.7562 -0.3280
18131TIP3    H275885   0.195   3.158   3.263  2.0409  1.2688  1.1212
18132TIP3   OH275886   2.423   6.402  11.450  0.2834  0.5113  0.1502
18132TIP3    H175887   2.421   6.402  11.546 -0.0252 -0.6681  0.1489
18132TIP3    H275888   2.455   6.490  11.428 -0.1286  0.9811  1.3173
18133TIP3   OH275889   2.295   5.220  13.240  0.1398 -0.5246  0.6714
18133TIP3    H175890   2.362   5.211  13.173  0.4803  1.5352  0.6584
18133TIP3    H275891   2.336   5.185  13.320  0.4051 -1.2927  0.2060
18134TIP3   OH275892   2.319   3.219   3.408  0.5859 -0.5393 -0.3943
18134TIP3    H175893   2.296   3.199   3.499 -0.2980  0.4244 -0.3882
18134TIP3    H275894   2.414   3.222   3.407  0.6174 -1.0415  0.3912
18135TIP3   OH275895   3.410   4.643   4.785 -0.3917 -0.0384 -0.3026
18135TIP3    H175896   3.348   4.570   4.780  0.3704 -0.7081 -0.2649
18135TIP3    H275897   3.393   4.682   4.871 -0.5541 -0.4100 -0.1605
18136TIP3   OH275898   4.902   1.340  10.316 -0.2790 -0.0826 -0.1054
18136TIP3    H175899   4.932   1.377  10.233 -0.4353 -1.6617 -0.9004
18136TIP3    H275900   4.889   1.416  10.373  0.1249  1.0077 -1.4195
18137TIP3   OH275901   3.574   5.692   5.018 -0.0012  0.2838  0.0338
18137TIP3    H175902   3.667   5.680   5.033 -0.0336 -1.5702 -0.9320
18137TIP3    H275903   3.536   5.699   5.106  0.9949  0.6195  0.4442
18138TIP3   OH275904   1.675   3.075  12.106  0.5596  0.1579  0.0775
18138TIP3    H175905   1.766   3.076  12.076  0.5382 -1.0085 -0.0714
18138TIP3    H275906   1.631   3.013  12.048  0.1171 -0.7889  1.3866
18139TIP3   OH275907   3.375   2.252  12.618 -0.0199 -0.5502  0.5862
18139TIP3    H175908   3.470   2.252  12.607 -0.1167  1.6973 -0.9737
18139TIP3    H275909   3.354   2.165  12.651  2.3811 -1.7567 -0.8119
18140TIP3   OH275910   1.825   5.189  16.009  0.2123  0.3048  0.4671
18140TIP3    H175911   1.920   5.195  16.019  0.0622  1.4772  1.4343
18140TIP3    H275912   1.791   5.269  16.049 -1.3633 -1.3047  2.5722
18141TIP3   OH275913   5.662   6.331  16.866  0.6923  0.2710 -0.0203
18141TIP3    H175914   5.705   6.380  16.936 -0.3881  1.2007  0.0167
18141TIP3    H275915   5.589   6.387  16.839 -0.1383 -0.9937 -0.4764
18142TIP3   OH275916   6.534   4.937   3.614  0.0965  0.0689 -0.2650
18142TIP3    H175917   6.451   4.984   3.603 -0.2525 -0.7623 -1.3272
18142TIP3    H275918   6.600   5.007   3.615 -0.6486  0.8171  1.5215
18143TIP3   OH275919   4.576   6.010   1.991 -0.7419  0.8454 -0.1990
18143TIP3    H175920   4.550   6.078   1.929 -2.8686  0.6417  0.3827
18143TIP3    H275921   4.554   5.928   1.947  0.9198  0.5344 -0.5113
18144TIP3   OH275922   6.288   1.991   2.078 -0.2517 -0.0914  0.2780
18144TIP3    H175923   6.214   2.039   2.115  0.5616  0.5720  1.0718
18144TIP3    H275924   6.279   2.004   1.983 -1.7384 -0.9089  0.2756
18145TIP3   OH275925   5.895   1.940   0.964 -0.0282 -0.0138  0.2523
18145TIP3    H175926   5.968   1.984   1.008  0.4177 -1.5366  1.0888
18145TIP3    H275927   5.933   1.910   0.881 -0.5411  1.7710 -0.6872
18146TIP3   OH275928   1.775   3.945  13.845 -0.1008  0.1352  0.3277
18146TIP3    H175929   1.732   3.922  13.762 -0.5269 -1.2257  0.8849
18146TIP3    H275930   1.863   3.973  13.820  0.1066 -1.1881 -0.5467
18147TIP3   OH275931   4.128   4.425   3.641 -0.1450  0.2749  0.6558
18147TIP3    H175932   4.044   4.450   3.605  0.6174  0.6360 -0.9778
18147TIP3    H275933   4.180   4.505   3.640  1.1507 -0.4998 -1.2221
18148TIP3   OH275934   3.213   6.755   6.788  0.1732  0.0301 -0.8477
18148TIP3    H175935   3.125   6.793   6.786 -0.1086 -0.3998  1.4093
18148TIP3    H275936   3.271   6.830   6.800 -0.1558  0.0489  0.7667
18149TIP3   OH275937   1.806   4.355  12.357 -0.1745 -0.1032 -0.7760
18149TIP3    H175938   1.729   4.359  12.301 -0.0561 -0.8238 -1.0045
18149TIP3    H275939   1.781   4.405  12.435 -0.1462  1.3478 -1.6709
18150TIP3   OH275940   4.290   1.182  14.673  0.3891 -0.2387 -0.6141
18150TIP3    H175941   4.375   1.221  14.653  0.6664 -0.6808 -0.3203
18150TIP3    H275942   4.283   1.108  14.613  1.7688 -2.3267  1.6378
18151TIP3   OH275943   0.927   5.084   2.887  0.0759 -0.1055  0.8875
18151TIP3    H175944   0.989   5.040   2.829  0.3486  1.3657  0.0187
18151TIP3    H275945   0.918   5.172   2.850 -0.8464  0.4071  2.2664
18152TIP3   OH275946   1.755   2.467  12.827  0.0755  1.2723 -0.4952
18152TIP3    H175947   1.778   2.511  12.909 -2.5508  1.1183  0.3922
18152TIP3    H275948   1.756   2.536  12.761  0.6747  1.6901 -0.0573
18153TIP3   OH275949   0.389   4.971   3.759 -0.2440 -0.0926 -0.3255
18153TIP3    H175950   0.310   4.939   3.803  0.4392  0.2652  1.2550
18153TIP3    H275951   0.441   4.892   3.743  0.7086 -0.0602  2.0825
18154TIP3   OH275952   5.162   4.744  16.582 -0.4959  0.6069 -0.4110
18154TIP3    H175953   5.183   4.755  16.675 -1.4258  0.0796 -0.1203
18154TIP3    H275954   5.144   4.833  16.551 -0.8666  0.7136  0.0968
18155TIP3   OH275955   2.476   1.245  14.226 -0.6112  0.4259  0.5563
18155TIP3    H175956   2.522   1.275  14.148  1.3012  0.0394  1.4488
18155TIP3    H275957   2.389   1.283  14.220  0.3142  2.5164 -0.4985
18156TIP3   OH275958   0.910   2.779   2.753 -0.1434  0.5109  0.0073
18156TIP3    H175959   0.933   2.800   2.844 -1.9628  0.5490  0.4985
18156TIP3    H275960   0.836   2.837   2.733  1.0088  1.4145 -1.9614
18157TIP3   OH275961   2.522   1.257   4.931 -0.4274 -0.1152  0.7417
18157TIP3    H175962   2.458   1.274   4.862 -0.6510  1.6815  1.3288
18157TIP3    H275963   2.583   1.194   4.893  0.1650  1.7084 -1.5802
18158TIP3   OH275964   5.631   1.386  14.782 -0.6260 -0.3887  0.0694
18158TIP3    H175965   5.656   1.322  14.716 -0.0064  1.4341 -1.5343
18158TIP3    H275966   5.535   1.390  14.778 -0.6042 -0.5049 -0.5079
18159TIP3   OH275967   6.367   4.411   1.869  0.5184  0.5373  0.4708
18159TIP3    H175968   6.395   4.489   1.821  1.5351 -0.4163 -0.5391
18159TIP3    H275969   6.271   4.418   1.872  0.5359  1.3362 -0.4756
18160TIP3   OH275970   4.670   3.140  14.184  0.2664  0.0491 -0.3786
18160TIP3    H175971   4.683   3.095  14.101  2.5963  0.8055 -0.4918
18160TIP3    H275972   4.655   3.232  14.159 -0.8078 -0.0139 -0.0122
18161TIP3   OH275973   0.167   1.132   2.523  0.1598 -0.0538  0.1044
18161TIP3    H175974   0.239   1.098   2.468  1.4466 -0.3526  1.8909
18161TIP3    H275975   0.150   1.062   2.585 -1.9062 -0.0789 -0.4300
18162TIP3   OH275976   4.184   2.143   5.059 -0.7952  0.0778  0.3082
18162TIP3    H175977   4.124   2.164   5.131  0.4324  0.9205  1.1306
18162TIP3    H275978   4.216   2.228   5.029 -0.3063 -0.3360 -0.3774
18163TIP3   OH275979   2.752   1.587  15.417  0.7109 -0.6928  0.0043
18163TIP3    H175980   2.721   1.663  15.466  1.5942  1.5343 -2.6565
18163TIP3    H275981   2.673   1.534  15.402 -0.4288  0.9753 -0.1712
18164TIP3   OH275982   3.028   4.341  10.883  0.1249  0.0045 -0.3282
18164TIP3    H175983   2.987   4.300  10.959  0.4107 -1.0313 -0.7044
18164TIP3    H275984   3.095   4.399  10.920  0.1611 -0.3801  0.2220
18165TIP3   OH275985   3.519   3.761  13.693  0.2406  0.5311 -0.1558
18165TIP3    H175986   3.569   3.709  13.631 -0.9641 -2.0179  0.8623
18165TIP3    H275987   3.429   3.759  13.660 -0.0847  0.7286  0.6670
18166TIP3   OH275988   3.083   6.184   2.515 -0.1090 -0.1732  0.1933
18166TIP3    H175989   3.111   6.270   2.545  0.0414  0.2389 -1.0843
18166TIP3    H275990   3.113   6.179   2.424  1.4499 -2.2721  0.7539
18167TIP3   OH275991   6.385   4.365   2.181  0.0734 -0.1555 -0.1756
18167TIP3    H175992   6.319   4.421   2.139 -1.8389 -0.9764  1.5653
18167TIP3    H275993   6.459   4.423   2.197 -0.9038  1.2644 -0.5963
18168TIP3   OH275994   4.977   1.241   3.423  0.4715 -0.5390  0.4756
18168TIP3    H175995   4.932   1.195   3.493 -1.5816  1.0224  0.2611
18168TIP3    H275996   5.014   1.319   3.464 -0.0801 -0.0074 -0.0244
18169TIP3   OH275997   2.250   6.786   2.420 -0.2113  0.5840  0.2389
18169TIP3    H175998   2.273   6.865   2.468 -1.1095  1.2736 -0.4180
18169TIP3    H275999   2.244   6.718   2.486  1.4822  0.8432  0.7020
18170TIP3   OH276000   4.439   0.830   3.498  0.2014  0.0433  0.2981
18170TIP3    H176001   4.525   0.830   3.540  1.0496 -1.1038 -1.3278
18170TIP3    H276002   4.445   0.762   3.431 -2.8159 -1.8609  1.7440
18171TIP3   OH276003   3.899   6.620   1.488 -0.4715  0.3294  0.4764
18171TIP3    H176004   3.974   6.585   1.440 -1.2404  0.7596 -1.1117
18171TIP3    H276005   3.885   6.707   1.450 -2.8413 -0.4187 -0.5317
18172TIP3   OH276006   6.232   0.884  12.579  0.0380  0.1382 -0.4481
18172TIP3    H176007   6.204   0.806  12.627  1.0029  0.3504  0.4853
18172TIP3    H276008   6.151   0.931  12.561 -0.3709  0.0259  0.9446
18173TIP3   OH276009   6.097   5.122  13.400  0.3737 -0.1415 -0.9083
18173TIP3    H176010   6.138   5.100  13.483 -0.0624 -0.0340 -0.6626
18173TIP3    H276011   6.148   5.197  13.368  0.6838 -0.3254 -0.8491
18174TIP3   OH276012   2.839   4.270  11.587 -0.1293  0.1237  0.3336
18174TIP3    H176013   2.752   4.258  11.625  0.3526 -0.9245  1.1380
18174TIP3    H276014   2.898   4.227  11.648  1.1858  2.3793  0.7662
18175TIP3   OH276015   1.838   5.380  11.259 -0.1458  0.2544 -0.6933
18175TIP3    H176016   1.896   5.444  11.299 -1.4990 -0.8792  3.6272
18175TIP3    H276017   1.767   5.432  11.223  0.5660  1.3604 -0.5449
18176TIP3   OH276018   5.088   0.668   5.406 -0.5554  0.0680  0.0329
18176TIP3    H176019   5.097   0.697   5.496 -0.5443 -1.5728  0.5992
18176TIP3    H276020   5.126   0.580   5.405  0.1906  0.3738 -1.7622
18177TIP3   OH276021   4.596   1.571   3.180 -0.0349  0.1932  0.4926
18177TIP3    H176022   4.596   1.482   3.146 -0.5002 -0.1876  1.4359
18177TIP3    H276023   4.680   1.578   3.226 -0.6755 -0.3416  1.8059
18178TIP3   OH276024   2.043   4.930   0.412  0.7418  0.5615 -0.2426
18178TIP3    H176025   2.027   4.885   0.329  1.5144 -1.1822  0.5184
18178TIP3    H276026   2.134   4.911   0.433  1.1402  2.5962  0.0863
18179TIP3   OH276027   0.409   0.220   3.615  0.4757  0.0228  0.2896
18179TIP3    H176028   0.486   0.190   3.664 -0.5495 -0.8625  1.4242
18179TIP3    H276029   0.445   0.259   3.535  2.0566 -1.1366  0.3864
18180TIP3   OH276030   2.208   2.700  12.176  0.5092 -0.0708 -0.2449
18180TIP3    H176031   2.182   2.792  12.173  0.1312 -0.1651 -0.0533
18180TIP3    H276032   2.210   2.679  12.270  1.0465 -0.1347 -0.2682
18181TIP3   OH276033   0.769   3.856   3.966  0.5081  0.0038 -0.2082
18181TIP3    H176034   0.676   3.856   3.989  0.4160  0.2897 -0.5675
18181TIP3    H276035   0.783   3.939   3.921  0.9887  0.0578  0.0373
18182TIP3   OH276036   3.193   5.111   6.232  0.1471 -0.7043 -0.2818
18182TIP3    H176037   3.271   5.067   6.266  0.1491  0.0076  0.6738
18182TIP3    H276038   3.143   5.135   6.310 -0.7827 -0.6840 -0.8640
18183TIP3   OH276039   4.259   4.161  15.846 -0.4271 -0.0919  0.6067
18183TIP3    H176040   4.342   4.114  15.852  0.3559  1.4038  2.5598
18183TIP3    H276041   4.198   4.108  15.897 -0.2544 -0.3936  0.5023
18184TIP3   OH276042   5.772   0.836  16.886 -0.0057 -0.2153 -0.0206
18184TIP3    H176043   5.795   0.913  16.834  2.3152 -0.7465  0.0971
18184TIP3    H276044   5.755   0.870  16.974  3.4931  0.0728  0.7012
18185TIP3   OH276045   4.658   0.166  13.916 -0.6331 -0.3179  0.0409
18185TIP3    H176046   4.595   0.113  13.868  1.2882 -0.9016 -1.9997
18185TIP3    H276047   4.670   0.244  13.861  1.0957 -0.6607 -0.1118
18186TIP3   OH276048   3.658   2.346   2.631 -0.2931  0.3988  0.2128
18186TIP3    H176049   3.642   2.281   2.563  0.4162  0.4000  0.0471
18186TIP3    H276050   3.661   2.430   2.584  2.0179  0.2237 -0.0244
18187TIP3   OH276051   2.512   6.102   4.085 -0.1252  0.0609 -0.7618
18187TIP3    H176052   2.421   6.113   4.056 -1.4619 -1.9153  2.2313
18187TIP3    H276053   2.518   6.152   4.166  0.2451 -2.6587  1.0351
18188TIP3   OH276054   3.495   1.672  12.781 -0.0345  0.3270  0.1587
18188TIP3    H176055   3.517   1.638  12.694  0.3489 -1.5268  0.9437
18188TIP3    H276056   3.573   1.720  12.809  0.5433 -0.6427  0.2304
18189TIP3   OH276057   1.921   0.115  17.229 -0.1894 -0.3570 -0.3824
18189TIP3    H176058   1.971   0.096  17.309 -0.5291 -1.5077 -0.4303
18189TIP3    H276059   1.831   0.127  17.260 -0.6022 -2.2967 -0.7330
18190TIP3   OH276060   6.410   6.567   4.201 -0.2835  0.3498  0.8990
18190TIP3    H176061   6.495   6.606   4.183  0.9176 -2.8266 -0.9517
18190TIP3    H276062   6.413   6.544   4.294  0.0904  1.8358  1.2897
18191TIP3   OH276063   4.560   3.572  10.968  0.0666  0.3788 -0.1211
18191TIP3    H176064   4.574   3.650  11.022  1.9653  0.5371 -0.7833
18191TIP3    H276065   4.605   3.502  11.015  1.7385  0.5142 -1.4189
18192TIP3   OH276066   1.025   2.233   4.764 -0.4555  0.3685  0.2554
18192TIP3    H176067   0.995   2.227   4.854 -0.2912 -1.1002  0.2422
18192TIP3    H276068   1.089   2.305   4.764  2.8890 -2.2987  2.3524
18193TIP3   OH276069   2.308   5.090   0.660 -0.6227 -0.2142 -0.0585
18193TIP3    H176070   2.377   5.072   0.597 -0.8752  0.0832 -0.4228
18193TIP3    H276071   2.289   5.183   0.649 -1.9198 -0.5464 -0.8037
18194TIP3   OH276072   0.827   4.725   3.437  0.5461  0.1958  0.1338
18194TIP3    H176073   0.797   4.776   3.362 -0.6323 -0.1750  0.3262
18194TIP3    H276074   0.746   4.695   3.480  1.1749  0.7676  1.8158
18195TIP3   OH276075   4.749   5.722  15.558  0.7394  0.0493 -0.3963
18195TIP3    H176076   4.770   5.802  15.607 -2.3816  1.7682 -1.5423
18195TIP3    H276077   4.811   5.721  15.486  0.3957  1.8961 -0.7657
18196TIP3   OH276078   5.244   3.205   0.451  0.0285  0.4357 -0.5933
18196TIP3    H176079   5.191   3.196   0.371  1.1241 -1.2269 -1.1927
18196TIP3    H276080   5.240   3.118   0.491  1.2286  0.6492  0.0269
18197TIP3   OH276081   5.741   5.323  13.552 -0.4895  0.7606 -0.1531
18197TIP3    H176082   5.693   5.354  13.475 -0.1399 -0.1905 -0.7629
18197TIP3    H276083   5.722   5.229  13.556 -0.2115  0.7326  0.7173
18198TIP3   OH276084   5.579   4.576  13.524  0.4170  0.2522  0.2942
18198TIP3    H176085   5.489   4.600  13.546  0.1594  0.7451 -1.2005
18198TIP3    H276086   5.630   4.601  13.601 -0.5603  0.9865  0.7275
18199TIP3   OH276087   4.278   3.201   3.070  0.0607 -0.3001 -0.0139
18199TIP3    H176088   4.264   3.206   2.976 -1.0796 -1.6949  0.0490
18199TIP3    H276089   4.235   3.120   3.097 -0.5113  0.5636  1.8619
18200TIP3   OH276090   1.031   1.949   4.750 -0.5730  0.2430  0.1159
18200TIP3    H176091   1.105   1.934   4.809 -1.5120 -0.9203  1.0391
18200TIP3    H276092   1.009   2.041   4.764 -1.0059 -0.0935  1.8955
18201TIP3   OH276093   1.509   1.473  14.559  0.5373  0.2920  0.1972
18201TIP3    H176094   1.431   1.515  14.596 -0.1020 -0.1616 -0.5673
18201TIP3    H276095   1.534   1.408  14.624  0.1031  0.2564  0.3364
18202TIP3   OH276096   0.574   2.019  11.367  0.2788 -0.1552 -0.1750
18202TIP3    H176097   0.478   2.027  11.362  0.1985 -1.3101 -0.7371
18202TIP3    H276098   0.604   2.109  11.381 -1.0071 -0.0222  2.2198
18203TIP3   OH276099   3.357   6.034   4.547 -0.6914 -0.7027 -0.6410
18203TIP3    H176100   3.360   5.946   4.584 -1.1033 -0.3143  0.3528
18203TIP3    H276101   3.329   6.021   4.456 -1.1861 -1.5681 -0.3792
18204TIP3   OH276102   6.799   4.429  13.521 -0.3181  0.2405  0.2836
18204TIP3    H176103   6.836   4.468  13.443  0.9210 -0.9429  0.2448
18204TIP3    H276104   6.738   4.363  13.488  0.6949 -0.7209  0.2711
18205TIP3   OH276105   2.523   5.613  11.289 -0.0547  0.0566 -0.3121
18205TIP3    H176106   2.557   5.606  11.200  0.1344 -0.3966 -0.2119
18205TIP3    H276107   2.484   5.700  11.294 -0.2954 -0.0157 -0.9138
18206TIP3   OH276108   5.241   4.285   0.914  0.1905  0.1831  0.0873
18206TIP3    H176109   5.156   4.326   0.897 -0.8618 -1.6857  0.6145
18206TIP3    H276110   5.263   4.241   0.832 -0.5943 -1.4127  0.6969
18207TIP3   OH276111   0.623   5.121  14.555  0.2921 -0.2336 -0.2803
18207TIP3    H176112   0.679   5.198  14.553 -0.2001  0.1259 -0.2662
18207TIP3    H276113   0.674   5.053  14.510 -0.3535  0.8282 -2.8057
18208TIP3   OH276114   4.697   1.168  10.834  0.4157 -0.2583 -0.3585
18208TIP3    H176115   4.611   1.137  10.863 -0.1757  0.4294 -1.3319
18208TIP3    H276116   4.678   1.230  10.763  1.7452 -1.0150 -1.4314
18209TIP3   OH276117   6.801   0.344   4.592  0.0172 -0.2523 -0.1240
18209TIP3    H176118   6.878   0.288   4.606 -0.0937 -1.0104 -2.1709
18209TIP3    H276119   6.832   0.433   4.609  1.5417 -0.4892 -1.4071
18210TIP3   OH276120   6.677   2.351  12.375 -0.0294  0.5257 -0.4110
18210TIP3    H176121   6.676   2.430  12.320 -0.0034  1.6969  1.2183
18210TIP3    H276122   6.768   2.342  12.402 -0.1789  0.4171  0.0653
18211TIP3   OH276123   5.228   2.989   2.423 -0.0750  0.2789 -0.1626
18211TIP3    H176124   5.285   2.954   2.492  1.1151  1.1452 -0.6780
18211TIP3    H276125   5.259   2.946   2.343 -1.1731 -0.3979 -0.2483
18212TIP3   OH276126   2.155   0.708  10.733 -0.4004 -0.3696  0.0089
18212TIP3    H176127   2.138   0.797  10.764  1.3292  0.2910 -0.8141
18212TIP3    H276128   2.098   0.698  10.657 -0.7360 -0.0437  0.2127
18213TIP3   OH276129   4.519   3.287   4.346 -0.2582 -0.3775  0.3571
18213TIP3    H176130   4.517   3.346   4.421 -2.9971  0.5485 -0.3042
18213TIP3    H276131   4.472   3.335   4.277 -1.0064 -2.6028 -0.7761
18214TIP3   OH276132   4.305   0.181  15.665  0.6316 -0.1631  0.2663
18214TIP3    H176133   4.380   0.167  15.606  0.5704  0.5820  0.0067
18214TIP3    H276134   4.338   0.241  15.732 -0.2208  1.6423 -0.8542
18215TIP3   OH276135   1.569   5.842   3.890  0.0366  0.0585 -0.4882
18215TIP3    H176136   1.662   5.839   3.912  0.0791  2.7419 -0.0823
18215TIP3    H276137   1.525   5.822   3.972  0.2546  0.3615 -0.2945
18216TIP3   OH276138   2.526   4.889   4.652 -0.1179  0.4504 -0.6278
18216TIP3    H176139   2.445   4.897   4.703 -0.8288  0.6884 -1.7728
18216TIP3    H276140   2.592   4.865   4.717 -1.2379 -0.4844  0.2185
18217TIP3   OH276141   5.239   0.504  11.487  0.3067  0.2436 -0.0905
18217TIP3    H176142   5.249   0.537  11.398 -1.0356  2.3125  0.4752
18217TIP3    H276143   5.323   0.525  11.530  0.1590  1.2374 -0.2734
18218TIP3   OH276144   3.748   4.503  11.349  0.7659  0.1619  0.1729
18218TIP3    H176145   3.762   4.469  11.261 -0.8979  0.0207 -0.0661
18218TIP3    H276146   3.802   4.448  11.405 -0.7203 -1.9758 -0.3774
18219TIP3   OH276147   4.459   3.373   0.850 -0.3092  0.0511 -0.2864
18219TIP3    H176148   4.459   3.425   0.931 -1.3166 -0.8918  0.3524
18219TIP3    H276149   4.382   3.403   0.803 -1.0397 -0.9978  0.2021
18220TIP3   OH276150   5.776   1.122  12.001 -0.1629 -0.1375  0.3908
18220TIP3    H176151   5.809   1.200  12.045 -1.4438  0.5151  0.2437
18220TIP3    H276152   5.841   1.054  12.021  0.5821  0.7644  1.1507
18221TIP3   OH276153   3.580   5.905  13.636 -0.3933  0.0866 -0.0281
18221TIP3    H176154   3.579   5.854  13.717  0.6166  0.9199  0.5488
18221TIP3    H276155   3.577   5.996  13.666  1.6623  0.4768 -0.8189
18222TIP3   OH276156   1.048   4.965   0.068 -0.7645  0.1458 -0.5752
18222TIP3    H176157   1.032   4.977   0.162 -2.2678  0.3277 -0.8284
18222TIP3    H276158   1.131   4.917   0.064 -0.5953  0.2659  0.8390
18223TIP3   OH276159   1.581   0.832   0.768 -0.0097 -0.2362  0.2114
18223TIP3    H176160   1.635   0.876   0.702  2.6658  0.0205  2.3782
18223TIP3    H276161   1.583   0.740   0.743 -0.3907  0.0465 -0.9149
18224TIP3   OH276162   3.326   4.519   1.722  0.4666  1.4716  0.1575
18224TIP3    H176163   3.286   4.454   1.665  1.2349  0.3202  0.8996
18224TIP3    H276164   3.260   4.535   1.790  0.8666  0.2760  0.8524
18225TIP3   OH276165   5.697   5.796  15.993  0.3011 -0.7308 -0.3385
18225TIP3    H176166   5.637   5.724  16.012 -0.7445  0.0959 -0.4206
18225TIP3    H276167   5.640   5.868  15.966  1.3917 -0.1795 -1.2441
18226TIP3   OH276168   2.497   4.506   4.366  0.4786  0.0912 -0.7037
18226TIP3    H176169   2.478   4.415   4.387  1.5905  0.3013  1.4807
18226TIP3    H276170   2.425   4.555   4.407  0.6483  0.2824 -0.6355
18227TIP3   OH276171   2.944   3.504  14.896 -0.3346 -0.1761 -0.0306
18227TIP3    H176172   3.006   3.477  14.829 -0.1842  0.4627 -0.1588
18227TIP3    H276173   2.877   3.554  14.848 -1.8741 -2.2103 -0.1641
18228TIP3   OH276174   6.022   2.946  15.529 -0.1678 -0.1704 -0.3882
18228TIP3    H176175   6.022   3.034  15.566  0.3050 -0.9867  1.6811
18228TIP3    H276176   6.102   2.942  15.477  0.0245  0.4851 -0.1577
18229TIP3   OH276177   6.633   0.786   1.269 -0.2002  0.4197 -0.1487
18229TIP3    H176178   6.724   0.812   1.258 -0.4321  0.7434 -1.4387
18229TIP3    H276179   6.601   0.839   1.342  0.7433  0.0103  0.5772
18230TIP3   OH276180   4.768   6.182   2.115  0.2240 -1.1051 -0.0590
18230TIP3    H176181   4.710   6.258   2.119 -0.2712 -1.5010  3.1038
18230TIP3    H276182   4.710   6.109   2.093  0.1050 -1.0427  0.0460
18231TIP3   OH276183   4.241   2.142   3.307  0.6999 -0.9356 -0.0769
18231TIP3    H176184   4.294   2.064   3.325  0.7069 -0.7823  0.5914
18231TIP3    H276185   4.268   2.170   3.220  0.2216 -2.0699 -0.6073
18232TIP3   OH276186   2.914   2.699  12.802 -0.1154 -0.0510 -0.0434
18232TIP3    H176187   2.893   2.695  12.896  0.8486 -0.3972  0.1741
18232TIP3    H276188   2.985   2.763  12.796 -0.6141  0.4636 -0.6386
18233TIP3   OH276189   3.463   5.536   4.802  0.1557  0.3303 -0.1810
18233TIP3    H176190   3.524   5.596   4.846 -0.2892  0.1558  0.6819
18233TIP3    H276191   3.383   5.541   4.853 -0.9038  1.2918 -1.8688
18234TIP3   OH276192   6.195   4.686   5.635 -0.0369  0.3765  0.4191
18234TIP3    H176193   6.109   4.715   5.665  0.2013  0.8533  0.6660
18234TIP3    H276194   6.226   4.627   5.704  0.3851  1.2412  1.0027
18235TIP3   OH276195   3.809   0.060   2.969  0.2379  0.1734  0.6568
18235TIP3    H176196   3.861   0.051   2.889 -0.3809 -0.5728  0.3250
18235TIP3    H276197   3.828  -0.020   3.018 -1.4345 -0.6763  0.0148
18236TIP3   OH276198   0.872   6.284  15.991  0.1989  0.1833 -0.4016
18236TIP3    H176199   0.867   6.329  15.907 -1.3550  3.1972  1.0964
18236TIP3    H276200   0.785   6.294  16.029  0.1638 -3.1179  0.6722
18237TIP3   OH276201   2.414   3.520  15.600 -0.6458  0.8721  0.1737
18237TIP3    H176202   2.463   3.442  15.626 -0.0079  0.6729 -1.5275
18237TIP3    H276203   2.479   3.590  15.603 -0.3277  0.6972 -1.6093
18238TIP3   OH276204   5.185   6.401  11.825  0.3706  0.9028 -0.1084
18238TIP3    H176205   5.212   6.347  11.899 -2.4654  1.6265  1.6036
18238TIP3    H276206   5.090   6.411  11.836  0.2812  3.4531 -2.2168
18239TIP3   OH276207   5.639   2.036  13.471 -0.7520  0.2611 -0.2516
18239TIP3    H176208   5.633   2.103  13.403  1.0173  1.0225  0.2923
18239TIP3    H276209   5.628   2.084  13.553  0.6176 -0.0732  0.1543
18240TIP3   OH276210   3.523   2.933   1.426 -0.0094 -0.2203 -0.0600
18240TIP3    H176211   3.471   2.914   1.505  1.0968 -0.1733  0.7042
18240TIP3    H276212   3.458   2.945   1.357 -0.9449 -2.3254  0.3756
18241TIP3   OH276213   0.288   4.385   3.794  0.4337  0.6983 -0.5525
18241TIP3    H176214   0.220   4.388   3.726  0.9065 -0.7724 -1.1295
18241TIP3    H276215   0.364   4.426   3.752  0.3665  0.9087 -0.4695
18242TIP3   OH276216   3.806   4.257  13.106  0.9538  0.3795  0.6879
18242TIP3    H176217   3.739   4.308  13.151  0.6443 -0.6482  1.4249
18242TIP3    H276218   3.856   4.217  13.176  2.5712  1.3810  0.1591
18243TIP3   OH276219   0.835   1.755   3.106  0.1448 -0.5495 -0.6476
18243TIP3    H176220   0.900   1.816   3.140  0.9243 -0.8193 -1.6199
18243TIP3    H276221   0.873   1.668   3.120 -0.1173 -0.7259 -1.0029
18244TIP3   OH276222   4.268   0.024   2.221 -0.0801 -0.4187  0.0282
18244TIP3    H176223   4.234  -0.004   2.306  1.4944  3.2367  2.1032
18244TIP3    H276224   4.193   0.064   2.177 -0.0522  2.0697  1.9607
18245TIP3   OH276225   1.651   2.885  15.128 -0.1007  0.1263 -0.5754
18245TIP3    H176226   1.668   2.951  15.194 -1.9236  0.3728 -0.2863
18245TIP3    H276227   1.733   2.878  15.079  0.7971  1.0415  0.7269
18246TIP3   OH276228   5.078   1.770   3.672  0.3987  0.3906  0.3055
18246TIP3    H176229   5.080   1.740   3.763 -0.3131 -1.2680 -0.1883
18246TIP3    H276230   4.986   1.790   3.655 -0.1592 -2.7605 -1.0378
18247TIP3   OH276231   3.713   3.074   3.449  0.0336  0.1365  0.0270
18247TIP3    H176232   3.695   3.075   3.542  0.4605 -0.8344  0.1339
18247TIP3    H276233   3.638   3.118   3.409 -0.1192  0.6159  0.8217
18248TIP3   OH276234   5.876   1.041  16.693 -0.1682  0.1388 -0.1164
18248TIP3    H176235   5.915   1.016  16.609  0.2351 -1.1605  0.4344
18248TIP3    H276236   5.806   1.102  16.670  0.2127  0.1269 -1.3582
18249TIP3   OH276237   4.767   3.594  13.753  0.3152  0.7504  0.2217
18249TIP3    H176238   4.771   3.641  13.671 -0.0676  2.0759  0.9307
18249TIP3    H276239   4.832   3.525  13.745 -0.8755 -0.2434 -1.8365
18250TIP3   OH276240   0.673   4.221   0.842 -0.5666  0.0477  0.2485
18250TIP3    H176241   0.642   4.284   0.907  1.4902  0.1058  1.2612
18250TIP3    H276242   0.659   4.136   0.883  1.4867  0.1119  1.2210
18251TIP3   OH276243   3.613   4.846   4.892  0.0737  0.5301 -0.8815
18251TIP3    H176244   3.533   4.851   4.945  1.1465 -0.0819  0.8651
18251TIP3    H276245   3.590   4.784   4.822 -0.3164 -1.4628  0.9060
18252TIP3   OH276246   5.013   6.424   5.513  0.0763  0.6780  0.8604
18252TIP3    H176247   4.972   6.376   5.442 -1.1943  0.9177  1.3996
18252TIP3    H276248   5.060   6.358   5.564  1.8820  0.6471 -0.7427
18253TIP3   OH276249   3.253   3.776   5.181 -0.9004  0.4394 -0.1141
18253TIP3    H176250   3.270   3.762   5.088  0.1802  1.0141 -0.0204
18253TIP3    H276251   3.208   3.861   5.184 -2.6644 -0.4315 -0.2397
18254TIP3   OH276252   5.128   5.292  16.141 -0.9477 -0.0088  0.3583
18254TIP3    H176253   5.127   5.202  16.108  0.2298 -0.4921  1.5307
18254TIP3    H276254   5.219   5.309  16.163 -0.7979  2.1682 -1.5485
18255TIP3   OH276255   6.796   4.075  13.922 -0.2093 -0.2564  0.2048
18255TIP3    H176256   6.887   4.092  13.898 -0.2783 -0.9608 -0.5938
18255TIP3    H276257   6.746   4.095  13.842 -0.7343 -0.1077  0.5618
18256TIP3   OH276258   5.468   6.401   3.831 -0.1213  0.4146 -0.0346
18256TIP3    H176259   5.502   6.356   3.908  1.0345  1.5506  0.1486
18256TIP3    H276260   5.541   6.398   3.768 -0.2254  1.5484 -0.2172
18257TIP3   OH276261   3.504   5.664   0.264  1.0051  0.4993 -0.4023
18257TIP3    H176262   3.466   5.584   0.227  0.3749  0.1195  0.9980
18257TIP3    H276263   3.567   5.693   0.199 -1.0859  0.7007 -2.4861
18258TIP3   OH276264   3.287   3.728   1.604 -0.2681  0.8935  0.0653
18258TIP3    H176265   3.311   3.637   1.618 -1.1266  0.6732  0.1457
18258TIP3    H276266   3.337   3.777   1.669 -2.4437  0.1372  2.4474
18259TIP3   OH276267   0.593   3.284  10.402  0.0008 -0.2173  0.3513
18259TIP3    H176268   0.676   3.302  10.448 -0.1040  0.7783  0.1777
18259TIP3    H276269   0.605   3.196  10.365  0.8712 -0.2082  0.5759
18260TIP3   OH276270   1.359   3.790   2.840  0.1338  0.6481 -0.1589
18260TIP3    H176271   1.274   3.833   2.842  0.6047  1.7485 -1.7437
18260TIP3    H276272   1.375   3.772   2.747  1.3288 -0.1492  0.1751
18261TIP3   OH276273   2.887   2.028  16.199  0.3176 -0.1728  0.2053
18261TIP3    H176274   2.927   1.959  16.146 -0.6024 -0.7196  0.1942
18261TIP3    H276275   2.954   2.050  16.264  2.1956  1.7775 -2.1834
18262TIP3   OH276276   4.908   1.278  15.228 -0.0133 -0.1948  0.4966
18262TIP3    H176277   4.842   1.326  15.279 -0.3840 -0.3045  0.1285
18262TIP3    H276278   4.990   1.322  15.248  0.1110 -1.2381  2.4446
18263TIP3   OH276279   5.461   5.460   1.899  0.3912 -0.6000 -0.0435
18263TIP3    H176280   5.480   5.495   1.986  0.7583 -0.7446 -0.0652
18263TIP3    H276281   5.460   5.365   1.911  0.5581 -0.6245 -0.2220
18264TIP3   OH276282   0.461   0.675   2.586 -0.4243  0.2031  0.2805
18264TIP3    H176283   0.494   0.765   2.593 -0.6987  0.5268 -1.9152
18264TIP3    H276284   0.366   0.684   2.591 -0.6372  0.4391 -2.5506
18265TIP3   OH276285   5.814   4.371  11.050 -0.8219 -0.1445 -0.2443
18265TIP3    H176286   5.869   4.446  11.028  0.5438 -0.5526  1.5441
18265TIP3    H276287   5.861   4.296  11.013 -0.9115 -0.3452  0.0473
18266TIP3   OH276288   6.650   6.797   6.193  0.0566 -0.1217  0.2272
18266TIP3    H176289   6.638   6.765   6.282  3.0395 -0.8889  0.4717
18266TIP3    H276290   6.578   6.859   6.180  0.1635  0.9636  3.6308
18267TIP3   OH276291   0.489   3.331  14.500 -0.2540  0.2340  0.1920
18267TIP3    H176292   0.451   3.361  14.417  0.7958 -0.9380 -0.7623
18267TIP3    H276293   0.445   3.383  14.567 -2.0223  0.3799 -0.9978
18268TIP3   OH276294   5.891   1.567   1.728  0.1683 -0.0209 -0.1131
18268TIP3    H176295   5.881   1.650   1.680 -2.1658  0.1221  0.5080
18268TIP3    H276296   5.878   1.500   1.661 -2.4431  0.1791  0.0794
18269TIP3   OH276297   6.462   0.355  16.264 -0.5878 -0.3901 -0.8071
18269TIP3    H176298   6.406   0.334  16.339  0.8753  0.1895  0.4905
18269TIP3    H276299   6.543   0.388  16.303 -0.0191  0.5156 -2.6677
18270TIP3   OH276300   1.406   1.384   4.713  0.0423  0.1092  0.6833
18270TIP3    H176301   1.483   1.329   4.696  1.7071  1.6447  2.7520
18270TIP3    H276302   1.397   1.437   4.634  0.3396 -0.9356 -0.0780
18271TIP3   OH276303   3.434   4.883   4.271 -0.5134  0.2265 -0.1913
18271TIP3    H176304   3.493   4.958   4.269 -1.9222  1.4809  2.0076
18271TIP3    H276305   3.438   4.851   4.361 -0.5395 -1.8917 -0.8845
18272TIP3   OH276306   1.534   3.963   4.008  0.0907  0.1763  0.4405
18272TIP3    H176307   1.485   3.995   3.933  0.9851 -0.8418 -0.6056
18272TIP3    H276308   1.589   3.893   3.974  1.0876  0.1926  1.8905
18273TIP3   OH276309   2.762   0.428   0.978 -0.9428 -0.8308  0.1717
18273TIP3    H176310   2.845   0.406   0.935  1.4184  2.7321  2.4431
18273TIP3    H276311   2.706   0.459   0.907  0.6312 -0.8098 -1.1135
18274TIP3   OH276312   5.323   1.661   0.717 -0.7658 -0.5306  0.0295
18274TIP3    H176313   5.372   1.582   0.699 -0.7451 -0.8937  1.6041
18274TIP3    H276314   5.378   1.711   0.777  0.2939  1.8207 -2.6535
18275TIP3   OH276315   0.489   1.539  13.327  0.1031 -0.4162 -0.2481
18275TIP3    H176316   0.409   1.531  13.276 -0.6196  0.6381  0.6568
18275TIP3    H276317   0.558   1.553  13.263 -0.5476 -0.5787 -0.9970
18276TIP3   OH276318   3.486   0.797  16.722  0.4216 -0.2279  0.7008
18276TIP3    H176319   3.510   0.725  16.664  0.2756  0.7721 -0.6493
18276TIP3    H276320   3.401   0.772  16.757  0.1271 -0.4751 -0.1703
18277TIP3   OH276321   0.234   2.944  11.754  0.4584  0.0244 -0.4404
18277TIP3    H176322   0.288   2.875  11.793 -0.0957  0.1570  0.5749
18277TIP3    H276323   0.201   2.994  11.828 -1.0338 -0.0224 -1.0453
18278TIP3   OH276324   6.504   4.123  14.182 -0.2008 -0.0181  0.6641
18278TIP3    H176325   6.463   4.100  14.266 -0.8491 -2.8714 -0.3043
18278TIP3    H276326   6.432   4.159  14.130 -0.3540 -0.3943  0.6076
18279TIP3   OH276327   1.888   4.643   0.322  0.0227  0.0697 -0.0891
18279TIP3    H176328   1.956   4.627   0.387 -0.8271  0.2027  0.8490
18279TIP3    H276329   1.870   4.737   0.328  0.8317  0.3483 -1.4369
18280TIP3   OH276330   3.270   3.603  13.078  0.5555 -0.4324  0.6143
18280TIP3    H176331   3.265   3.582  12.985 -1.0403  1.8391  0.0738
18280TIP3    H276332   3.359   3.635  13.091  0.6930 -0.4468 -0.2391
18281TIP3   OH276333   6.336   2.705   4.078  1.1308 -0.2261  0.2008
18281TIP3    H176334   6.426   2.672   4.084  1.8140  1.5973  0.3853
18281TIP3    H276335   6.333   2.751   3.994  1.3704  2.5015  1.6090
18282TIP3   OH276336   3.986   2.168  14.831  0.0924  0.1488  0.5693
18282TIP3    H176337   3.900   2.140  14.800  0.2852 -0.2222  0.3668
18282TIP3    H276338   4.045   2.152  14.757  0.5506 -0.7166  1.1142
18283TIP3   OH276339   4.275   4.546  12.294 -1.1739 -0.2315 -0.3619
18283TIP3    H176340   4.332   4.584  12.228  0.3484 -2.2317 -0.2860
18283TIP3    H276341   4.210   4.614  12.311  0.4666  1.6925 -1.3167
18284TIP3   OH276342   5.039   3.858   1.116  0.4240 -0.1024  0.8376
18284TIP3    H176343   4.949   3.834   1.138  0.7022  0.0723  2.2392
18284TIP3    H276344   5.066   3.916   1.187  0.9137  1.6451 -0.6887
18285TIP3   OH276345   5.260   2.637   4.329  0.0467  0.4800 -0.1367
18285TIP3    H176346   5.311   2.650   4.409 -1.3530 -0.8281  1.0180
18285TIP3    H276347   5.304   2.565   4.284  0.3151  0.6196 -0.0993
18286TIP3   OH276348   1.995   5.379   2.302 -0.3938  0.9079 -0.5409
18286TIP3    H176349   2.001   5.334   2.386  0.6514  0.4537 -0.8296
18286TIP3    H276350   2.036   5.464   2.317 -1.9334  1.6060 -0.1195
18287TIP3   OH276351   2.361   3.622  16.929 -0.6973 -0.9468 -0.5689
18287TIP3    H176352   2.426   3.648  16.994 -0.7022  0.5001 -1.0869
18287TIP3    H276353   2.411   3.582  16.858 -0.5959 -1.6797 -0.0849
18288TIP3   OH276354   2.046   3.957   2.334 -0.3665 -0.1061  0.1008
18288TIP3    H176355   1.997   3.881   2.302  1.0071 -0.2517 -1.8788
18288TIP3    H276356   2.122   3.961   2.276  1.1356  1.0351  2.0562
18289TIP3   OH276357   2.559   1.665   5.340 -0.1872  1.1241 -0.0863
18289TIP3    H176358   2.616   1.707   5.276  2.1005  0.2601  1.2378
18289TIP3    H276359   2.615   1.654   5.417 -2.2872  0.4959  1.4414
18290TIP3   OH276360   4.799   3.108  13.566 -0.0325  0.0295  0.2610
18290TIP3    H176361   4.744   3.095  13.489 -0.7906  1.6595  0.4833
18290TIP3    H276362   4.854   3.030  13.569 -1.4714 -1.0871 -0.6794
18291TIP3   OH276363   0.194   3.181  13.341  0.2957  0.0157  1.0161
18291TIP3    H176364   0.211   3.175  13.247  1.9456  2.3959  1.0770
18291TIP3    H276365   0.136   3.257  13.350  0.2730 -0.0951  1.9444
18292TIP3   OH276366   1.283   2.790  12.370 -0.4118  0.8810  0.6263
18292TIP3    H176367   1.212   2.853  12.379  0.2196  1.5390  1.0675
18292TIP3    H276368   1.311   2.799  12.279 -0.9789  0.5102  0.4057
18293TIP3   OH276369   1.093   6.778   5.875 -0.1589 -0.3081  0.1924
18293TIP3    H176370   1.037   6.773   5.797  1.0662 -1.6606 -0.6550
18293TIP3    H276371   1.181   6.764   5.841  0.2735 -2.4551  2.0063
18294TIP3   OH276372   5.879   0.565   3.432 -0.1259  0.2906 -0.1038
18294TIP3    H176373   5.793   0.595   3.464  0.3136  0.8924  0.5492
18294TIP3    H276374   5.915   0.640   3.387  0.7576  0.6059  1.0779
18295TIP3   OH276375   4.277   4.968   2.350 -0.1923  0.5915  0.1549
18295TIP3    H176376   4.194   4.939   2.387 -0.6492  0.9551 -0.5582
18295TIP3    H276377   4.320   5.015   2.421  0.0577 -0.8412  0.9736
18296TIP3   OH276378   1.840   6.553   5.463  0.4670  0.3427  0.1636
18296TIP3    H176379   1.755   6.577   5.502 -0.0327 -2.3583  0.9063
18296TIP3    H276380   1.864   6.629   5.410 -2.6729  0.9978 -0.5031
18297TIP3   OH276381   6.052   0.072   4.863 -0.6926 -0.1762  0.2297
18297TIP3    H176382   6.107   0.096   4.788 -0.4630  0.2924  0.5480
18297TIP3    H276383   6.008  -0.008   4.834  0.5299 -0.8604  0.1427
18298TIP3   OH276384   5.191   0.597  15.824 -0.2536  0.8511  0.1124
18298TIP3    H176385   5.157   0.532  15.763 -0.0444 -0.6208  1.4836
18298TIP3    H276386   5.163   0.565  15.910 -0.2012  2.6349  0.8309
18299TIP3   OH276387   3.929   3.553  15.565 -0.0700 -0.5009  0.1383
18299TIP3    H176388   4.004   3.566  15.506  0.5253 -1.4826  0.6518
18299TIP3    H276389   3.853   3.568  15.510  0.4846 -0.6722 -0.6977
18300TIP3   OH276390   4.007   3.638   5.621 -0.2525  0.0380  0.1606
18300TIP3    H176391   3.950   3.645   5.698 -1.1833  0.1893 -0.5232
18300TIP3    H276392   3.981   3.712   5.565  0.0889 -0.3299 -0.4993
18301TIP3   OH276393   4.002   4.178  15.254 -0.0163  0.3512  0.4848
18301TIP3    H176394   3.948   4.256  15.266 -0.9649 -0.1993 -0.0908
18301TIP3    H276395   3.983   4.149  15.165 -1.7776 -2.0511  1.5221
18302TIP3   OH276396   0.823   5.567   5.276 -0.2239 -0.0882  0.3853
18302TIP3    H176397   0.769   5.624   5.222  1.0355  0.2953 -0.5174
18302TIP3    H276398   0.805   5.594   5.365 -0.9972  0.4853  0.0668
18303TIP3   OH276399   0.887   6.721  16.978  1.1940  0.2714 -0.3128
18303TIP3    H176400   0.797   6.688  16.979  0.4173  2.0706  3.1321
18303TIP3    H276401   0.884   6.797  16.919  0.5146  0.1768 -0.4094
18304TIP3   OH276402   0.047   6.399   5.290  0.2352 -0.3425  0.2260
18304TIP3    H176403   0.136   6.431   5.299  1.2321 -2.0326 -2.4737
18304TIP3    H276404  -0.003   6.476   5.260  1.0841  0.2741  0.3585
18305TIP3   OH276405   2.352   0.466   2.964 -1.2672  0.2409  0.3030
18305TIP3    H176406   2.264   0.435   2.985 -0.7061 -1.5388  0.2572
18305TIP3    H276407   2.354   0.467   2.868 -1.7010  1.8088  0.2838
18306TIP3   OH276408   5.390   5.591   0.489  0.0898 -0.3642 -0.1732
18306TIP3    H176409   5.406   5.612   0.581  0.8051  0.9233 -0.5588
18306TIP3    H276410   5.297   5.572   0.484  0.0712 -0.5812  0.8448
18307TIP3   OH276411   2.526   5.898  16.355  0.0873  0.2427 -0.1247
18307TIP3    H176412   2.545   5.963  16.287 -0.2174  0.5184  0.0573
18307TIP3    H276413   2.564   5.934  16.435 -3.0364  1.8530  0.7488
18308TIP3   OH276414   2.191   6.495  13.148  0.5751 -0.0066 -0.5091
18308TIP3    H176415   2.279   6.529  13.162 -0.0350  0.8981  1.7691
18308TIP3    H276416   2.183   6.421  13.209 -0.3333  0.1778 -0.3771
18309TIP3   OH276417   4.291   0.542   6.529  1.1137  0.2843  0.7613
18309TIP3    H176418   4.308   0.502   6.614 -0.0982  1.4918  1.6079
18309TIP3    H276419   4.220   0.491   6.491  1.1625  0.1955  0.7912
18310TIP3   OH276420   3.407   2.194  16.443 -0.1257 -0.1596 -0.0471
18310TIP3    H176421   3.438   2.201  16.353 -1.2091 -0.8210 -0.4741
18310TIP3    H276422   3.393   2.285  16.470  0.6571  0.0670 -0.3747
18311TIP3   OH276423   5.001   5.645  14.066 -0.7063 -0.4147 -0.6755
18311TIP3    H176424   4.936   5.607  14.125  0.3404 -1.6262 -0.2531
18311TIP3    H276425   5.029   5.726  14.108 -0.2962 -1.0429  0.2804
18312TIP3   OH276426   1.104   2.436   3.992  0.1883  0.2714 -0.8046
18312TIP3    H176427   1.141   2.518   4.024  0.0060  0.3925 -0.9021
18312TIP3    H276428   1.176   2.372   4.000 -0.7462 -0.5591  2.9401
18313TIP3   OH276429   2.506   5.595  10.990 -0.1343 -0.9719  0.5586
18313TIP3    H176430   2.556   5.517  11.013 -0.6942 -1.2081  0.9882
18313TIP3    H276431   2.500   5.592  10.894  3.7036  0.9259  0.0581
18314TIP3   OH276432   3.854   6.661  15.614 -0.2277  0.1827  0.2192
18314TIP3    H176433   3.817   6.673  15.527 -0.3773  3.3717  0.6017
18314TIP3    H276434   3.949   6.669  15.602 -0.0368 -1.7448  0.0979
18315TIP3   OH276435   0.658   0.299   5.064  0.0032 -0.0299  0.2611
18315TIP3    H176436   0.627   0.379   5.021  1.5509  0.2463 -0.4449
18315TIP3    H276437   0.649   0.316   5.157 -0.8308  0.4803  0.0934
18316TIP3   OH276438   4.063   6.653  12.404  0.0267 -0.2013 -0.0328
18316TIP3    H176439   4.063   6.577  12.462 -0.8601 -0.5521 -0.4834
18316TIP3    H276440   4.058   6.616  12.316 -1.5489  0.3936 -0.2194
18317TIP3   OH276441   2.706   6.016  11.664 -0.3618 -0.2216 -0.0915
18317TIP3    H176442   2.709   6.111  11.657 -2.3122 -0.1573 -0.6486
18317TIP3    H276443   2.642   5.998  11.732  2.1843 -1.1801  2.2607
18318TIP3   OH276444   5.819   5.713   4.840  0.3024 -0.1813  0.1170
18318TIP3    H176445   5.898   5.668   4.810  0.7747  1.2967 -0.9641
18318TIP3    H276446   5.779   5.652   4.903  1.1087 -1.8969 -0.9563
18319TIP3   OH276447   0.568   5.002  16.616  0.6257 -0.6649 -0.3045
18319TIP3    H176448   0.526   5.027  16.533  0.3594 -1.3072 -0.3738
18319TIP3    H276449   0.640   5.064  16.626 -0.8200  0.9865  0.2166
18320TIP3   OH276450   6.040   0.510   6.239  0.3215 -0.7194 -0.2524
18320TIP3    H176451   5.985   0.563   6.297  1.3734 -1.4289  1.4940
18320TIP3    H276452   6.116   0.565   6.222 -0.1096 -0.4078 -1.2176
18321TIP3   OH276453   4.067   0.009  15.586 -0.1769 -0.3379  0.3582
18321TIP3    H176454   4.157   0.037  15.606  0.2472 -1.5263  0.1947
18321TIP3    H276455   4.012   0.068  15.637  0.7242 -0.0315  1.0109
18322TIP3   OH276456   4.117   3.252   0.472 -0.0937  0.2477 -0.1448
18322TIP3    H176457   4.051   3.183   0.482 -0.4952  0.7203  0.5809
18322TIP3    H276458   4.132   3.257   0.378  0.5569 -1.3925 -0.1703
18323TIP3   OH276459   0.413   6.309  16.601  0.2188 -0.3406  0.0066
18323TIP3    H176460   0.479   6.363  16.558  0.1894 -1.1075 -1.0373
18323TIP3    H276461   0.426   6.326  16.695  1.8314 -0.3901 -0.1740
18324TIP3   OH276462   4.461   3.032  15.497  0.5270  0.0296  0.1085
18324TIP3    H176463   4.431   3.015  15.587 -0.1630 -0.3235 -0.1780
18324TIP3    H276464   4.509   3.114  15.503 -1.0439  0.9661  0.4880
18325TIP3   OH276465   4.131   5.103  16.930 -0.3914  0.0445 -0.0995
18325TIP3    H176466   4.057   5.096  16.991  1.4411 -2.4814  2.0296
18325TIP3    H276467   4.091   5.092  16.844 -2.5244 -1.4791  0.9658
18326TIP3   OH276468   3.693   5.161   2.394 -0.5278 -0.1011  0.8554
18326TIP3    H176469   3.666   5.245   2.432 -0.9490 -0.3199  1.0438
18326TIP3    H276470   3.614   5.127   2.352 -0.0502  0.1722 -0.3090
18327TIP3   OH276471   3.940   0.530  14.262 -0.0490 -0.0015 -0.5748
18327TIP3    H176472   3.944   0.559  14.354  0.2061  2.1669 -1.1973
18327TIP3    H276473   3.977   0.442  14.263 -1.4086 -0.6154  1.6027
18328TIP3   OH276474   5.328   1.732  13.594 -0.2068 -0.0018 -0.3421
18328TIP3    H176475   5.328   1.751  13.500  0.4637  1.4889 -0.0698
18328TIP3    H276476   5.420   1.736  13.619 -0.5055  1.1493  0.6579
18329TIP3   OH276477   3.156   0.031   2.167 -0.3494 -0.4633  0.2953
18329TIP3    H176478   3.137  -0.020   2.088  1.4747 -2.7790  1.2291
18329TIP3    H276479   3.160  -0.034   2.237  4.6076  0.3805  1.1863
18330TIP3   OH276480   4.718   3.426  15.304  0.0990  0.7254 -0.0101
18330TIP3    H176481   4.680   3.474  15.231 -1.0283  1.4124  1.0030
18330TIP3    H276482   4.784   3.486  15.340 -2.8660  2.7310  2.7127
18331TIP3   OH276483   6.055   0.030  13.316 -0.3009  0.0035 -0.2198
18331TIP3    H176484   5.993  -0.016  13.371 -1.2016  0.7355 -0.6048
18331TIP3    H276485   6.130  -0.030  13.309 -1.8453 -1.8669 -1.5553
18332TIP3   OH276486   3.632   4.868   3.131  0.4226  0.0883  0.7691
18332TIP3    H176487   3.589   4.783   3.128  1.9283 -0.6729 -0.4417
18332TIP3    H276488   3.656   4.886   3.040 -2.7225  3.3966  0.3514
18333TIP3   OH276489   6.400   2.575  13.224 -0.6114  0.3231 -0.7049
18333TIP3    H176490   6.443   2.654  13.258 -0.2361 -1.1223  2.4917
18333TIP3    H276491   6.469   2.529  13.177 -0.1356  0.6521 -0.3379
18334TIP3   OH276492   4.143   6.385   2.541  0.8023 -0.0270 -0.6488
18334TIP3    H176493   4.118   6.411   2.629  2.5739  0.5831 -0.2889
18334TIP3    H276494   4.060   6.361   2.499 -0.4411  2.1626  0.3364
18335TIP3   OH276495   1.274   5.532  17.094 -0.0467 -0.3657 -0.2170
18335TIP3    H176496   1.265   5.497  17.182 -0.5354 -0.4978 -0.3146
18335TIP3    H276497   1.187   5.567  17.073  0.1590 -0.0176 -0.5090
18336TIP3   OH276498   6.193   6.176   5.102  0.2226 -0.1695  0.4050
18336TIP3    H176499   6.207   6.082   5.113  0.7618  0.0744  2.2062
18336TIP3    H276500   6.198   6.211   5.191 -0.2312  1.5371 -0.2034
18337TIP3   OH276501   6.238   0.533  13.530  0.1520  0.4766  0.1621
18337TIP3    H176502   6.269   0.467  13.468 -0.0842  0.4616  0.0566
18337TIP3    H276503   6.252   0.616  13.485  1.2295  0.5637  0.6307
18338TIP3   OH276504   6.178   6.477  12.620 -1.3001  0.2972 -0.2678
18338TIP3    H176505   6.148   6.542  12.556 -1.4812  0.2077 -0.2761
18338TIP3    H276506   6.143   6.394  12.587 -2.2611  0.3918  0.4886
18339TIP3   OH276507   3.994   0.565  15.939  0.0548  0.7996  0.3733
18339TIP3    H176508   4.016   0.658  15.947  1.3257  0.5293  0.2622
18339TIP3    H276509   3.990   0.533  16.029 -1.0326  1.0890  0.4396
18340TIP3   OH276510   4.717   5.354  15.481 -0.4244  0.5659  0.9647
18340TIP3    H176511   4.765   5.271  15.474 -1.8915 -0.1842 -3.8482
18340TIP3    H276512   4.775   5.410  15.532  2.4469 -2.2410  1.1604
18341TIP3   OH276513   2.561   5.252   0.554 -0.1955 -0.3097  0.1829
18341TIP3    H176514   2.546   5.171   0.504  2.0815 -1.6158  1.4148
18341TIP3    H276515   2.529   5.233   0.642 -1.0513  0.7184  0.1105
18342TIP3   OH276516   4.687   2.803  10.810  0.7496 -0.2181 -0.4237
18342TIP3    H176517   4.605   2.772  10.772 -0.1899  2.5913 -0.9321
18342TIP3    H276518   4.750   2.803  10.738  0.0013  1.5282 -1.1277
18343TIP3   OH276519   1.906   2.073   5.805 -0.1674  0.0325  0.2496
18343TIP3    H176520   1.888   2.074   5.899  0.6729  0.5921  0.4202
18343TIP3    H276521   1.858   2.149   5.771  0.6938  0.6948  0.4751
18344TIP3   OH276522   1.992   2.271  11.506  0.4425  0.3190  0.5834
18344TIP3    H176523   2.049   2.261  11.583  2.4956  0.9711 -0.7769
18344TIP3    H276524   1.984   2.366  11.494 -1.0998  0.2480  0.8107
18345TIP3   OH276525   0.524   5.912  15.614 -0.3417 -0.0614  0.2428
18345TIP3    H176526   0.466   5.908  15.690  0.9911 -2.0057  1.2367
18345TIP3    H276527   0.571   5.995  15.624 -0.1255 -0.3319  1.6013
18346TIP3   OH276528   6.788   5.628  14.654  0.0253  0.3528 -0.2937
18346TIP3    H176529   6.731   5.698  14.685 -1.2235 -0.2833 -1.0730
18346TIP3    H276530   6.815   5.655  14.566  0.5447  0.4214 -0.1183
18347TIP3   OH276531   1.379   3.019  13.783  0.4947  0.2590  0.0300
18347TIP3    H176532   1.322   3.051  13.712  0.3156 -0.1339 -0.0056
18347TIP3    H276533   1.426   3.097  13.812  0.5872  0.4215 -0.5372
18348TIP3   OH276534   1.148   1.031   2.618  1.0986  0.2384 -1.0439
18348TIP3    H176535   1.167   0.947   2.578 -0.1502 -1.3054  1.3287
18348TIP3    H276536   1.231   1.059   2.657  1.3343 -0.3323 -1.1318
18349TIP3   OH276537   5.989   2.145  16.463  0.0291 -0.0099 -0.1285
18349TIP3    H176538   6.012   2.195  16.541 -2.3995  1.1075 -0.0281
18349TIP3    H276539   5.894   2.135  16.469 -0.4831  1.4404 -3.6737
18350TIP3   OH276540   5.878   0.888  14.052  0.5413 -0.5878  0.3123
18350TIP3    H176541   5.820   0.821  14.089  0.3712  0.1035  1.3327
18350TIP3    H276542   5.868   0.964  14.110  2.0768 -0.2769  0.2247
18351TIP3   OH276543   3.061   1.403  14.911 -0.0985  0.1045  0.1370
18351TIP3    H176544   3.016   1.395  14.995  0.7258 -1.8492  0.4521
18351TIP3    H276545   2.991   1.413  14.846 -0.8743 -0.7942  0.8174
18352TIP3   OH276546   4.395   2.076  11.389  0.2368  0.0353 -0.4506
18352TIP3    H176547   4.318   2.068  11.333  0.0741 -0.5594 -0.1499
18352TIP3    H276548   4.437   2.157  11.361  0.2811 -0.3667 -1.5973
18353TIP3   OH276549   1.793   2.063   3.068 -0.2360 -0.0779 -0.3323
18353TIP3    H176550   1.783   2.140   3.011  1.2913  1.0577  0.8295
18353TIP3    H276551   1.862   2.088   3.130  0.4458 -2.4842 -0.0232
18354TIP3   OH276552   3.807   2.838  11.191  0.5279  0.3351  0.1517
18354TIP3    H176553   3.860   2.779  11.138 -0.1261  0.3896 -0.5850
18354TIP3    H276554   3.718   2.825  11.159  0.4363  2.1188 -0.4351
18355TIP3   OH276555   1.990   4.864   0.155  0.5242  0.1586  0.3699
18355TIP3    H176556   2.031   4.901   0.077  0.0235  1.3663  0.6537
18355TIP3    H276557   1.934   4.793   0.121  0.2686  0.7033 -0.3820
18356TIP3   OH276558   5.386   2.368   6.325  0.1560 -0.2368  0.3386
18356TIP3    H176559   5.323   2.297   6.330 -0.7860  0.6134  0.9755
18356TIP3    H276560   5.334   2.448   6.333  1.1963  0.5317 -0.2173
18357TIP3   OH276561   3.110   5.796  14.798 -0.4169  0.1764  0.1366
18357TIP3    H176562   3.143   5.746  14.872  0.6292  1.5995  0.6812
18357TIP3    H276563   3.186   5.843  14.764 -0.8428 -0.5474 -1.9594
18358TIP3   OH276564   1.722   0.867  14.192 -0.3345  0.0621 -0.1471
18358TIP3    H176565   1.724   0.871  14.096  0.2609 -0.6957 -0.1805
18358TIP3    H276566   1.638   0.905  14.216  0.0602  1.4890 -0.8968
18359TIP3   OH276567   4.603   5.190   5.242  0.1068  0.0102 -0.1039
18359TIP3    H176568   4.586   5.100   5.213 -1.0994  0.0339  0.4818
18359TIP3    H276569   4.651   5.230   5.170  1.2534 -1.2995 -0.1056
18360TIP3   OH276570   3.835   3.417  14.627  0.0886  0.5250 -0.5698
18360TIP3    H176571   3.899   3.479  14.592 -0.0042 -0.3064 -2.3202
18360TIP3    H276572   3.859   3.333  14.587 -0.9413 -0.1933  0.2598
18361TIP3   OH276573   0.249   2.134  13.653 -0.2063 -0.0632 -0.7330
18361TIP3    H176574   0.182   2.197  13.682  3.0681  3.4624 -0.0399
18361TIP3    H276575   0.248   2.066  13.720 -2.9506 -0.1049 -0.7012
18362TIP3   OH276576   3.538   1.152   4.142 -0.3428  0.2948 -0.2153
18362TIP3    H176577   3.546   1.072   4.091 -0.2982  0.3230 -0.2522
18362TIP3    H276578   3.449   1.182   4.125 -0.4531  0.1054  0.0176
18363TIP3   OH276579   3.388   5.246   5.858 -0.2092  0.3923  0.0435
18363TIP3    H176580   3.305   5.230   5.903  0.5320 -1.8357  0.7917
18363TIP3    H276581   3.450   5.188   5.902  1.4208  0.9054 -1.4520
18364TIP3   OH276582   1.222   3.734  13.080  0.1412 -0.3206  0.6012
18364TIP3    H176583   1.147   3.780  13.119 -1.9432 -1.0003 -2.3059
18364TIP3    H276584   1.281   3.803  13.053 -2.2407  0.7844 -2.3174
18365TIP3   OH276585   4.540   6.318  16.060 -0.1164  0.2099  0.3848
18365TIP3    H176586   4.628   6.287  16.037 -0.0605 -0.0507  0.9402
18365TIP3    H276587   4.518   6.270  16.140  0.2887  2.1467  1.7084
18366TIP3   OH276588   2.713   3.640  16.131 -0.1804  0.4538  0.1408
18366TIP3    H176589   2.707   3.548  16.155 -0.3282  0.1195 -1.1125
18366TIP3    H276590   2.720   3.686  16.214 -1.0451 -0.6125  0.8341
18367TIP3   OH276591   1.680   2.909  13.636  0.5994 -0.4223 -0.3075
18367TIP3    H176592   1.616   2.917  13.706  0.5392  1.4203 -0.5237
18367TIP3    H276593   1.630   2.872  13.563 -1.0248  3.1900 -1.2844
18368TIP3   OH276594   6.027   4.725   4.320 -0.3006 -0.2634 -0.5863
18368TIP3    H176595   6.117   4.744   4.297 -0.6862  1.5909 -0.7019
18368TIP3    H276596   5.998   4.660   4.255  1.1679 -1.5243 -0.0275
18369TIP3   OH276597   1.027   5.690  14.057 -0.2325  0.1941 -0.8316
18369TIP3    H176598   1.077   5.721  14.133 -0.7066 -0.2205 -0.3372
18369TIP3    H276599   1.093   5.650  14.000 -0.1790 -2.2917  0.7886
18370TIP3   OH276600   0.137   6.676  11.527 -0.4969 -0.2649 -0.1813
18370TIP3    H176601   0.137   6.743  11.595 -1.5607 -0.9445  0.5116
18370TIP3    H276602   0.044   6.657  11.512 -0.2241 -1.2802 -0.6609
18371TIP3   OH276603   0.402   1.670   1.765 -0.7089 -0.1765 -0.5287
18371TIP3    H176604   0.346   1.593   1.760 -2.7028  1.2183 -0.7399
18371TIP3    H276605   0.346   1.739   1.800  0.8221  1.3514 -0.9285
18372TIP3   OH276606   2.480   4.085   3.131  0.3287  0.2959  0.2506
18372TIP3    H176607   2.543   4.056   3.196  0.3883 -1.2860 -0.4813
18372TIP3    H276608   2.421   4.144   3.179  0.6859 -0.4187  1.5929
18373TIP3   OH276609   3.167   4.707  15.922  0.4114 -0.5355 -0.3845
18373TIP3    H176610   3.184   4.757  15.842  1.4817 -1.1884 -0.5807
18373TIP3    H276611   3.231   4.739  15.985 -0.2202 -0.2491  0.1254
18374TIP3   OH276612   2.263   4.002   0.449  0.4569  0.0833  0.1202
18374TIP3    H176613   2.170   3.983   0.440  0.1413  2.1202 -1.7585
18374TIP3    H276614   2.307   3.921   0.423 -0.7668 -0.8802  0.9865
18375TIP3   OH276615   5.977   5.563   4.649 -0.8943  0.1283  0.1864
18375TIP3    H176616   5.928   5.488   4.614  1.4671  0.1421 -3.7245
18375TIP3    H276617   6.034   5.526   4.715 -0.9558 -1.2664 -0.5105
18376TIP3   OH276618   5.972   4.247   0.698 -0.1534 -0.2469  0.3809
18376TIP3    H176619   5.938   4.279   0.781 -1.6499  1.5648 -0.8239
18376TIP3    H276620   6.066   4.260   0.703 -0.2283 -0.1754  1.7952
18377TIP3   OH276621   4.812   0.889  12.323 -0.0418  0.1972  1.0596
18377TIP3    H176622   4.809   0.797  12.351 -0.0258  0.1944  1.0518
18377TIP3    H276623   4.880   0.928  12.378  1.2981 -0.2284 -0.2482
18378TIP3   OH276624   0.786   3.652   5.332  0.0431 -0.2728  0.4283
18378TIP3    H176625   0.759   3.661   5.424  3.4357  0.9336  1.4461
18378TIP3    H276626   0.823   3.737   5.309  2.5902 -1.5997 -0.7856
18379TIP3   OH276627   4.535   6.624  14.131 -0.4471  0.1600  0.4587
18379TIP3    H176628   4.450   6.597  14.166 -1.7693  0.7288 -2.0624
18379TIP3    H276629   4.517   6.649  14.040  2.1313  1.8928  0.3123
18380TIP3   OH276630   2.082   3.494  15.636 -0.1644  0.7198  0.1387
18380TIP3    H176631   2.176   3.475  15.637  0.2300  2.4723  1.0861
18380TIP3    H276632   2.052   3.467  15.723 -0.6889 -0.4177 -0.3812
18381TIP3   OH276633   3.617   1.572   2.596  0.3033 -0.5867  0.0588
18381TIP3    H176634   3.635   1.649   2.649 -1.4821 -0.4383  0.5163
18381TIP3    H276635   3.636   1.599   2.506 -1.1084  0.7025  0.1063
18382TIP3   OH276636   4.813   5.960   6.603  0.3737  0.1101  0.4501
18382TIP3    H176637   4.762   5.994   6.529 -0.0242  0.0404  0.6938
18382TIP3    H276638   4.859   5.884   6.567  0.6017  0.3899  0.1313
18383TIP3   OH276639   2.649   5.400   4.068 -0.2775  0.0001  0.3373
18383TIP3    H176640   2.640   5.415   4.162  1.9183  1.0328  0.4614
18383TIP3    H276641   2.597   5.469   4.028 -0.8482 -0.1532  0.8090
18384TIP3   OH276642   0.395   5.213  13.507 -0.0505  0.2626 -0.3370
18384TIP3    H176643   0.323   5.276  13.501  0.1963  0.8516  2.0151
18384TIP3    H276644   0.363   5.136  13.460 -2.3250  0.4394  0.7729
18385TIP3   OH276645   4.342   0.142   4.910  0.6243 -0.2246 -0.5865
18385TIP3    H176646   4.379   0.055   4.902 -0.9170 -0.8949 -0.8271
18385TIP3    H276647   4.250   0.131   4.885  0.0467  1.1924  0.7466
18386TIP3   OH276648   3.444   2.675  12.365 -0.1137  0.2353 -0.1520
18386TIP3    H176649   3.500   2.619  12.311 -0.5083  0.5968 -0.9589
18386TIP3    H276650   3.434   2.627  12.447 -0.8242 -1.1088 -0.9816
18387TIP3   OH276651   1.080   1.462   3.856  0.2285  0.0469  0.2245
18387TIP3    H176652   1.066   1.398   3.926 -1.9826  0.6442  0.4060
18387TIP3    H276653   0.991   1.485   3.827  1.0568  0.6683 -2.0023
18388TIP3   OH276654   4.673   4.074  15.980 -0.5670  0.4786  0.2278
18388TIP3    H176655   4.682   4.128  15.902  0.0279  0.6372  0.4022
18388TIP3    H276656   4.762   4.042  15.998 -0.5683  0.9642  1.2056
18389TIP3   OH276657   2.852   4.366  13.764  0.0951  0.0862  0.1697
18389TIP3    H176658   2.872   4.413  13.683  1.2872  1.4349  1.2079
18389TIP3    H276659   2.936   4.334  13.795 -0.1581  0.7158  1.5547
18390TIP3   OH276660   6.563   1.131  11.541  0.1349  0.5930 -0.0714
18390TIP3    H176661   6.485   1.102  11.494  1.9176 -2.2233 -1.6129
18390TIP3    H276662   6.572   1.224  11.520 -2.6499  0.9585  0.0543
18391TIP3   OH276663   6.501   1.026   0.950 -0.3154 -0.3433 -0.3718
18391TIP3    H176664   6.548   1.030   0.867 -2.1323  0.7020 -1.4050
18391TIP3    H276665   6.478   0.934   0.960 -0.7168 -0.3763 -1.4334
18392TIP3   OH276666   0.538   4.918  12.362 -0.2102  0.4941 -0.3351
18392TIP3    H176667   0.554   5.000  12.409  0.9739 -0.3482  0.8200
18392TIP3    H276668   0.615   4.864  12.381 -1.1683 -1.0576 -0.6710
18393TIP3   OH276669   5.222   6.106   5.240  0.0686 -0.2803  0.4153
18393TIP3    H176670   5.215   6.201   5.244  0.8072 -0.2580  1.5998
18393TIP3    H276671   5.172   6.075   5.315  1.7309 -0.6920  1.4041
18394TIP3   OH276672   0.232   0.223   5.289  0.0222 -0.1906  0.7218
18394TIP3    H176673   0.177   0.232   5.211  0.9375 -0.1831  0.0645
18394TIP3    H276674   0.286   0.146   5.272  2.7098  1.7630 -0.2361
18395TIP3   OH276675   5.661   5.090   6.409 -0.3692  0.1690  0.1619
18395TIP3    H176676   5.612   5.171   6.396 -2.0234 -0.6548  0.8748
18395TIP3    H276677   5.685   5.091   6.502 -0.8758 -0.3633  0.3142
18396TIP3   OH276678   1.171   1.034  16.489  0.2695  0.3928  0.3652
18396TIP3    H176679   1.196   0.982  16.413 -0.2224 -0.7121  0.9325
18396TIP3    H276680   1.254   1.060  16.529  0.5194 -0.1280  0.1846
18397TIP3   OH276681   3.293   0.558  16.715  0.6958  0.6295  0.0240
18397TIP3    H176682   3.363   0.550  16.651  3.2035  2.4651  2.3468
18397TIP3    H276683   3.310   0.488  16.778 -0.5766  0.0903 -0.1906
18398TIP3   OH276684   0.655   2.579  13.034 -0.8250 -0.1114  0.9981
18398TIP3    H176685   0.595   2.653  13.029 -0.1461  0.4782  1.4161
18398TIP3    H276686   0.734   2.609  12.989 -0.7292 -0.7670  0.7232
18399TIP3   OH276687   5.099   0.654  15.448  0.0897  0.4074  0.0693
18399TIP3    H176688   5.139   0.664  15.362  0.8968 -0.8526  0.2700
18399TIP3    H276689   5.133   0.727  15.499 -0.1886  1.0119 -0.6012
18400TIP3   OH276690   6.709   4.399  15.248  0.1294  0.8111 -0.1917
18400TIP3    H176691   6.729   4.490  15.269  0.9371  0.5038  0.4376
18400TIP3    H276692   6.620   4.386  15.282  0.1001  1.2932 -0.0744
18401TIP3   OH276693   6.754   2.915   4.490 -0.7840  0.0440  0.2211
18401TIP3    H176694   6.684   2.980   4.497  0.2665  1.3839 -1.3377
18401TIP3    H276695   6.770   2.906   4.396 -0.7809 -2.3882  0.3843
18402TIP3   OH276696   3.346   3.905   2.469  0.0584 -0.4689  0.5544
18402TIP3    H176697   3.440   3.891   2.459  0.1302 -2.5000  2.9164
18402TIP3    H276698   3.335   3.931   2.560 -1.7226 -1.3491  0.6461
18403TIP3   OH276699   3.881   4.095   3.239  0.0504  0.0873 -0.0771
18403TIP3    H176700   3.822   4.121   3.310 -3.1088 -1.7895 -1.7256
18403TIP3    H276701   3.924   4.016   3.272 -0.8112 -0.3404  0.0544
18404TIP3   OH276702   0.309   4.075   0.908  0.5175  0.9627 -0.3850
18404TIP3    H176703   0.394   4.042   0.939 -0.0440  1.9229  2.4974
18404TIP3    H276704   0.311   4.169   0.928 -0.6992  1.2841 -1.6241
18405TIP3   OH276705   2.174   2.369   0.705  0.1136  0.4973  0.0161
18405TIP3    H176706   2.236   2.350   0.635  0.9169  1.4448  0.4406
18405TIP3    H276707   2.229   2.398   0.778 -0.7020 -0.5246  1.0691
18406TIP3   OH276708   5.101   2.569   0.986  0.2602  0.2870  0.0613
18406TIP3    H176709   5.130   2.635   1.050 -1.0942  0.9953 -0.0283
18406TIP3    H276710   5.010   2.551   1.009 -0.3443  0.7506 -1.8031
18407TIP3   OH276711   0.708   4.473  16.803 -0.2752  0.0858  0.7565
18407TIP3    H176712   0.675   4.503  16.888 -2.8395 -2.0614  0.6312
18407TIP3    H276713   0.731   4.381  16.817 -0.2715 -0.1593 -0.7539
18408TIP3   OH276714   0.838   6.359  16.751  0.2884 -0.0735 -0.2776
18408TIP3    H176715   0.814   6.403  16.833  2.0403  0.9254 -0.2397
18408TIP3    H276716   0.860   6.270  16.778  0.2971  0.0853  0.2732
18409TIP3   OH276717   0.250   2.164   2.670  0.1623 -0.7180 -0.4960
18409TIP3    H176718   0.313   2.213   2.723 -0.8923  1.2934 -0.9960
18409TIP3    H276719   0.165   2.184   2.710 -0.3231 -2.1594 -0.7405
18410TIP3   OH276720   2.720   4.040   0.690 -0.1217  0.0612 -0.7971
18410TIP3    H176721   2.627   4.032   0.710  0.5812  0.8685  3.9992
18410TIP3    H276722   2.744   3.957   0.651 -2.6098 -0.5709 -1.1546
18411TIP3   OH276723   6.634   2.771   5.446 -0.0050 -0.4785  0.0194
18411TIP3    H176724   6.603   2.847   5.495  1.8670  0.4620 -0.1837
18411TIP3    H276725   6.636   2.700   5.510  2.1009  0.6486  1.2999
18412TIP3   OH276726   0.748   0.801   3.937  0.1154  0.7655 -0.0466
18412TIP3    H176727   0.671   0.763   3.896 -1.4145  0.4392  2.8874
18412TIP3    H276728   0.816   0.796   3.869 -1.7920 -1.0016 -1.9782
18413TIP3   OH276729   3.431   2.409   3.960  0.1709  0.4974  0.1158
18413TIP3    H176730   3.338   2.407   3.940  0.5993  0.5600 -2.2170
18413TIP3    H276731   3.436   2.433   4.052 -2.0551  2.0993 -0.1147
18414TIP3   OH276732   3.391   0.297   4.039  0.0084  0.0441 -0.2501
18414TIP3    H176733   3.459   0.277   4.103 -0.9930  1.6322  1.4110
18414TIP3    H276734   3.376   0.215   3.993  1.1373 -1.0327  1.2241
18415TIP3   OH276735   6.264   6.482  15.835  0.2165  0.1148 -0.1134
18415TIP3    H176736   6.235   6.536  15.908  1.8373  0.5074  0.2929
18415TIP3    H276737   6.301   6.403  15.876 -0.5664 -0.5264 -0.6154
18416TIP3   OH276738   0.609   3.409  16.663  0.0223  0.2408 -0.1327
18416TIP3    H176739   0.582   3.385  16.574 -0.0842 -1.2039  0.2705
18416TIP3    H276740   0.603   3.504  16.664 -0.6142  0.2472 -1.4740
18417TIP3   OH276741   0.562   2.833  13.707  0.5436  0.3446 -0.1752
18417TIP3    H176742   0.616   2.897  13.662  1.2417  0.5910  0.9585
18417TIP3    H276743   0.618   2.798  13.777 -0.6272  0.3424  0.8091
18418TIP3   OH276744   1.752   0.817   1.904  0.4055 -0.0521  0.7881
18418TIP3    H176745   1.669   0.783   1.870  0.3805  0.7188  0.0626
18418TIP3    H276746   1.819   0.769   1.855  0.3744  0.3420  0.3530
18419TIP3   OH276747   1.668   0.522  14.584 -0.1909 -0.0974 -0.6682
18419TIP3    H176748   1.595   0.583  14.597  0.6435  1.0201 -1.0722
18419TIP3    H276749   1.746   0.576  14.595  0.6434 -1.5839  1.3722
18420TIP3   OH276750   1.314   0.918  16.246 -0.2175  0.2421  0.3786
18420TIP3    H176751   1.250   0.905  16.176 -1.2254 -0.6834  1.4479
18420TIP3    H276752   1.317   0.834  16.292 -1.2752  1.4638  2.8455
18421TIP3   OH276753   3.909   2.705   1.721 -0.1350  0.5942  0.3363
18421TIP3    H176754   3.860   2.659   1.653 -1.1298 -0.3498  1.6260
18421TIP3    H276755   4.001   2.685   1.704 -0.4087  0.0022 -0.4604
18422TIP3   OH276756   3.235   2.800   5.605  0.2742  0.3309  0.6129
18422TIP3    H176757   3.208   2.714   5.575  0.8594  0.0716  0.8169
18422TIP3    H276758   3.296   2.831   5.539  0.2850  0.4669  0.6863
18423TIP3   OH276759   6.768   3.745   4.938 -0.0503  0.6112  0.0538
18423TIP3    H176760   6.859   3.747   4.967  0.4931  0.5127 -1.5781
18423TIP3    H276761   6.736   3.834   4.954  0.5330  0.8329 -0.0006
18424TIP3   OH276762   0.052   4.311   0.382 -0.2816  0.1458  0.2185
18424TIP3    H176763   0.022   4.298   0.472 -1.7279  0.5695 -0.1816
18424TIP3    H276764   0.097   4.229   0.360  1.8597  0.7532  1.9588
18425TIP3   OH276765   3.063   2.647  16.619  1.1142  0.1116  0.1993
18425TIP3    H176766   3.073   2.666  16.712 -1.3753  0.9095  0.3921
18425TIP3    H276767   3.021   2.725  16.583  0.3814 -0.8764 -1.1972
18426TIP3   OH276768   2.962   4.800   2.198  0.4085  0.1569  0.0154
18426TIP3    H176769   2.946   4.881   2.149 -0.9046  0.4428  0.8911
18426TIP3    H276770   2.919   4.732   2.146  1.1695  0.0603 -0.5107
18427TIP3   OH276771   5.988   0.218  14.917  0.5215  0.0286  0.2475
18427TIP3    H176772   5.897   0.215  14.886  0.4409 -2.3372  0.4881
18427TIP3    H276773   5.990   0.159  14.992  2.3615 -0.3871 -0.0675
18428TIP3   OH276774   4.979   6.492  15.943 -0.3361 -0.2275 -0.2034
18428TIP3    H176775   4.967   6.587  15.935 -1.0091 -0.3926 -1.2783
18428TIP3    H276776   5.022   6.466  15.862 -0.3417 -0.8823 -0.0036
18429TIP3   OH276777   4.913   4.407  11.579  0.2731  0.4287  0.4990
18429TIP3    H176778   4.899   4.358  11.660  1.9410  0.0094  0.5812
18429TIP3    H276779   4.960   4.346  11.523  1.7359  1.6709  0.3218
18430TIP3   OH276780   1.756   5.326   4.113  0.1013  0.3163  0.2863
18430TIP3    H176781   1.785   5.251   4.164 -0.1024  0.0610  0.0267
18430TIP3    H276782   1.807   5.322   4.032  0.1162  0.4784  0.2863
18431TIP3   OH276783   2.636   4.030   5.452 -0.5931  0.5964  0.0231
18431TIP3    H176784   2.545   4.024   5.483 -1.2345  2.3493 -1.3226
18431TIP3    H276785   2.682   4.075   5.523 -1.5349  2.5274 -0.5157
18432TIP3   OH276786   1.727   4.565   6.229  0.0994  0.1382  0.0744
18432TIP3    H176787   1.659   4.509   6.265  0.2735  0.4992  0.9787
18432TIP3    H276788   1.759   4.517   6.152 -1.1045 -0.0743 -0.3218
18433TIP3   OH276789   5.290   5.689   1.458 -0.0647  0.6653  0.4426
18433TIP3    H176790   5.286   5.634   1.536 -0.1142 -0.1814 -0.1387
18433TIP3    H276791   5.291   5.779   1.491  1.7917  0.3013  1.4848
18434TIP3   OH276792   5.648   1.308   6.658 -0.3200  0.1981  0.5738
18434TIP3    H176793   5.583   1.377   6.646 -0.3406 -0.1649 -1.9824
18434TIP3    H276794   5.606   1.245   6.716 -0.5964  1.8968  2.3286
18435TIP3   OH276795   1.083   3.232  15.224 -0.0207  0.1023 -0.0668
18435TIP3    H176796   1.003   3.274  15.194  0.3582 -0.0165 -1.3104
18435TIP3    H276797   1.149   3.301  15.220 -0.1580  0.3646  1.5408
18436TIP3   OH276798   3.387   2.381   5.777 -0.0966  0.1663 -0.7399
18436TIP3    H176799   3.448   2.408   5.846 -0.7346 -0.5123  0.1125
18436TIP3    H276800   3.440   2.380   5.698  0.5690  1.3205 -0.3437
18437TIP3   OH276801   0.696   2.876   2.322 -0.1278 -0.7222 -0.2588
18437TIP3    H176802   0.699   2.959   2.274 -0.6834 -0.6627 -0.1913
18437TIP3    H276803   0.776   2.831   2.296  0.0406 -0.2839 -0.5109
18438TIP3   OH276804   1.904   1.283  16.157  0.1578 -0.0711 -0.1859
18438TIP3    H176805   1.905   1.251  16.067 -0.0720 -0.1182 -0.1729
18438TIP3    H276806   1.817   1.259  16.190  0.3135 -0.2350  0.1127
18439TIP3   OH276807   1.345   3.672  16.270 -0.0636 -0.4598 -0.4183
18439TIP3    H176808   1.383   3.710  16.350 -0.5344 -0.7896 -0.0332
18439TIP3    H276809   1.263   3.719  16.257  0.2525 -0.0575 -1.0002
18440TIP3   OH276810   5.435   3.976   6.039 -0.0937  0.0204  0.0597
18440TIP3    H176811   5.374   3.927   5.984 -1.7797  0.5771  1.3282
18440TIP3    H276812   5.419   3.944   6.127  3.1669 -1.4950  0.2628
18441TIP3   OH276813   6.621   6.591  16.603 -0.1525 -0.0405  0.1882
18441TIP3    H176814   6.700   6.610  16.552  0.5417 -1.3049  0.7553
18441TIP3    H276815   6.605   6.671  16.653  0.3641  0.4674 -0.4333
18442TIP3   OH276816   3.700   4.129  10.549 -0.8629  0.2246  0.0343
18442TIP3    H176817   3.721   4.198  10.611  1.0345 -1.3806  1.3297
18442TIP3    H276818   3.766   4.137  10.480 -0.9676  0.0349 -0.0918
18443TIP3   OH276819   3.721   3.199  14.288  0.0059 -0.4595 -0.1917
18443TIP3    H176820   3.728   3.275  14.230  0.7919  0.8497  1.5404
18443TIP3    H276821   3.746   3.124  14.233  0.5929  0.7108 -1.5706
18444TIP3   OH276822   1.727   5.446   5.733  0.1145 -0.3141 -0.7476
18444TIP3    H176823   1.758   5.452   5.823  0.5859 -0.1260 -0.9240
18444TIP3    H276824   1.771   5.517   5.687 -3.9652  3.0593 -0.0666
18445TIP3   OH276825   2.310   2.666  12.739  0.0976 -0.4365 -0.1023
18445TIP3    H176826   2.302   2.579  12.700 -0.7937 -0.4709  0.1522
18445TIP3    H276827   2.331   2.723  12.665  0.9625 -0.8975 -0.2320
18446TIP3   OH276828   4.971   1.450   6.241  0.4418  0.6391 -0.3575
18446TIP3    H176829   5.025   1.378   6.209  0.2733  0.3597 -0.0221
18446TIP3    H276830   5.008   1.470   6.327  0.9597  1.4506 -0.7572
18447TIP3   OH276831   5.845   1.440  13.191 -0.1058  1.1146 -0.0621
18447TIP3    H176832   5.750   1.446  13.182 -0.2905 -0.4979  0.4637
18447TIP3    H276833   5.859   1.370  13.254  1.4405  1.5346  0.1123
18448TIP3   OH276834   6.001   0.102   3.800 -0.3884  0.6482 -0.3436
18448TIP3    H176835   5.948   0.182   3.789 -0.5178  0.7410  0.8039
18448TIP3    H276836   6.062   0.124   3.870 -1.0708 -0.5878  0.6665
18449TIP3   OH276837   0.416   0.493   4.145 -0.3228 -0.5954 -0.1035
18449TIP3    H176838   0.379   0.472   4.059 -1.4762  0.5278  0.0795
18449TIP3    H276839   0.390   0.584   4.161 -0.3284 -0.8473  1.5250
18450TIP3   OH276840   4.178   1.863   5.945 -0.1334  0.5107 -0.6308
18450TIP3    H176841   4.261   1.912   5.944 -0.0732  0.5028  1.2259
18450TIP3    H276842   4.205   1.771   5.947 -0.2382  0.4248 -1.9224
18451TIP3   OH276843   2.827   6.301   5.677 -0.1911  0.1588 -0.2393
18451TIP3    H176844   2.792   6.213   5.663  0.0544  0.0072  0.0891
18451TIP3    H276845   2.756   6.348   5.721 -0.1807  0.0092 -0.0601
18452TIP3   OH276846   5.150   2.803  11.406  0.9059 -0.1380 -0.2003
18452TIP3    H176847   5.186   2.786  11.319 -0.9403  0.0468 -1.0549
18452TIP3    H276848   5.062   2.837  11.389 -0.3704 -2.1687  1.7800
18453TIP3   OH276849   5.015   3.890   4.519  0.2366  0.6766 -0.6981
18453TIP3    H176850   5.086   3.866   4.460  0.3535  0.9348 -0.6617
18453TIP3    H276851   4.939   3.841   4.486  0.5996 -0.1571 -0.3031
18454TIP3   OH276852   6.096   3.047   0.476  0.0345 -0.2112 -0.0929
18454TIP3    H176853   6.053   2.981   0.421 -1.7622  1.9101 -1.3813
18454TIP3    H276854   6.044   3.126   0.464  0.8643  0.9431  3.0553
18455TIP3   OH276855   6.584   6.343   2.786  0.7815 -0.0688  0.3200
18455TIP3    H176856   6.541   6.427   2.769  0.4672 -0.4979 -1.2084
18455TIP3    H276857   6.596   6.341   2.880 -1.4692  0.6229  0.6972
18456TIP3   OH276858   0.835   2.429   4.281 -0.3383  0.4733 -0.5837
18456TIP3    H176859   0.762   2.369   4.262 -0.1816  0.2497 -0.4784
18456TIP3    H276860   0.885   2.386   4.350  0.4911  0.1155 -1.3787
18457TIP3   OH276861   2.688   4.729  10.715 -0.3749 -0.0198 -0.7184
18457TIP3    H176862   2.595   4.705  10.707  0.3788 -2.6757 -3.0622
18457TIP3    H276863   2.708   4.774  10.633  0.7201 -0.8062 -0.8950
18458TIP3   OH276864   1.975   4.288  15.891  0.7100  0.0401  0.1642
18458TIP3    H176865   1.986   4.215  15.951 -0.7605  0.5979  1.1744
18458TIP3    H276866   1.898   4.265  15.839  0.6347  0.5696  0.0334
18459TIP3   OH276867   3.826   4.328   0.813  0.0988 -0.1500  0.5731
18459TIP3    H176868   3.839   4.279   0.732  0.4925  0.4759  0.2625
18459TIP3    H276869   3.732   4.319   0.831 -0.2715  0.9038 -0.7220
18460TIP3   OH276870   0.483   1.568   2.192 -0.2096 -0.0357  0.4027
18460TIP3    H176871   0.489   1.656   2.155  1.6706  0.4108  1.6242
18460TIP3    H276872   0.428   1.579   2.270  1.3372  0.4429  1.4714
18461TIP3   OH276873   6.019   0.472   5.590 -0.2976 -0.2701  0.4940
18461TIP3    H176874   6.096   0.420   5.567 -0.1275  0.2581 -0.1662
18461TIP3    H276875   5.953   0.448   5.525 -0.1729  0.4289  0.0984
18462TIP3   OH276876   3.849   5.164   5.958  0.0463 -0.1585  0.4643
18462TIP3    H176877   3.891   5.208   5.884 -0.5379 -0.3467  0.0141
18462TIP3    H276878   3.891   5.201   6.035 -0.3564  1.1117  0.0974
18463TIP3   OH276879   4.080   0.192  13.201  0.3978 -0.4272  0.4195
18463TIP3    H176880   4.102   0.170  13.291 -0.2315 -3.8512 -0.1449
18463TIP3    H276881   4.076   0.288  13.200  2.5113 -0.1794  3.4642
18464TIP3   OH276882   4.658   1.380   4.799 -0.7541 -0.2857 -0.5898
18464TIP3    H176883   4.573   1.420   4.785 -0.3499  1.1974  0.9289
18464TIP3    H276884   4.715   1.418   4.732 -1.1809 -1.0835 -1.4369
18465TIP3   OH276885   3.445   0.355  16.151  0.3205  1.4424 -0.6047
18465TIP3    H176886   3.464   0.413  16.077 -0.5376 -0.2884 -2.2462
18465TIP3    H276887   3.422   0.271  16.111 -2.2256  1.0074  1.5232
18466TIP3   OH276888   2.031   3.739   5.142  0.0033  0.4037  0.0260
18466TIP3    H176889   2.108   3.682   5.137 -0.8172 -0.6399 -1.2064
18466TIP3    H276890   2.062   3.824   5.111  0.5142 -0.1729 -1.0968
18467TIP3   OH276891   5.273   0.149  14.901  0.2181  0.6296  0.0105
18467TIP3    H176892   5.265   0.204  14.979 -1.9216  2.1547 -1.1842
18467TIP3    H276893   5.295   0.210  14.831  4.8851 -1.0122 -0.3347
18468TIP3   OH276894   5.908   1.099   3.440 -0.2715  0.3596  0.2441
18468TIP3    H176895   5.966   1.162   3.397  0.8422 -0.4041  0.5965
18468TIP3    H276896   5.825   1.146   3.448 -0.0208  1.1248 -1.1776
18469TIP3   OH276897   6.659   6.740  12.932  0.3584 -0.6335  0.1257
18469TIP3    H176898   6.668   6.834  12.916  0.3788 -0.4656  1.0934
18469TIP3    H276899   6.585   6.732  12.992  1.3987 -1.0807  1.4131
18470TIP3   OH276900   5.889   5.345  11.031  0.1545  0.1658 -0.3430
18470TIP3    H176901   5.859   5.254  11.032 -0.8291  0.4760 -0.5476
18470TIP3    H276902   5.900   5.365  10.938 -1.3335  0.7697 -0.4268
18471TIP3   OH276903   0.723   2.057  13.260  0.3034 -0.3169 -0.2905
18471TIP3    H176904   0.659   2.095  13.320 -0.2947  0.0164 -1.1174
18471TIP3    H276905   0.796   2.119  13.258  1.5758 -1.5959  2.1227
18472TIP3   OH276906   0.577   1.151  16.792 -0.1393 -0.0023  0.3191
18472TIP3    H176907   0.510   1.094  16.830 -0.1041 -0.8759 -0.9064
18472TIP3    H276908   0.593   1.116  16.705 -0.5234  2.2241 -0.7068
18473TIP3   OH276909   0.345   1.526  16.880  0.3917  0.5294 -0.0090
18473TIP3    H176910   0.309   1.614  16.876  0.1951  0.4886  0.6476
18473TIP3    H276911   0.278   1.471  16.839 -1.2645  0.1871  2.8936
18474TIP3   OH276912   3.742   6.314  16.060 -0.3380 -0.7477 -0.3105
18474TIP3    H176913   3.837   6.318  16.047 -0.6682 -0.6414 -3.5712
18474TIP3    H276914   3.719   6.224  16.036 -0.9788 -1.1493  1.6708
18475TIP3   OH276915   1.078   1.912  14.863 -0.3729  0.3270  0.5682
18475TIP3    H176916   0.991   1.950  14.877 -1.1593 -0.2522 -2.1162
18475TIP3    H276917   1.070   1.823  14.899 -1.4540 -0.2635 -1.0312
18476TIP3   OH276918   0.574   6.034  14.320  0.4822 -0.0339 -0.5467
18476TIP3    H176919   0.583   5.988  14.237 -0.2792 -1.2873  0.0446
18476TIP3    H276920   0.481   6.058  14.325  0.3072 -0.8238  0.3599
18477TIP3   OH276921   2.279   1.533   2.191  0.3771 -0.0759  0.7002
18477TIP3    H176922   2.334   1.456   2.206  0.5829  0.5528  3.7286
18477TIP3    H276923   2.323   1.580   2.120  3.9832  0.5164  3.0824
18478TIP3   OH276924   5.987   2.071   3.439  0.2588  0.0854 -0.0093
18478TIP3    H176925   5.921   2.096   3.504  0.2335 -1.0808  0.4457
18478TIP3    H276926   6.023   2.153   3.408 -1.0785  0.7427  0.0854
18479TIP3   OH276927   4.905   2.255   0.627  0.1326 -0.0815 -0.0378
18479TIP3    H176928   4.941   2.203   0.555  0.2264 -0.7675  0.4916
18479TIP3    H276929   4.811   2.235   0.626 -0.0890  0.9255 -0.7829
18480TIP3   OH276930   4.980   2.586   5.635 -0.2519  0.5454  0.1225
18480TIP3    H176931   5.024   2.502   5.650 -0.3589  0.6864  1.3127
18480TIP3    H276932   5.029   2.648   5.689 -0.4093  1.1800 -0.4555
18481TIP3   OH276933   1.865   5.460  14.119 -0.2294 -0.1213 -0.1700
18481TIP3    H176934   1.935   5.409  14.160 -0.4493  0.9277  1.5812
18481TIP3    H276935   1.906   5.497  14.040  0.5473 -1.2292 -0.3152
18482TIP3   OH276936   5.079   4.220   2.736  0.5529  0.3191  0.2289
18482TIP3    H176937   5.049   4.256   2.820  1.7630  1.4761  0.1900
18482TIP3    H276938   5.168   4.253   2.725  0.4883  0.0398 -1.4337
18483TIP3   OH276939   0.627   3.933  16.802 -0.0084 -0.2077 -0.2388
18483TIP3    H176940   0.622   4.003  16.866 -0.5609 -1.6108  1.3112
18483TIP3    H276941   0.559   3.870  16.828 -2.0637  0.2992 -3.6549
18484TIP3   OH276942   5.205   1.452   6.418 -0.3490 -0.2303  0.8214
18484TIP3    H176943   5.292   1.447   6.458  0.4460 -1.2440 -0.9386
18484TIP3    H276944   5.188   1.364   6.384 -0.7905  0.6218 -1.3560
18485TIP3   OH276945   0.682   2.321   4.604 -0.0808 -0.3571 -0.5132
18485TIP3    H176946   0.624   2.246   4.620  0.2861 -0.1277  2.5042
18485TIP3    H276947   0.622   2.396   4.599 -0.2601 -0.5069 -0.6279
18486TIP3   OH276948   6.734   2.313  11.711  0.2601  0.1990 -0.2331
18486TIP3    H176949   6.818   2.356  11.720  0.4101 -0.2781  0.6887
18486TIP3    H276950   6.753   2.220  11.724 -0.1304 -0.1277 -1.7379
18487TIP3   OH276951   5.656   3.904  12.037  0.0867 -0.1264 -0.3690
18487TIP3    H176952   5.694   3.960  11.970 -3.6835  1.5443 -1.3840
18487TIP3    H276953   5.612   3.965  12.097 -0.5515 -1.8332  0.9810
18488TIP3   OH276954   4.242   6.516  16.907 -0.0845  0.3328 -0.5027
18488TIP3    H176955   4.235   6.421  16.897  1.0544  0.2391 -0.5432
18488TIP3    H276956   4.226   6.550  16.819  2.6507 -0.0443 -1.2183
18489TIP3   OH276957   3.358   6.756  16.489  0.0861 -0.2174  0.0345
18489TIP3    H176958   3.355   6.725  16.398  0.6605  0.2780 -0.1574
18489TIP3    H276959   3.288   6.822  16.493 -1.4673 -1.8102  0.5724
18490TIP3   OH276960   0.235   6.106  10.954 -0.5550 -0.2974 -0.4352
18490TIP3    H176961   0.203   6.130  10.866 -2.7461 -2.8992 -0.4626
18490TIP3    H276962   0.255   6.013  10.948  0.4222 -0.2641  1.5451
18491TIP3   OH276963   2.015   5.356  11.631 -0.0568 -0.5046 -0.4333
18491TIP3    H176964   2.105   5.377  11.657  0.3415  0.4521 -2.3883
18491TIP3    H276965   2.013   5.374  11.537 -2.2141 -0.8426 -0.4911
18492TIP3   OH276966   3.653   4.712  16.256  0.0605  0.4936  0.3446
18492TIP3    H176967   3.715   4.652  16.297  0.8308  0.6820 -0.5166
18492TIP3    H276968   3.573   4.703  16.308 -0.0835 -1.7838 -0.1570
18493TIP3   OH276969   5.762   0.232  12.957  0.0155 -0.0872  0.1504
18493TIP3    H176970   5.682   0.254  13.004  0.2230 -0.9802  0.9536
18493TIP3    H276971   5.824   0.301  12.981 -0.0171 -0.2935  0.8390
18494TIP3   OH276972   4.437   0.957  15.585  0.2076  0.5781 -0.3384
18494TIP3    H176973   4.413   0.995  15.500 -0.5239 -0.2936 -0.5409
18494TIP3    H276974   4.361   0.974  15.641 -0.7594 -1.7236 -0.8274
18495TIP3   OH276975   1.208   1.469   0.552  0.0465 -0.1787  0.3830
18495TIP3    H176976   1.122   1.441   0.583  0.4833 -0.0075  1.8475
18495TIP3    H276977   1.191   1.514   0.469 -1.2076 -0.5999  0.4000
18496TIP3   OH276978   2.030   0.167   4.505  0.0905 -0.2348 -0.2071
18496TIP3    H176979   2.102   0.205   4.455 -0.4791  1.5355  0.2198
18496TIP3    H276980   1.964   0.146   4.440  0.8952 -1.7188 -0.5850
18497TIP3   OH276981   4.357   4.148   0.016  0.7742 -0.1913 -0.3276
18497TIP3    H176982   4.268   4.125  -0.012  0.2043  1.0533  0.3419
18497TIP3    H276983   4.393   4.197  -0.058  0.1389  1.0315  0.1306
18498TIP3   OH276984   6.071   6.587  14.062  0.1853 -0.2901  0.3730
18498TIP3    H176985   5.976   6.573  14.060  0.2245 -0.6396  0.7209
18498TIP3    H276986   6.105   6.529  13.994 -0.1147  2.3205 -2.1857
18499TIP3   OH276987   3.208   3.478  14.673 -0.1221  0.6522  0.5508
18499TIP3    H176988   3.122   3.446  14.647  0.5141  0.1667 -1.1155
18499TIP3    H276989   3.257   3.482  14.591  1.8216 -0.2642  1.6011
18500TIP3   OH276990   4.025   6.134   2.711  0.0476  0.6138  0.5777
18500TIP3    H176991   3.962   6.172   2.650  1.4642  0.4868 -1.0491
18500TIP3    H276992   4.110   6.142   2.667  1.1556  0.4979  2.5429
18501TIP3   OH276993   5.230   5.745  13.662 -0.1895  0.4666 -0.0406
18501TIP3    H176994   5.238   5.769  13.569  3.4959 -0.9553 -0.2634
18501TIP3    H276995   5.223   5.649  13.661 -2.1868  0.5387  1.1790
18502TIP3   OH276996   3.738   6.091   1.348 -0.0442  0.2112 -0.4094
18502TIP3    H176997   3.807   6.084   1.414  0.0221  0.2280 -0.4772
18502TIP3    H276998   3.664   6.043   1.385 -0.8028  2.1454  0.7131
18503TIP3   OH276999   3.063   5.892   1.977 -0.1071  0.5475  0.6026
18503TIP3    H177000   2.970   5.906   1.960 -0.0036 -0.4180 -0.9570
18503TIP3    H277001   3.068   5.870   2.070 -1.8514 -2.3982  0.1312
18504TIP3   OH277002   2.579   1.587  14.175 -0.3442 -0.0308  0.1224
18504TIP3    H177003   2.650   1.609  14.114  0.8654  0.4133  1.6331
18504TIP3    H277004   2.527   1.522  14.128  0.8698 -0.1345 -1.1620
18505TIP3   OH277005   0.131   4.242   2.805 -0.1044  0.1914 -0.1266
18505TIP3    H177006   0.190   4.290   2.747  0.5310  1.3080  1.3817
18505TIP3    H277007   0.104   4.166   2.754  2.2841 -0.1118 -1.0772
18506TIP3   OH277008   3.119   1.657   1.793 -0.8752  0.1409  0.2461
18506TIP3    H177009   3.168   1.651   1.875 -1.2906 -2.0812  0.3908
18506TIP3    H277010   3.057   1.585   1.797  0.2338 -1.1508 -2.7369
18507TIP3   OH277011   0.352   0.765   4.800  0.1376  0.0441 -0.0186
18507TIP3    H177012   0.320   0.856   4.801  2.2106  0.8346  1.8525
18507TIP3    H277013   0.278   0.714   4.767 -1.6696  2.2020  0.4680
18508TIP3   OH277014   5.312   0.678  12.448  0.7375 -0.4003 -0.3560
18508TIP3    H177015   5.223   0.713  12.445  0.4485 -0.5925  2.7915
18508TIP3    H277016   5.300   0.584  12.459  1.4054 -0.6555 -1.6420
18509TIP3   OH277017   4.752   4.139  11.499 -0.0794 -0.2027  0.2130
18509TIP3    H177018   4.718   4.202  11.435  0.5504 -0.3645 -0.2807
18509TIP3    H277019   4.781   4.065  11.447  0.8490 -0.1550  0.6542
18510TIP3   OH277020   4.361   2.356  15.472 -0.6664  0.6717 -0.1035
18510TIP3    H177021   4.266   2.348  15.482 -0.5326 -2.8880 -0.5030
18510TIP3    H277022   4.380   2.313  15.389  1.2951  1.7592 -0.2710
18511TIP3   OH277023   5.545   6.131  15.385 -0.4493 -0.3490 -0.1297
18511TIP3    H177024   5.602   6.156  15.457  0.9510  0.1638 -1.3548
18511TIP3    H277025   5.550   6.204  15.323  0.1443 -1.6669 -1.7330
18512TIP3   OH277026   0.219   4.672   5.757  0.0026 -0.3650 -0.5436
18512TIP3    H177027   0.264   4.682   5.840 -0.3831 -1.0663 -0.2369
18512TIP3    H277028   0.171   4.589   5.765 -2.2194  0.8535 -0.4233
18513TIP3   OH277029   1.088   5.831  12.977  0.6928  0.3024  0.0257
18513TIP3    H177030   1.101   5.767  12.906 -2.0854 -0.0667 -0.2543
18513TIP3    H277031   1.118   5.786  13.056 -0.1367 -0.9324 -0.3393
18514TIP3   OH277032   1.096   1.652  13.617  0.2217  0.3210  0.2680
18514TIP3    H177033   1.116   1.677  13.527 -0.3581 -1.1605 -0.3004
18514TIP3    H277034   1.175   1.607  13.648 -0.3396 -1.1452 -0.3013
18515TIP3   OH277035   5.658   2.072   0.901 -0.6544  0.0596  0.0768
18515TIP3    H177036   5.583   2.052   0.846 -1.7784  0.9380  1.2196
18515TIP3    H277037   5.720   2.001   0.885 -2.1139 -1.1811 -0.2052
18516TIP3   OH277038   2.640   6.278   1.613 -0.2498  0.0837 -0.3054
18516TIP3    H177039   2.638   6.221   1.536 -0.4377  0.3947 -0.5316
18516TIP3    H277040   2.565   6.249   1.666  0.6577 -1.0390  0.4281
18517TIP3   OH277041   1.194   4.866  13.281 -0.3875 -0.6148  0.3648
18517TIP3    H177042   1.155   4.817  13.209 -2.5510  0.3377  0.7951
18517TIP3    H277043   1.219   4.798  13.345  1.7890 -1.4806 -1.2908
18518TIP3   OH277044   2.312   4.927  17.153 -0.1064  0.1269 -0.3937
18518TIP3    H177045   2.340   4.889  17.236 -0.7446 -0.7158 -0.5433
18518TIP3    H277046   2.389   4.971  17.119  1.2828 -2.5512 -1.0404
18519TIP3   OH277047   0.672   1.084  16.456 -0.0767 -0.6816  0.6415
18519TIP3    H177048   0.617   1.153  16.418 -0.6111 -0.7788  1.2340
18519TIP3    H277049   0.761   1.117  16.446 -0.2985 -0.1089  0.4997
18520TIP3   OH277050   0.285   4.804  11.145  0.4309 -0.2996  0.2204
18520TIP3    H177051   0.258   4.745  11.075  2.3013 -2.3744  1.1336
18520TIP3    H277052   0.355   4.858  11.107  0.2824 -0.2459  0.0250
18521TIP3   OH277053   1.594   6.128  12.811  0.0517  0.3518  0.5602
18521TIP3    H177054   1.566   6.211  12.772  1.7112 -0.0554 -1.6974
18521TIP3    H277055   1.553   6.062  12.756  1.4581 -0.2637  0.2196
18522TIP3   OH277056   4.326   6.303  14.407 -1.4258  0.2200  0.4607
18522TIP3    H177057   4.278   6.221  14.393 -2.6431  0.8096  0.9606
18522TIP3    H277058   4.416   6.282  14.385 -1.6150 -1.3866  1.0432
18523TIP3   OH277059   2.514   0.276   0.454 -0.7989 -0.2149  0.4217
18523TIP3    H177060   2.465   0.320   0.523 -1.4688  1.7603 -1.1925
18523TIP3    H277061   2.577   0.342   0.424  0.0898 -1.3346 -0.2560
18524TIP3   OH277062   2.999   6.000  15.942 -0.4050  0.9713  0.4096
18524TIP3    H177063   3.001   6.048  16.025 -2.1391  0.7487  0.6115
18524TIP3    H277064   3.022   5.910  15.967  0.8067  1.2365  0.3432
18525TIP3   OH277065   1.435   4.814   4.503 -0.5257  0.2625 -0.2869
18525TIP3    H177066   1.468   4.789   4.417  0.6332 -0.2417  0.2854
18525TIP3    H277067   1.393   4.735   4.537  1.5361 -0.4485  0.7650
18526TIP3   OH277068   2.478   5.796   1.405  0.2910 -0.0173 -0.3633
18526TIP3    H177069   2.409   5.730   1.394 -0.8142  1.1173 -0.4569
18526TIP3    H277070   2.490   5.833   1.318 -1.2498  1.9487  0.1956
18527TIP3   OH277071   0.758   1.587   5.776 -0.1019 -0.1300  0.3681
18527TIP3    H177072   0.747   1.520   5.843  2.4690  0.6200  1.6493
18527TIP3    H277073   0.803   1.541   5.704  0.6847 -0.0684  0.8048
18528TIP3   OH277074   5.462   2.126  15.771  0.1346  0.6399 -0.0661
18528TIP3    H177075   5.506   2.053  15.729 -0.8182  1.4627 -2.6965
18528TIP3    H277076   5.399   2.085  15.831  0.9039 -0.6072 -0.0759
18529TIP3   OH277077   6.039   6.261  16.940 -0.1952  0.4049 -0.5205
18529TIP3    H177078   6.101   6.198  16.903 -2.0452 -1.4205 -0.7339
18529TIP3    H277079   6.062   6.266  17.033  0.3826 -0.0766 -0.6346
18530TIP3   OH277080   6.050   4.455   5.075 -0.4248 -0.6299 -0.1261
18530TIP3    H177081   6.023   4.364   5.084 -2.6551  0.0086  0.4606
18530TIP3    H277082   6.047   4.472   4.981  1.6786 -1.5806 -0.3988
18531TIP3   OH277083   4.669   2.313  14.967 -0.0746 -0.5573 -0.4061
18531TIP3    H177084   4.693   2.357  14.886  0.7367 -2.5822 -1.3180
18531TIP3    H277085   4.652   2.222  14.942  1.2828 -1.5236  1.8341
18532TIP3   OH277086   5.294   3.715  15.456 -0.4395 -0.0310 -0.2230
18532TIP3    H177087   5.387   3.700  15.437 -0.4034  1.6223 -1.5754
18532TIP3    H277088   5.289   3.808  15.478 -1.7912 -0.0901 -0.1876
18533TIP3   OH277089   3.411   0.842  11.617 -0.7235  0.4616  0.0139
18533TIP3    H177090   3.349   0.890  11.671  0.4219  3.8271 -1.3382
18533TIP3    H277091   3.391   0.870  11.527  1.3450  0.0234 -0.6556
18534TIP3   OH277092   6.677   6.731   4.222  0.2019 -0.6819  0.0692
18534TIP3    H177093   6.678   6.788   4.145  2.4565  1.5833  1.5936
18534TIP3    H277094   6.646   6.787   4.293  0.6987 -1.8998  1.3002
18535TIP3   OH277095   6.050   3.505  14.740  0.5529  0.7508  0.2657
18535TIP3    H177096   6.010   3.489  14.826 -0.4567  2.0922  0.0775
18535TIP3    H277097   6.038   3.423  14.693 -1.7240  0.9679  0.3510
18536TIP3   OH277098   4.628   1.390   2.497  0.0067  0.0166 -0.0089
18536TIP3    H177099   4.705   1.338   2.475 -0.5482 -0.5985 -0.5359
18536TIP3    H277100   4.625   1.459   2.430  0.7461  0.7633  0.6940
18537TIP3   OH277101   2.346   1.128   1.633  0.0457 -0.1045 -0.3632
18537TIP3    H177102   2.286   1.202   1.630  0.5688  0.5637  2.6142
18537TIP3    H277103   2.290   1.052   1.649 -0.1932  0.2296  0.4288
18538TIP3   OH277104   3.215   1.622   3.622  0.2073 -0.2255 -0.4940
18538TIP3    H177105   3.177   1.687   3.563  2.2908  1.3355 -0.2217
18538TIP3    H277106   3.166   1.632   3.704 -0.3214  0.1306 -0.8481
18539TIP3   OH277107   5.409   5.046   1.584 -0.0808 -0.2807 -0.9229
18539TIP3    H177108   5.345   5.033   1.513 -0.9685 -0.1351 -0.1666
18539TIP3    H277109   5.399   5.138   1.608 -1.1258 -0.7671  0.6345
18540TIP3   OH277110   4.278   3.665  16.937  0.8132  0.1505 -0.0738
18540TIP3    H177111   4.254   3.598  16.872  1.0457 -1.0945  1.0742
18540TIP3    H277112   4.374   3.667  16.934  0.8261  0.0677  0.2357
18541TIP3   OH277113   5.912   3.980   4.831  0.2941  0.1590  0.4410
18541TIP3    H177114   5.904   3.953   4.739  0.8920  1.7654 -0.1097
18541TIP3    H277115   5.838   3.938   4.874  0.5325 -1.4074 -0.5599
18542TIP3   OH277116   2.033   4.693  15.741  0.1842  0.0919 -0.1526
18542TIP3    H177117   1.967   4.710  15.808 -0.7359 -1.3834 -0.6385
18542TIP3    H277118   2.082   4.618  15.774  0.8551  0.4524 -0.3312
18543TIP3   OH277119   4.778   6.193  15.989 -0.1151 -0.2037 -0.3010
18543TIP3    H177120   4.757   6.121  15.930 -0.5144  1.4384 -2.2976
18543TIP3    H277121   4.862   6.226  15.957 -1.0609  1.6748 -1.0358
18544TIP3   OH277122   4.724   3.536  11.331  0.4273 -0.5739  1.2029
18544TIP3    H177123   4.800   3.577  11.373  1.5257 -0.4696 -0.7967
18544TIP3    H277124   4.757   3.502  11.249 -2.1092  1.5258 -0.8883
18545TIP3   OH277125   3.683   5.335   5.248 -0.2608  0.3886  0.6881
18545TIP3    H177126   3.747   5.266   5.229  1.7510  1.8539  1.8448
18545TIP3    H277127   3.632   5.343   5.168  1.6291 -0.1989 -0.6293
18546TIP3   OH277128   3.555   0.635  14.282 -0.2363 -0.0307 -0.1660
18546TIP3    H177129   3.631   0.658  14.335  0.8316 -1.0529 -1.2132
18546TIP3    H277130   3.547   0.540  14.291  1.0017 -0.5092 -3.0724
18547TIP3   OH277131   0.045   1.793   5.427  0.1201 -0.6905 -0.0318
18547TIP3    H177132   0.018   1.780   5.518  0.6625 -0.3479  0.1843
18547TIP3    H277133   0.059   1.888   5.420  0.3876 -0.7555 -0.3830
18548TIP3   OH277134   1.589   3.307   5.225 -0.0445  0.0571  0.2298
18548TIP3    H177135   1.595   3.265   5.310 -3.0561 -0.7066  0.1929
18548TIP3    H277136   1.620   3.396   5.239 -1.6434  0.3245  2.4695
18549TIP3   OH277137   0.734   1.528  12.328 -0.7617 -0.0293  0.0910
18549TIP3    H177138   0.756   1.565  12.413 -0.9731  0.8313 -0.2122
18549TIP3    H277139   0.783   1.582  12.265  0.5322 -1.5421 -0.2707
18550TIP3   OH277140   2.968   4.031  11.731 -0.2395 -0.0606 -0.1161
18550TIP3    H177141   3.040   4.079  11.772  0.2087  0.3010 -1.2788
18550TIP3    H277142   2.997   4.017  11.641 -0.2019 -2.8423  0.2294
18551TIP3   OH277143   0.168   3.399   0.286 -0.5875  0.6117  0.0057
18551TIP3    H177144   0.082   3.428   0.257 -0.1361  0.1904 -1.8775
18551TIP3    H277145   0.230   3.440   0.225  0.2924 -1.5006 -0.6281
18552TIP3   OH277146   3.968   3.340   2.445 -0.0021 -0.6543  0.4989
18552TIP3    H177147   3.958   3.250   2.413  4.9753 -0.7920 -1.6314
18552TIP3    H277148   4.011   3.330   2.530  1.1336 -0.4076 -0.0180
18553TIP3   OH277149   0.056   0.504   3.849 -0.2646  0.1508 -0.5918
18553TIP3    H177150   0.132   0.490   3.793  0.7226 -1.7598  1.0742
18553TIP3    H277151   0.002   0.567   3.802  2.3793  1.6811 -1.8018
18554TIP3   OH277152   4.293   6.591  11.659 -0.3545  0.3369  0.4269
18554TIP3    H177153   4.327   6.554  11.740  0.7359 -0.4818 -0.3681
18554TIP3    H277154   4.324   6.682  11.658  3.0697 -0.6982 -0.8506
18555TIP3   OH277155   2.109   1.180  16.339 -0.1332  0.5960  0.4128
18555TIP3    H177156   2.071   1.246  16.281  1.0402  0.2602 -0.7860
18555TIP3    H277157   2.124   1.226  16.422 -3.9366  0.5286  1.3309
18556TIP3   OH277158   0.114   0.268   2.700 -0.8574 -0.3228  1.1100
18556TIP3    H177159   0.164   0.187   2.687 -3.0387 -1.7645  1.0925
18556TIP3    H277160   0.180   0.338   2.697  0.9384 -1.9504 -0.4222
18557TIP3   OH277161   1.050   2.306   2.128  0.1554 -0.3910  0.9181
18557TIP3    H177162   0.969   2.310   2.177 -0.9758 -4.1111 -0.3531
18557TIP3    H277163   1.024   2.325   2.037  1.1659  0.5658  0.7964
18558TIP3   OH277164   6.152   2.877  12.482 -0.1288  0.7613  0.3157
18558TIP3    H177165   6.131   2.923  12.563  2.2615  1.6073  0.5188
18558TIP3    H277166   6.247   2.876  12.478 -0.1494  0.7030 -2.4734
18559TIP3   OH277167   2.648   3.997   3.320  0.5491 -0.1917  0.2018
18559TIP3    H177168   2.631   3.974   3.411 -0.1061 -0.4894  0.0035
18559TIP3    H277169   2.726   4.052   3.324  1.1310 -1.0372  0.8421
18560TIP3   OH277170   3.884   3.532  11.363 -0.1391  0.3040 -0.1658
18560TIP3    H177171   3.858   3.497  11.448  1.4625 -0.1906  0.1546
18560TIP3    H277172   3.969   3.492  11.345  0.0801  1.2708 -1.4729
18561TIP3   OH277173   3.191   5.132   2.223  0.0271  0.3873  0.1689
18561TIP3    H177174   3.125   5.081   2.270  0.5127 -1.9622 -1.5439
18561TIP3    H277175   3.270   5.125   2.277 -0.7066  2.2273  1.6192
18562TIP3   OH277176   3.743   4.064   3.006 -0.3943 -0.2937  0.2361
18562TIP3    H177177   3.773   4.075   3.096 -1.1990 -0.1763  0.4948
18562TIP3    H277178   3.813   4.102   2.952  0.7506 -1.6095  0.7309
18563TIP3   OH277179   5.555   2.916  14.324  0.1105 -0.2797 -0.2794
18563TIP3    H177180   5.564   3.008  14.299 -0.9760 -0.5017 -1.5875
18563TIP3    H277181   5.566   2.868  14.242  0.1613 -1.2886  0.3090
18564TIP3   OH277182   5.469   4.685  13.913 -0.4337 -0.4167 -0.3339
18564TIP3    H177183   5.457   4.774  13.880 -0.7541 -0.1707  0.4116
18564TIP3    H277184   5.523   4.641  13.847 -1.7450 -0.2123 -1.5951
18565TIP3   OH277185   3.572   4.254  12.835  0.3811 -0.2826  0.2744
18565TIP3    H177186   3.655   4.248  12.882  0.7359  4.2430  0.6315
18565TIP3    H277187   3.507   4.219  12.897  1.5772 -0.6390  1.3825
18566TIP3   OH277188   5.489   5.033  15.368  0.0500 -0.0408 -0.0055
18566TIP3    H177189   5.414   5.057  15.315  0.4534  0.3995 -0.3790
18566TIP3    H277190   5.475   4.941  15.389 -0.4671 -0.0253 -0.2741
18567TIP3   OH277191   5.891   5.382  15.681  0.3742  0.0577  0.8882
18567TIP3    H177192   5.895   5.442  15.755  1.4725 -0.6184  1.3964
18567TIP3    H277193   5.940   5.305  15.709  3.0369  0.7590 -1.4075
18568TIP3   OH277194   1.096   2.501  15.517 -0.0306 -0.0666  0.0974
18568TIP3    H177195   1.111   2.525  15.425 -0.6188 -0.8859 -0.2259
18568TIP3    H277196   1.180   2.515  15.559 -0.1914  2.0887 -0.1442
18569TIP3   OH277197   4.227   4.322  12.431 -0.4145 -0.3921  0.1845
18569TIP3    H177198   4.145   4.351  12.471 -0.7674 -1.5530  0.3246
18569TIP3    H277199   4.253   4.395  12.375 -2.2040 -0.4962 -0.8566
18570TIP3   OH277200   2.397   3.017   4.904  0.6649 -0.0539  0.0569
18570TIP3    H177201   2.353   2.932   4.895 -0.9905  0.8504 -1.0076
18570TIP3    H277202   2.450   3.025   4.825  0.9671 -0.1882  0.2481
18571TIP3   OH277203   1.694   5.947   0.661 -0.0250 -0.0014 -0.1319
18571TIP3    H177204   1.716   5.873   0.604  0.0738 -0.8559  0.9991
18571TIP3    H277205   1.604   5.970   0.635 -0.6181 -1.4767  0.4700
18572TIP3   OH277206   0.644   1.427   5.415  0.1455  0.4742 -0.2030
18572TIP3    H177207   0.642   1.522   5.401  1.6765  0.5256 -0.2210
18572TIP3    H277208   0.720   1.413   5.473  1.0464 -0.9022 -1.6500
18573TIP3   OH277209   0.816   3.626  17.021  0.0383  0.0474  0.0254
18573TIP3    H177210   0.829   3.719  17.038 -0.2709 -0.0174  0.6235
18573TIP3    H277211   0.862   3.582  17.092  2.7467 -0.3466 -1.8264
18574TIP3   OH277212   1.452   1.673   1.378 -0.2107  0.1134  0.3700
18574TIP3    H177213   1.487   1.611   1.442  1.1834  0.9054  0.4145
18574TIP3    H277214   1.400   1.619   1.319  1.6508 -1.2741 -0.0929
18575TIP3   OH277215   4.279   2.258  12.752  0.2577  0.3132 -0.2999
18575TIP3    H177216   4.264   2.220  12.839 -2.4552  0.9280 -0.3843
18575TIP3    H277217   4.369   2.235  12.731  0.0119 -2.6485  1.3056
18576TIP3   OH277218   6.167   6.074  14.294  0.2456 -0.1089 -0.1841
18576TIP3    H177219   6.161   6.170  14.286  0.3057  0.0081  0.9824
18576TIP3    H277220   6.108   6.041  14.227  0.2983  0.7474 -0.6703
18577TIP3   OH277221   0.409   2.399   3.750 -0.2683 -0.0329  0.3727
18577TIP3    H177222   0.352   2.440   3.815 -0.6466  0.8258 -0.4673
18577TIP3    H277223   0.495   2.437   3.765 -0.4817  0.6112  0.0140
18578TIP3   OH277224   2.165   5.230  14.015 -0.1299  0.0446 -0.7541
18578TIP3    H177225   2.121   5.262  13.936  0.2972 -1.3011 -1.5831
18578TIP3    H277226   2.093   5.204  14.073 -0.4609  1.6862 -0.3793
18579TIP3   OH277227   3.998   5.543  16.570  0.0633 -0.5990  0.1213
18579TIP3    H177228   4.086   5.506  16.579 -0.3201 -1.5024  0.2470
18579TIP3    H277229   3.979   5.582  16.656  0.1695 -0.7815  0.2266
18580TIP3   OH277230   0.496   4.643   5.679 -0.0212  0.4219  0.1975
18580TIP3    H177231   0.478   4.626   5.772 -0.9612 -0.0973 -0.0634
18580TIP3    H277232   0.587   4.673   5.677 -0.0265  0.5658  1.3011
18581TIP3   OH277233   6.311   5.941   5.136 -0.0956 -0.2716  0.4375
18581TIP3    H177234   6.222   5.922   5.166  0.0088  0.6888  1.4579
18581TIP3    H277235   6.367   5.912   5.208  0.3210  0.2727  0.3388
18582TIP3   OH277236   2.286   4.350  15.331 -0.3651  0.1130  0.3901
18582TIP3    H177237   2.340   4.389  15.400 -0.2634 -1.1890  1.0840
18582TIP3    H277238   2.346   4.338  15.258  0.1700 -0.7622  0.9476
18583TIP3   OH277239   2.857   0.421   3.154  0.2114 -0.0373  0.1744
18583TIP3    H177240   2.796   0.347   3.154  1.3325 -1.0303 -1.0731
18583TIP3    H277241   2.942   0.381   3.174  1.0812  0.6570 -1.8563
18584TIP3   OH277242   3.451   4.814   2.190  1.0926  0.0493  0.3606
18584TIP3    H177243   3.461   4.736   2.244 -2.5040 -0.0553  1.1301
18584TIP3    H277244   3.424   4.883   2.250 -2.4075  0.0852 -0.9760
18585TIP3   OH277245   2.989   1.839  16.034 -0.4161  0.1052  0.5687
18585TIP3    H177246   2.999   1.855  15.940 -0.0760  0.9363  0.7386
18585TIP3    H277247   3.066   1.787  16.058 -0.7538 -0.5356  0.3029
18586TIP3   OH277248   3.662   1.624  13.487 -0.1738 -0.4977 -0.1073
18586TIP3    H177249   3.651   1.542  13.535  0.1166 -1.1814 -1.1752
18586TIP3    H277250   3.581   1.672  13.503 -0.5441 -1.1985  0.1535
18587TIP3   OH277251   1.815   4.888   5.244 -0.6559  0.3317 -0.0263
18587TIP3    H177252   1.821   4.803   5.288 -2.2764 -0.4585 -1.2095
18587TIP3    H277253   1.841   4.952   5.311  1.3530 -1.1021  0.6783
18588TIP3   OH277254   0.949   5.069  12.243  0.0131  0.5069 -0.0123
18588TIP3    H177255   0.995   5.139  12.289 -0.1124  0.3567  0.3472
18588TIP3    H277256   0.867   5.109  12.213  0.6588  0.9658 -1.2519
18589TIP3   OH277257   0.826   1.311   3.180  0.2907  0.3460 -0.4067
18589TIP3    H177258   0.875   1.255   3.121  0.8080  0.6073 -0.2303
18589TIP3    H277259   0.886   1.383   3.201  0.2417  0.0742  0.7137
18590TIP3   OH277260   4.792   2.321   2.800  0.5959 -0.6379  0.2086
18590TIP3    H177261   4.700   2.325   2.828  0.6462  0.8228  0.2111
18590TIP3    H277262   4.842   2.322   2.881  0.6573  0.8252  0.1820
18591TIP3   OH277263   6.296   0.200  15.835  0.1081 -0.0047  0.2580
18591TIP3    H177264   6.220   0.142  15.838  0.1555 -0.0194  1.8280
18591TIP3    H277265   6.260   0.287  15.848  0.3892 -0.0439  1.3101
18592TIP3   OH277266   0.631   5.260   2.267  0.2659  0.0407  0.6084
18592TIP3    H177267   0.603   5.240   2.177  1.5832  0.1809  0.1386
18592TIP3    H277268   0.623   5.355   2.274 -1.8017 -0.1461  1.3620
18593TIP3   OH277269   2.436   0.288   5.579 -0.2481 -0.3058 -0.0266
18593TIP3    H177270   2.406   0.282   5.669  1.7713 -2.7819  0.6175
18593TIP3    H277271   2.419   0.202   5.542  2.8479 -0.8069 -0.5717
18594TIP3   OH277272   2.495   0.176   5.178 -0.0687 -0.1519 -0.5815
18594TIP3    H177273   2.544   0.203   5.256 -0.7053 -2.7059  0.8285
18594TIP3    H277274   2.559   0.130   5.124 -0.4109 -1.9018  0.4110
18595TIP3   OH277275   5.434   5.223   2.399 -0.1680 -0.2364 -0.7214
18595TIP3    H177276   5.495   5.160   2.359 -0.9216 -1.1782 -0.4153
18595TIP3    H277277   5.378   5.251   2.326 -0.6117 -0.8540 -0.6256
18596TIP3   OH277278   6.557   3.805  17.238  0.4434 -0.0176  0.0959
18596TIP3    H177279   6.540   3.715  17.265  0.2055  0.5454  1.9845
18596TIP3    H277280   6.572   3.852  17.320 -0.5452  1.8969 -0.7613
18597TIP3   OH277281   0.729   1.726   3.542 -0.5292 -0.3597  0.3511
18597TIP3    H177282   0.646   1.679   3.552 -0.4477 -0.3181  1.4346
18597TIP3    H277283   0.749   1.757   3.631 -0.2750  1.2192 -0.2270
18598TIP3   OH277284   4.045   6.651   4.623 -0.1729  0.6723 -0.2348
18598TIP3    H177285   4.113   6.647   4.556 -0.3320  0.3806 -0.3817
18598TIP3    H277286   3.999   6.567   4.615  0.4632  0.1780  0.9088
18599TIP3   OH277287   1.502   5.685  17.201 -0.2038 -0.0986  0.1184
18599TIP3    H177288   1.436   5.620  17.176 -1.6209 -0.1705  3.4652
18599TIP3    H277289   1.585   5.638  17.197 -0.6185 -0.7314 -1.8460
18600TIP3   OH277290   2.284   1.257   0.985  0.4388 -0.0562  0.9005
18600TIP3    H177291   2.243   1.289   1.065  1.2471 -0.3857  1.4651
18600TIP3    H277292   2.243   1.171   0.971 -0.6705  0.5726  0.2004
18601TIP3   OH277293   4.888   1.851  11.276 -0.7395  1.0814 -0.6453
18601TIP3    H177294   4.871   1.773  11.222 -1.2485  0.0850  0.8908
18601TIP3    H277295   4.980   1.842  11.302 -1.1896  0.1363  0.7667
18602TIP3   OH277296   1.228   6.719   4.036 -0.3309  0.3263 -0.0447
18602TIP3    H177297   1.133   6.728   4.032 -0.4680  0.2372  1.9392
18602TIP3    H277298   1.259   6.751   3.952 -1.9849  2.2106  0.0034
18603TIP3   OH277299   5.516   0.409  12.431 -0.7513  0.2634 -0.3678
18603TIP3    H177300   5.508   0.491  12.382 -0.5628 -0.0653 -0.9566
18603TIP3    H277301   5.444   0.411  12.494  0.4773  1.8797  1.1147
18604TIP3   OH277302   3.091   6.122   0.325  0.0291  0.3445 -0.3237
18604TIP3    H177303   3.048   6.174   0.257  0.9834  0.7525 -0.6278
18604TIP3    H277304   3.021   6.100   0.386 -0.6170  0.9664 -0.8267
18605TIP3   OH277305   5.476   6.788   5.559  0.0522 -0.1537 -0.1150
18605TIP3    H177306   5.387   6.813   5.583 -0.0115 -0.2700 -0.2285
18605TIP3    H277307   5.477   6.790   5.463 -0.7759 -3.3194 -0.3121
18606TIP3   OH277308   6.561   2.279  11.495 -0.8951  0.1637  0.1937
18606TIP3    H177309   6.632   2.311  11.551 -0.2991 -0.3885 -0.2302
18606TIP3    H277310   6.500   2.353  11.490 -0.3392  0.6609  0.5405
18607TIP3   OH277311   2.556   2.259   0.072 -0.0372 -0.0405  0.1944
18607TIP3    H177312   2.484   2.215   0.115  0.1661  0.7153  1.3418
18607TIP3    H277313   2.634   2.209   0.097  0.0924  0.4554  0.8159
18608TIP3   OH277314   3.743   5.847  14.995 -0.1395 -0.1383 -0.3193
18608TIP3    H177315   3.650   5.823  14.994 -0.0913 -1.8524  4.9263
18608TIP3    H277316   3.787   5.774  14.952 -1.0911 -0.2754 -1.0913
18609TIP3   OH277317   5.020   0.865  16.982 -0.2702 -0.4128  0.1957
18609TIP3    H177318   5.029   0.857  16.887  0.7669 -0.6696  0.3048
18609TIP3    H277319   4.963   0.792  17.007 -0.5663 -0.3309 -0.2260
18610TIP3   OH277320   4.155   2.389   3.378  0.8297  0.6268  0.0559
18610TIP3    H177321   4.173   2.366   3.469 -0.5494  0.1519  0.2300
18610TIP3    H277322   4.173   2.309   3.329  0.0978  0.4255  0.1127
18611TIP3   OH277323   3.041   1.961  15.763 -0.3972  0.4011  0.6373
18611TIP3    H177324   3.008   1.974  15.674 -0.8774  0.0222  0.7587
18611TIP3    H277325   3.015   2.041  15.809  0.3995  0.8789  0.2869
18612TIP3   OH277326   1.558   0.057  14.497 -0.3123 -0.1575  0.0095
18612TIP3    H177327   1.619   0.128  14.511 -1.1164  0.4461  0.5602
18612TIP3    H277328   1.529   0.067  14.407 -0.3380  0.1456  0.0517
18613TIP3   OH277329   0.137   0.654   0.700  0.2848 -0.0041 -0.1446
18613TIP3    H177330   0.168   0.730   0.749 -1.0582  1.3570 -1.2941
18613TIP3    H277331   0.100   0.691   0.619 -1.2608 -1.7837 -0.3306
18614TIP3   OH277332   5.628   2.415   1.460  0.6329 -0.3266  0.4527
18614TIP3    H177333   5.580   2.497   1.467  1.5469  0.3171 -0.4113
18614TIP3    H277334   5.563   2.347   1.478 -0.8538  0.4420 -1.6134
18615TIP3   OH277335   2.793   0.896  14.871  0.0664 -0.3537 -0.0732
18615TIP3    H177336   2.771   0.959  14.940 -0.2068  1.8165 -2.0335
18615TIP3    H277337   2.833   0.823  14.918 -0.1233  1.0112  2.3848
18616TIP3   OH277338   5.879   3.504  11.635  0.5333  0.4379  0.3600
18616TIP3    H177339   5.918   3.472  11.554  0.5374  1.8455 -0.2208
18616TIP3    H277340   5.904   3.439  11.701 -0.1999 -1.2078 -0.9023
18617TIP3   OH277341   4.380   6.568  14.478 -0.3028 -0.2050  0.6955
18617TIP3    H177342   4.443   6.552  14.549  2.8427  0.1871 -1.7698
18617TIP3    H277343   4.349   6.481  14.454  1.8948 -0.8399 -0.1123
18618TIP3   OH277344   6.000   0.499  14.458  0.8787  0.0732  0.7467
18618TIP3    H177345   5.922   0.466  14.502  0.0906  1.3587  0.3796
18618TIP3    H277346   5.989   0.594  14.460  1.6259  0.2138 -0.7853
18619TIP3   OH277347   2.762   5.246  13.127 -0.0503  0.2380  0.2962
18619TIP3    H177348   2.808   5.279  13.205  0.4898 -1.3901  0.6932
18619TIP3    H277349   2.794   5.301  13.056  2.3213 -0.6347  0.6139
18620TIP3   OH277350   5.801   3.642   2.877 -0.1988  0.0705 -0.7319
18620TIP3    H177351   5.896   3.639   2.872 -0.2682 -0.7021 -2.4918
18620TIP3    H277352   5.782   3.715   2.936  1.4753  0.2203 -0.3290
18621TIP3   OH277353   0.803   6.110   5.947 -0.1086  0.0055  0.0362
18621TIP3    H177354   0.754   6.177   5.901 -0.8133 -1.6234 -1.7129
18621TIP3    H277355   0.880   6.156   5.982 -1.8347  2.1985  1.1734
18622TIP3   OH277356   3.930   4.172   2.092  0.2433  0.0968  0.6462
18622TIP3    H177357   4.012   4.189   2.045  0.5461  1.9624  1.7644
18622TIP3    H277358   3.865   4.227   2.048 -0.0546 -0.1365  0.7916
18623TIP3   OH277359   3.998   0.133   3.437  0.3489  0.1638 -0.2410
18623TIP3    H177360   3.996   0.214   3.386  0.2246  0.4367  0.1943
18623TIP3    H277361   3.955   0.156   3.520  2.5232  0.3652  0.9164
18624TIP3   OH277362   3.235   1.599  13.836  0.4870  0.7579 -0.4173
18624TIP3    H177363   3.239   1.610  13.931  4.0734  1.4765 -0.4937
18624TIP3    H277364   3.272   1.513  13.820  1.0289  1.1147 -1.1756
18625TIP3   OH277365   0.425   5.794  16.564 -0.0460  0.0008  0.1051
18625TIP3    H177366   0.518   5.779  16.546 -0.4530 -2.4089 -0.3829
18625TIP3    H277367   0.385   5.707  16.557 -2.5181  1.1157 -0.7378
18626TIP3   OH277368   3.739   5.268  16.023 -0.7069  0.5141 -0.3886
18626TIP3    H177369   3.764   5.312  16.104  1.1269  1.2212 -1.2660
18626TIP3    H277370   3.753   5.175  16.040 -0.0540  0.6867  0.0265
18627TIP3   OH277371   5.151   3.213   5.590 -0.0377  0.1081  0.1398
18627TIP3    H177372   5.065   3.213   5.632 -0.0623 -0.4906  0.1000
18627TIP3    H277373   5.164   3.304   5.562  0.2140  0.6523  1.8985
18628TIP3   OH277374   1.151   1.726  11.476 -0.5399  0.3167 -0.5825
18628TIP3    H177375   1.128   1.803  11.423 -0.6594  1.7516  1.4339
18628TIP3    H277376   1.073   1.710  11.529  1.6004  3.4462  4.2577
18629TIP3   OH277377   5.171   0.410   1.110  0.7023 -0.0638  0.2859
18629TIP3    H177378   5.264   0.388   1.121  0.1266 -2.4466  1.0810
18629TIP3    H277379   5.131   0.327   1.082 -1.0473  1.1512 -0.9782
18630TIP3   OH277380   4.901   1.122   1.960 -0.6128  0.3975 -0.3288
18630TIP3    H177381   4.829   1.085   1.908 -0.5969 -0.0575 -0.0217
18630TIP3    H277382   4.975   1.064   1.943 -0.2740  0.9382 -0.7457
18631TIP3   OH277383   2.245   5.509  16.457 -0.2134 -0.4359 -0.3045
18631TIP3    H177384   2.215   5.495  16.367  1.8069 -0.3361 -1.0383
18631TIP3    H277385   2.339   5.526  16.449 -0.2194  0.9424  1.6990
18632TIP3   OH277386   4.173   1.358  13.872  0.0553  0.2809 -0.0692
18632TIP3    H177387   4.086   1.325  13.848  0.4744  0.1183 -1.4755
18632TIP3    H277388   4.159   1.450  13.891 -0.3518  0.3918 -0.8480
18633TIP3   OH277389   2.276   6.691   0.951 -0.1091  0.7801 -0.3117
18633TIP3    H177390   2.227   6.640   1.015 -0.1563 -0.1346 -1.0568
18633TIP3    H277391   2.215   6.760   0.924  0.0824  1.4887  0.9674
18634TIP3   OH277392   2.017   5.652  16.991  0.3954 -0.0357 -0.2813
18634TIP3    H177393   2.025   5.743  17.019  1.7636 -0.1472 -0.2809
18634TIP3    H277394   2.085   5.605  17.039 -0.7130 -1.1936  0.2249
18635TIP3   OH277395   1.932   0.220   1.241 -0.1212  0.4447 -0.4344
18635TIP3    H177396   1.872   0.288   1.209 -0.5068 -0.4343 -1.6798
18635TIP3    H277397   1.875   0.144   1.257  0.4364  0.1107  0.0046
18636TIP3   OH277398   0.053   0.050  16.839  0.0934  0.1410 -0.2819
18636TIP3    H177399  -0.016   0.069  16.902 -0.0335 -1.3040  0.0463
18636TIP3    H277400   0.021   0.086  16.756 -0.2182  1.0854  0.2315
18637TIP3   OH277401   2.627   3.380  16.213  0.3987 -0.1716 -0.2664
18637TIP3    H177402   2.669   3.305  16.169 -0.1884 -0.6335 -0.0536
18637TIP3    H277403   2.535   3.355  16.220  0.4694 -0.1140  1.2151
18638TIP3   OH277404   0.079   2.626  13.608 -0.3220  0.0137  0.4272
18638TIP3    H177405   0.026   2.661  13.680  0.1150 -1.2828  1.4039
18638TIP3    H277406   0.051   2.677  13.531  1.0450  3.2699  1.9133
18639TIP3   OH277407   3.785   3.519  11.725  0.4361  0.3056  0.2368
18639TIP3    H177408   3.738   3.508  11.807  1.2388 -1.2978  0.5155
18639TIP3    H277409   3.821   3.608  11.729 -1.3012  1.0314  0.6473
18640TIP3   OH277410   6.471   4.182  11.789 -0.3068  0.5731  0.0771
18640TIP3    H177411   6.551   4.232  11.772 -1.1262  1.5781 -0.9897
18640TIP3    H277412   6.451   4.139  11.706 -0.0977 -0.8677  0.7383
18641TIP3   OH277413   4.818   2.000  16.176 -0.4450  0.1950  0.5481
18641TIP3    H177414   4.745   1.964  16.125 -1.1863 -0.4758  2.0129
18641TIP3    H277415   4.776   2.064  16.235  0.5198  1.6797 -0.3222
18642TIP3   OH277416   2.431   2.006   1.185 -0.1463 -0.4304 -0.8273
18642TIP3    H177417   2.465   1.941   1.247 -3.1690  0.6606  2.3155
18642TIP3    H277418   2.358   1.961   1.141 -0.9805  0.1673 -0.0924
18643TIP3   OH277419   3.320   1.677   1.426 -0.0001 -0.0306  0.6827
18643TIP3    H177420   3.245   1.688   1.367 -1.2434  0.2792  2.2434
18643TIP3    H277421   3.323   1.584   1.445 -0.3214  0.0261  1.0207
18644TIP3   OH277422   5.734   0.446   1.047 -0.3272 -0.5135  0.2712
18644TIP3    H177423   5.743   0.508   0.975  0.1882 -0.3906  0.4395
18644TIP3    H277424   5.671   0.381   1.014 -2.3811  1.1023  0.8111
18645TIP3   OH277425   5.361   3.176  16.050 -0.5463 -0.1069 -0.3184
18645TIP3    H177426   5.441   3.180  16.101 -0.6761  0.0724 -0.1262
18645TIP3    H277427   5.389   3.189  15.959 -0.3738  0.0819 -0.2376
18646TIP3   OH277428   0.330   4.833  16.700  0.5935 -0.4011 -0.1872
18646TIP3    H177429   0.404   4.892  16.714  2.3639 -2.1984 -1.3629
18646TIP3    H277430   0.336   4.769  16.770  0.2150 -0.6156 -0.3476
18647TIP3   OH277431   6.045   4.075   5.761  0.0782 -0.0857  0.3161
18647TIP3    H177432   6.003   4.058   5.846  0.3706 -1.6666  0.1759
18647TIP3    H277433   6.014   4.004   5.705  0.0403  0.8412 -0.8670
18648TIP3   OH277434   6.801   4.402   5.776  0.5910  0.6930 -0.0377
18648TIP3    H177435   6.800   4.471   5.843 -0.4430  0.6272  0.0228
18648TIP3    H277436   6.808   4.450   5.694 -0.5400  0.9182 -0.0230
18649TIP3   OH277437   3.354   0.787  14.184  0.0556  0.0616  0.1496
18649TIP3    H177438   3.387   0.816  14.099 -0.4892  0.0981 -0.0525
18649TIP3    H277439   3.417   0.722  14.214 -0.2435 -0.6414 -0.7201
18650TIP3   OH277440   4.736   6.015   3.379  0.4283  0.3841 -0.0565
18650TIP3    H177441   4.799   6.053   3.318 -1.2015  1.0381 -1.4349
18650TIP3    H277442   4.786   5.951   3.429  1.6112 -1.2802 -3.0576
18651TIP3   OH277443   0.770   2.986   4.593 -0.3049 -0.2267  0.1374
18651TIP3    H177444   0.816   2.981   4.677 -0.8563  1.8635  0.6316
18651TIP3    H277445   0.796   3.071   4.557 -1.9723 -0.0089 -0.6339
18652TIP3   OH277446   1.892   2.316  12.122 -0.4366 -0.5961 -0.6748
18652TIP3    H177447   1.915   2.224  12.131 -0.0018 -0.5171 -0.9499
18652TIP3    H277448   1.798   2.316  12.105 -0.6719 -0.9178  0.5762
18653TIP3   OH277449   2.382   2.159  16.940  0.7552  0.5009  0.1201
18653TIP3    H177450   2.447   2.191  16.877  2.1373 -1.3237  0.5299
18653TIP3    H277451   2.316   2.115  16.886  1.4735 -0.2794 -0.1452
18654TIP3   OH277452   4.736   5.248   1.394  0.6056 -0.1121  0.0157
18654TIP3    H177453   4.778   5.203   1.467 -1.8358  0.1495  1.7018
18654TIP3    H277454   4.684   5.181   1.351  0.6479  0.1156 -0.3942
18655TIP3   OH277455   2.368   4.126  16.289 -0.1247  0.2402 -0.5344
18655TIP3    H177456   2.365   4.220  16.307 -0.5585  0.2676 -0.7112
18655TIP3    H277457   2.356   4.120  16.194  1.1574  0.0588 -0.6995
18656TIP3   OH277458   5.021   2.483  15.671 -0.0504 -0.0257  0.4382
18656TIP3    H177459   5.089   2.466  15.605 -2.0151  1.3218 -2.1229
18656TIP3    H277460   5.025   2.578  15.686  0.3680 -0.3051  2.3708
18657TIP3   OH277461   6.773   2.433  12.053  0.1203  0.3495  0.2195
18657TIP3    H177462   6.749   2.483  12.131  2.1352  1.5855  0.1129
18657TIP3    H277463   6.712   2.463  11.986 -0.6367  0.4205  0.9265
18658TIP3   OH277464   4.617   4.356   3.023  0.6760 -0.0203  0.0993
18658TIP3    H177465   4.690   4.419   3.023  0.0639  0.7059  0.5012
18658TIP3    H277466   4.636   4.298   3.096  0.4632  0.6470  0.6985
18659TIP3   OH277467   0.275   0.938   1.928  0.0910  0.6063  0.0886
18659TIP3    H177468   0.191   0.983   1.937 -0.0038  1.3005 -3.0024
18659TIP3    H277469   0.257   0.847   1.950 -1.1688  0.9560  0.5779
18660TIP3   OH277470   3.229   2.335   5.318  0.6223  0.1980 -0.3732
18660TIP3    H177471   3.179   2.256   5.341  1.0514  0.2632  0.8816
18660TIP3    H277472   3.316   2.302   5.298 -0.1746 -0.0844 -3.9742
18661TIP3   OH277473   5.929   0.802   1.903 -0.3447 -0.4913 -0.0877
18661TIP3    H177474   5.836   0.778   1.907 -0.5969  0.5818  1.2276
18661TIP3    H277475   5.947   0.842   1.988  0.8425  1.0404 -1.0060
18662TIP3   OH277476   5.521   2.058   5.997  0.3994  0.4713 -0.0514
18662TIP3    H177477   5.427   2.040   6.003  0.0820  2.1058  0.2219
18662TIP3    H277478   5.549   2.011   5.918 -0.0579 -2.2755  1.3098
18663TIP3   OH277479   1.119   1.086   3.076 -0.3009 -0.6934  0.0313
18663TIP3    H177480   1.033   1.118   3.050 -0.0282 -0.1329 -0.1894
18663TIP3    H277481   1.106   1.054   3.166 -1.2288 -2.5987 -0.7204
18664TIP3   OH277482   0.459   4.093  11.633  0.3585 -0.1577  0.5970
18664TIP3    H177483   0.420   4.149  11.567 -0.1292  0.3237  1.2757
18664TIP3    H277484   0.443   4.139  11.716 -0.7882 -1.6707  1.2759
18665TIP3   OH277485   3.618   3.042  10.749 -0.6147  0.1639 -0.8878
18665TIP3    H177486   3.711   3.049  10.725 -0.9193 -0.6896 -2.4611
18665TIP3    H277487   3.606   2.951  10.775 -0.4673  0.8831  2.0943
18666TIP3   OH277488   5.287   5.549   5.704  0.0102 -0.0081  0.7123
18666TIP3    H177489   5.289   5.542   5.799  0.0555  0.0591  0.7168
18666TIP3    H277490   5.353   5.486   5.674 -0.5131 -0.5582  0.6936
18667TIP3   OH277491   3.029   5.555  16.224  0.0451 -0.0515  0.3902
18667TIP3    H177492   3.066   5.478  16.182 -1.3056 -0.2987 -0.3813
18667TIP3    H277493   2.962   5.521  16.283  0.0393  0.4778  0.6971
18668TIP3   OH277494   6.166   6.408  14.230  0.1056  0.3196 -0.0535
18668TIP3    H177495   6.104   6.396  14.301 -0.5906 -1.3405 -0.8749
18668TIP3    H277496   6.138   6.488  14.185  1.5361  2.3588  2.4045
18669TIP3   OH277497   6.486   1.373   0.120 -0.2554 -0.5682  0.3698
18669TIP3    H177498   6.458   1.431   0.049 -0.1614  0.5248  1.1943
18669TIP3    H277499   6.442   1.290   0.102  0.2378 -0.5200 -1.2944
18670TIP3   OH277500   5.456   5.943  11.482  0.4901 -0.5855  0.1923
18670TIP3    H177501   5.518   5.970  11.415 -0.9789  1.4986 -0.4344
18670TIP3    H277502   5.401   5.877  11.439  0.2647 -0.0750 -0.3258
18671TIP3   OH277503   2.343   3.672   2.965 -0.7644 -0.3371  0.1801
18671TIP3    H177504   2.324   3.693   3.056  1.0110 -0.0131  0.5160
18671TIP3    H277505   2.438   3.679   2.958 -0.9052  0.2715 -1.8546
18672TIP3   OH277506   4.355   4.902  16.837 -0.0075  0.4826  0.0888
18672TIP3    H177507   4.327   4.989  16.807  0.5156 -0.1670 -2.4748
18672TIP3    H277508   4.383   4.916  16.928 -0.4115  2.8855 -0.0986
18673TIP3   OH277509   2.317   3.447   2.736  0.0213 -0.3741  0.4017
18673TIP3    H177510   2.377   3.520   2.721 -1.3088  0.5117 -0.7904
18673TIP3    H277511   2.273   3.469   2.818  0.5502 -0.5057  0.7278
18674TIP3   OH277512   6.739   6.117   6.030  0.1548 -0.4849  0.1484
18674TIP3    H177513   6.818   6.063   6.038  0.2205 -0.3657  0.3143
18674TIP3    H277514   6.763   6.201   6.069  0.6186  0.2671 -1.6210
18675TIP3   OH277515   5.280   2.719   5.897 -0.2952  0.1083 -1.0576
18675TIP3    H177516   5.343   2.656   5.864  0.9585  0.7049  0.0864
18675TIP3    H277517   5.320   2.752   5.978 -1.2209  1.8612 -1.2744
18676TIP3   OH277518   3.945   5.667   3.256 -0.4718  0.0399 -0.2694
18676TIP3    H177519   3.921   5.623   3.337 -1.3551  0.4112 -0.3185
18676TIP3    H277520   3.992   5.601   3.205  0.9138  0.0727  0.9129
18677TIP3   OH277521   4.841   2.874   3.394  0.0681 -0.1086  0.1950
18677TIP3    H177522   4.921   2.867   3.446  1.8629 -1.4531 -2.5112
18677TIP3    H277523   4.846   2.961   3.354 -0.3749  0.2027  0.7983
18678TIP3   OH277524   3.172   0.011   2.702  0.7390 -0.0706 -0.4402
18678TIP3    H177525   3.124  -0.065   2.734 -0.4174  0.2479 -1.3615
18678TIP3    H277526   3.169   0.073   2.775  0.2625 -0.2756 -0.2832
18679TIP3   OH277527   5.013   2.094   0.412  0.2391  0.1019 -0.2579
18679TIP3    H177528   4.974   2.010   0.387  0.7621 -0.3871  0.5215
18679TIP3    H277529   5.106   2.084   0.389  0.0140  1.1202 -1.7733
18680TIP3   OH277530   4.880   4.874   4.517 -0.0024  0.1034 -0.0006
18680TIP3    H177531   4.942   4.911   4.579  0.5182 -2.2798  0.9918
18680TIP3    H277532   4.934   4.835   4.449 -0.5517  1.5953 -1.3607
18681TIP3   OH277533   5.698   2.340   0.946  0.2912 -0.2371  0.3407
18681TIP3    H177534   5.624   2.376   0.995 -0.9193 -0.8951 -0.9140
18681TIP3    H277535   5.667   2.254   0.918  0.7531  0.2819 -1.9087
18682TIP3   OH277536   3.639   2.937  16.991 -0.1867  0.5505  0.3995
18682TIP3    H177537   3.583   2.914  17.066  1.4171  0.0254  1.4861
18682TIP3    H277538   3.667   3.027  17.010  0.5632  0.2675  0.6705
18683TIP3   OH277539   2.349   2.271   4.538  0.1182  0.1959  0.4748
18683TIP3    H177540   2.441   2.298   4.537  0.0681  0.4096 -1.0637
18683TIP3    H277541   2.300   2.353   4.536 -0.0909  0.0674  0.3299
18684TIP3   OH277542   5.854   2.623  15.946  0.6268 -0.2893 -0.5130
18684TIP3    H177543   5.905   2.544  15.924 -1.3714 -1.1959 -2.1880
18684TIP3    H277544   5.861   2.678  15.868  0.9228  0.6423  0.1541
18685TIP3   OH277545   3.119   3.868  15.672 -0.1371  0.2007 -0.1070
18685TIP3    H177546   3.077   3.839  15.591 -2.3255 -1.9859  1.6546
18685TIP3    H277547   3.147   3.787  15.716 -0.2222  1.1953  1.9172
18686TIP3   OH277548   0.405   0.012  13.960  0.3223 -0.1097 -0.3587
18686TIP3    H177549   0.328   0.058  13.995 -0.8908 -1.7155 -0.7850
18686TIP3    H277550   0.378  -0.017  13.873  0.4142 -2.9132  0.4471
18687TIP3   OH277551   2.711   1.346   5.136 -0.3409 -0.0510  0.4751
18687TIP3    H177552   2.652   1.287   5.088  1.3459  0.0042 -1.8364
18687TIP3    H277553   2.725   1.420   5.076 -0.2483  1.4058  2.2023
18688TIP3   OH277554   5.303   5.825  13.388  0.2305  0.2633  0.2657
18688TIP3    H177555   5.307   5.733  13.360 -1.4968  0.7405 -1.7428
18688TIP3    H277556   5.385   5.862  13.357  0.3705 -0.2935 -0.0481
18689TIP3   OH277557   6.405   0.153   3.382  0.4646  0.4765  0.3331
18689TIP3    H177558   6.310   0.148   3.386  0.5239 -0.2381  1.3809
18689TIP3    H277559   6.424   0.193   3.297 -0.7637  0.7080  0.1530
18690TIP3   OH277560   4.204   5.402  14.214  0.4761 -0.3506 -0.0242
18690TIP3    H177561   4.166   5.464  14.151  0.9669  1.0110  0.9966
18690TIP3    H277562   4.298   5.412  14.204  0.5584 -0.4527  0.6135
18691TIP3   OH277563   2.773   5.553  15.497  0.1456 -0.8141  0.2620
18691TIP3    H177564   2.687   5.542  15.537  0.5235  0.4603  1.5213
18691TIP3    H277565   2.834   5.518  15.563  0.6849 -0.1892  0.1075
18692TIP3   OH277566   1.202   2.690   3.048  0.0021  0.1003  0.1067
18692TIP3    H177567   1.241   2.744   2.979  2.6833 -0.7741  0.8081
18692TIP3    H277568   1.274   2.674   3.109 -2.0018 -0.0999  2.5493
18693TIP3   OH277569   4.884   0.227  14.312  0.1735  0.7259  0.5598
18693TIP3    H177570   4.837   0.309  14.330  3.4696  2.6150  1.2646
18693TIP3    H277571   4.939   0.247  14.237  0.5659 -1.0669  0.3393
18694TIP3   OH277572   0.098   3.446  16.926 -0.4450 -0.4118  0.2191
18694TIP3    H177573   0.106   3.372  16.865 -0.2344 -0.3853  0.2129
18694TIP3    H277574   0.006   3.472  16.919  0.1051  1.2394 -2.0559
18695TIP3   OH277575   4.538   3.059   4.209 -0.7459  0.3753 -0.5373
18695TIP3    H177576   4.512   3.131   4.267 -0.2547  0.2318 -0.1306
18695TIP3    H277577   4.547   3.100   4.123  2.7486  1.5824  0.2403
18696TIP3   OH277578   5.733   6.597   1.813  0.2600  0.9490  0.2975
18696TIP3    H177579   5.678   6.655   1.866 -0.0550  0.8225  0.1105
18696TIP3    H277580   5.739   6.517   1.865  0.1936  0.9301  0.2753
18697TIP3   OH277581   5.331   1.881   4.520  0.4396 -1.3154  0.1653
18697TIP3    H177582   5.380   1.823   4.461 -1.3823 -0.0207 -2.8542
18697TIP3    H277583   5.312   1.958   4.467 -1.5379 -0.1089  2.4371
18698TIP3   OH277584   4.020   6.181  15.472  0.1578 -0.2617 -0.0907
18698TIP3    H177585   3.949   6.204  15.531  0.5017 -0.5560  0.4518
18698TIP3    H277586   4.013   6.243  15.399  0.9344  1.4461  1.2098
18699TIP3   OH277587   4.084   1.929  10.936 -0.5258  0.6776 -0.0679
18699TIP3    H177588   4.110   1.997  10.998  0.9302  0.7276 -0.7045
18699TIP3    H277589   4.002   1.961  10.898 -1.2688  0.7998  1.5575
18700TIP3   OH277590   0.855   3.754   6.284  0.5570  0.0192  0.1020
18700TIP3    H177591   0.896   3.674   6.317  0.3991 -0.1037  0.0037
18700TIP3    H277592   0.782   3.770   6.344 -1.3105 -1.6128 -1.5866
18701TIP3   OH277593   2.813   1.431   4.361 -0.0367  0.1980 -0.3642
18701TIP3    H177594   2.876   1.360   4.374 -0.0131  0.5376  1.7389
18701TIP3    H277595   2.823   1.455   4.269  1.6566 -0.9206 -0.5227
18702TIP3   OH277596   6.429   4.648   5.432  0.0940  0.0847  0.1361
18702TIP3    H177597   6.456   4.599   5.510 -0.4893  0.6197  0.6877
18702TIP3    H277598   6.358   4.597   5.395 -0.8512  0.7414  0.9928
18703TIP3   OH277599   3.703   1.060   1.295  0.4857  0.1962 -0.2387
18703TIP3    H177600   3.661   1.143   1.271 -1.6335 -1.2586 -1.8808
18703TIP3    H277601   3.635   1.012   1.343  1.4190 -0.9204  0.0022
18704TIP3   OH277602   1.347   4.613  15.085 -0.0465  0.3885 -0.4833
18704TIP3    H177603   1.305   4.537  15.046  1.0758 -0.6423  0.2668
18704TIP3    H277604   1.343   4.597  15.180 -1.4750  2.1818 -0.1747
18705TIP3   OH277605   2.129   2.951  16.165 -0.0782 -0.2301 -0.0177
18705TIP3    H177606   2.143   2.884  16.232 -0.4961 -1.1739 -0.8514
18705TIP3    H277607   2.136   3.034  16.213  0.5537 -0.8482  1.0147
18706TIP3   OH277608   6.585   4.173  16.117 -0.3947 -0.0269  0.1341
18706TIP3    H177609   6.559   4.180  16.209  0.1221  0.3206  0.2610
18706TIP3    H277610   6.666   4.123  16.119 -1.4718 -1.8843 -0.3318
18707TIP3   OH277611   3.869   2.165   0.734  0.3844  0.0352 -0.8416
18707TIP3    H177612   3.787   2.213   0.727  1.6175  2.2658 -0.6423
18707TIP3    H277613   3.873   2.137   0.825 -0.0237  0.1388 -0.7916
18708TIP3   OH277614   1.327   3.338  14.136  0.0878 -0.3345 -0.0865
18708TIP3    H177615   1.266   3.309  14.204  0.6479 -0.2156  0.4853
18708TIP3    H277616   1.274   3.391  14.077 -0.5888 -1.1622 -0.2262
18709TIP3   OH277617   0.253   6.765  12.810  0.0205 -0.0575  0.1609
18709TIP3    H177618   0.278   6.813  12.731  0.2080  0.9710  0.8233
18709TIP3    H277619   0.216   6.683  12.778  0.6773  0.0741 -0.9659
18710TIP3   OH277620   6.445   1.881   2.408  0.5820 -0.0237  0.2870
18710TIP3    H177621   6.356   1.864   2.379  0.5748  1.0777 -0.3850
18710TIP3    H277622   6.500   1.860   2.332  0.8932 -0.5074  0.6333
18711TIP3   OH277623   4.268   2.693  14.039 -0.1260 -0.1559  0.5834
18711TIP3    H177624   4.329   2.619  14.035 -0.4293 -0.3730 -0.1532
18711TIP3    H277625   4.297   2.744  14.115 -0.4011 -1.4593  1.5976
18712TIP3   OH277626   5.727   0.367  16.813  0.1091 -0.4613  0.0848
18712TIP3    H177627   5.749   0.327  16.729  2.3880 -3.3150  1.8504
18712TIP3    H277628   5.694   0.295  16.867  0.8438  0.7487  2.2956
18713TIP3   OH277629   2.390   0.341  15.707 -0.5678  0.4953 -0.2471
18713TIP3    H177630   2.299   0.311  15.710 -0.5472 -0.2869 -3.7050
18713TIP3    H277631   2.442   0.261  15.702  0.4018  0.9273  1.8603
18714TIP3   OH277632   5.352   4.523  15.645  0.5302  0.1972 -0.0267
18714TIP3    H177633   5.264   4.490  15.628  0.3907  0.5613 -0.0272
18714TIP3    H277634   5.353   4.541  15.739  0.4340  0.6738 -0.1137
18715TIP3   OH277635   4.049   6.057   3.978 -0.3573 -0.3114 -1.1362
18715TIP3    H177636   4.095   6.120   4.033 -0.7250 -0.1473 -1.0124
18715TIP3    H277637   3.975   6.027   4.031 -0.6474 -0.2373 -1.4908
18716TIP3   OH277638   0.331   1.269  15.575  0.1334 -0.1496 -0.5971
18716TIP3    H177639   0.373   1.275  15.661 -0.4544  0.5053 -0.3410
18716TIP3    H277640   0.256   1.212  15.589  0.2629 -0.3596 -0.7683
18717TIP3   OH277641   5.935   5.002  15.490 -0.4448 -0.1777  0.6603
18717TIP3    H177642   6.028   4.994  15.515 -0.2786  0.9228  0.4287
18717TIP3    H277643   5.889   5.015  15.572 -0.3954 -0.6740  0.7716
18718TIP3   OH277644   2.918   5.174  11.861  0.4286 -0.5906 -0.7610
18718TIP3    H177645   2.874   5.240  11.914  1.1648 -1.1851  0.6766
18718TIP3    H277646   2.925   5.212  11.774  0.1303  0.8777 -0.1622
18719TIP3   OH277647   4.672   5.297  13.675 -0.2327  0.1856 -0.4728
18719TIP3    H177648   4.640   5.348  13.749  1.0089 -0.3933  0.5102
18719TIP3    H277649   4.626   5.214  13.681  0.6428 -0.2627  0.3220
18720TIP3   OH277650   5.124   0.277   0.819 -0.0538  0.6885 -0.5302
18720TIP3    H177651   5.105   0.278   0.726  0.7141  2.9710 -0.7145
18720TIP3    H277652   5.067   0.208   0.855  0.1428 -0.7146 -2.7351
18721TIP3   OH277653   2.797   2.138  12.588  0.1027 -0.4389 -0.0174
18721TIP3    H177654   2.752   2.053  12.583 -2.3113  0.7613 -0.1989
18721TIP3    H277655   2.820   2.158  12.498  1.9950 -1.4938  0.1802
18722TIP3   OH277656   5.459   4.704   5.928 -0.4932 -0.0479  0.0679
18722TIP3    H177657   5.540   4.659   5.905 -0.9248 -0.7181 -0.1694
18722TIP3    H277658   5.485   4.795   5.943  0.2596 -0.2110 -0.2281
18723TIP3   OH277659   1.447   4.550   3.456 -0.1429  0.1411  0.0611
18723TIP3    H177660   1.468   4.471   3.406 -1.7144 -1.4182  1.7331
18723TIP3    H277661   1.523   4.607   3.443  0.2197 -0.8207 -2.7271
18724TIP3   OH277662   3.321   5.811  10.664 -0.0975  0.3952  0.2854
18724TIP3    H177663   3.342   5.724  10.629  0.2712  0.3634  0.5793
18724TIP3    H277664   3.228   5.807  10.682 -0.0686  0.0290  0.3725
18725TIP3   OH277665   3.940   4.028  15.638  0.0682  0.0476  0.1655
18725TIP3    H177666   3.939   4.000  15.730 -0.3209 -1.3778 -0.2559
18725TIP3    H277667   4.028   4.006  15.607 -0.3100 -0.9746 -0.2277
18726TIP3   OH277668   3.265   4.084   4.283  0.2598 -0.0448 -0.1934
18726TIP3    H177669   3.225   4.017   4.228 -0.9654  1.9011 -1.8252
18726TIP3    H277670   3.350   4.101   4.243  0.5025 -0.4808  0.1260
18727TIP3   OH277671   1.492   5.147  16.909  0.7475  0.5640 -0.1684
18727TIP3    H177672   1.563   5.196  16.867  0.2046 -0.2848 -2.1589
18727TIP3    H277673   1.438   5.116  16.837  0.0543 -1.4395  1.1305
18728TIP3   OH277674   1.884   2.644   4.304 -0.3754 -0.5022 -0.1151
18728TIP3    H177675   1.791   2.658   4.286 -0.2199 -0.7246 -1.1744
18728TIP3    H277676   1.891   2.647   4.399 -1.2274  0.9853 -0.0645
18729TIP3   OH277677   0.301   1.155  10.765  0.4239 -0.0793  0.8585
18729TIP3    H177678   0.288   1.242  10.803  2.5072  0.4522  0.4672
18729TIP3    H277679   0.257   1.096  10.827 -2.7992  1.3028  0.1247
18730TIP3   OH277680   5.805   3.083  16.434 -0.2189 -0.3359 -0.3449
18730TIP3    H177681   5.866   3.052  16.367 -0.2806 -0.0863 -0.5150
18730TIP3    H277682   5.862   3.117  16.504 -0.1642  0.2051 -0.6488
18731TIP3   OH277683   2.029   6.632   2.303 -0.2437 -0.6202  0.2335
18731TIP3    H177684   2.071   6.715   2.282 -0.2910 -0.4264  0.9008
18731TIP3    H277685   2.099   6.579   2.341  0.6507 -2.0756 -3.0276
18732TIP3   OH277686   2.019   4.706  16.326  0.5689  0.3333 -0.1948
18732TIP3    H177687   2.064   4.679  16.406  3.3859 -1.1374 -2.1101
18732TIP3    H277688   1.993   4.624  16.284 -2.3258  1.1031 -0.1429
18733TIP3   OH277689   5.416   2.607   3.945  0.0788  0.1167 -0.6017
18733TIP3    H177690   5.322   2.622   3.953 -0.1849  0.0489 -2.9137
18733TIP3    H277691   5.456   2.692   3.964 -0.6791  0.9246 -2.3647
18734TIP3   OH277692   0.101   4.806   0.447  0.0985  0.1280  0.1926
18734TIP3    H177693   0.075   4.820   0.356  0.0564 -0.6713  0.0787
18734TIP3    H277694   0.136   4.717   0.449  0.0563  0.1233  0.9694
18735TIP3   OH277695   1.161   5.532   1.141 -0.3566  0.3465  0.2649
18735TIP3    H177696   1.204   5.486   1.069 -1.0428 -1.3814  0.9052
18735TIP3    H277697   1.157   5.468   1.212  0.6468  2.1127  2.0204
18736TIP3   OH277698   0.593   4.749  14.107 -0.4286  0.0525 -0.0305
18736TIP3    H177699   0.504   4.716  14.112 -1.2594  2.0365 -0.7873
18736TIP3    H277700   0.595   4.802  14.028  0.7237  2.0112  1.2351
18737TIP3   OH277701   4.627   3.998  14.024 -0.0754  0.2808 -0.0962
18737TIP3    H177702   4.556   3.964  14.078  2.2279 -0.7278  2.5210
18737TIP3    H277703   4.677   3.920  13.999  0.7569  1.0654 -0.9591
18738TIP3   OH277704   3.447   4.615  17.056  0.8419 -0.1128 -0.0921
18738TIP3    H177705   3.484   4.574  17.134  1.2954 -0.4608 -0.4847
18738TIP3    H277706   3.353   4.615  17.071  0.9299 -0.1109  0.4869
18739TIP3   OH277707   0.940   2.090   6.368 -0.1375 -0.0958 -0.0850
18739TIP3    H177708   0.945   2.119   6.459 -0.9092  0.3822 -0.1821
18739TIP3    H277709   0.907   2.000   6.373 -0.7490  0.1297  0.0919
18740TIP3   OH277710   0.719   5.123   0.878 -0.0356  0.1668 -0.1634
18740TIP3    H177711   0.809   5.096   0.898  0.8239  1.4713 -2.0036
18740TIP3    H277712   0.707   5.204   0.927  0.1870  0.5485 -0.7276
18741TIP3   OH277713   3.057   4.412   4.700  0.6412 -0.0633  0.1535
18741TIP3    H177714   3.053   4.503   4.729 -0.9840 -0.1160  0.1902
18741TIP3    H277715   3.135   4.376   4.743  0.0329  0.6999  1.9850
18742TIP3   OH277716   5.879   4.715  13.526 -0.2902  0.0056  0.1546
18742TIP3    H177717   5.958   4.702  13.474 -0.5742  0.0300 -0.2853
18742TIP3    H277718   5.851   4.804  13.506 -1.1170 -0.4284 -0.6408
18743TIP3   OH277719   0.064   5.709  14.386  0.2914 -0.2002  0.0102
18743TIP3    H177720   0.080   5.789  14.336  0.2920  0.6423  1.3200
18743TIP3    H277721   0.148   5.688  14.425  0.9073 -2.1849 -2.1220
18744TIP3   OH277722   5.008   3.136  12.695 -0.0978 -0.8016  0.1296
18744TIP3    H177723   5.047   3.213  12.735  0.7846 -1.3279  0.3109
18744TIP3    H277724   5.021   3.149  12.601  0.9546 -1.1781  0.2039
18745TIP3   OH277725   1.079   3.554   0.171 -0.1070  0.0007  0.0254
18745TIP3    H177726   1.105   3.646   0.164  2.5205 -0.4291  2.4595
18745TIP3    H277727   1.081   3.536   0.265 -0.6891 -2.5293 -0.3940
18746TIP3   OH277728   6.315   1.135   0.559 -0.0873 -0.1596 -0.2514
18746TIP3    H177729   6.318   1.185   0.641  0.7588 -1.4734  0.5672
18746TIP3    H277730   6.406   1.132   0.529 -0.1302 -1.0741 -0.3378
18747TIP3   OH277731   6.363   3.001  16.699  0.5062  0.2450 -0.1142
18747TIP3    H177732   6.371   3.075  16.760  1.5405  0.5750 -0.6335
18747TIP3    H277733   6.429   3.018  16.632  1.5606 -1.7400  0.3518
18748TIP3   OH277734   6.267   3.669   0.785 -0.2203 -0.5381  0.5314
18748TIP3    H177735   6.192   3.640   0.734 -0.5034  0.1690  0.5308
18748TIP3    H277736   6.332   3.601   0.773 -0.0231 -0.0766 -1.3521
18749TIP3   OH277737   2.992   2.429  13.063  0.7821 -0.0993  0.2595
18749TIP3    H177738   2.940   2.471  12.995 -0.7568  0.5858  1.8006
18749TIP3    H277739   3.004   2.497  13.130  1.9183 -0.8633  0.8683
18750TIP3   OH277740   1.367   1.910   3.893  0.0138  0.0837 -0.7391
18750TIP3    H177741   1.391   1.979   3.954 -1.3106  0.6804 -0.8517
18750TIP3    H277742   1.354   1.955   3.810  1.5697 -0.6835 -1.4473
18751TIP3   OH277743   5.974   5.924  10.416 -0.2740  0.5569 -0.3955
18751TIP3    H177744   6.002   5.846  10.367  0.2415  0.3835  0.1710
18751TIP3    H277745   6.000   5.906  10.506 -1.9142  0.5414  0.1020
18752TIP3   OH277746   5.314   1.642   3.098 -0.2195 -0.0646  0.1658
18752TIP3    H177747   5.267   1.652   3.181  0.7379 -1.6004  0.9409
18752TIP3    H277748   5.399   1.682   3.114  0.1528 -0.8170  0.1173
18753TIP3   OH277749   1.366   2.505   1.890  0.6183 -0.1416  0.0305
18753TIP3    H177750   1.459   2.498   1.913  1.0205 -0.1972 -1.4490
18753TIP3    H277751   1.367   2.523   1.796 -0.8785  0.0228  0.0287
18754TIP3   OH277752   6.096   3.161   6.287  0.1028  0.6668  0.2659
18754TIP3    H177753   6.174   3.191   6.334 -0.4324  2.3390  0.1399
18754TIP3    H277754   6.024   3.174   6.349 -0.4215  1.6159 -0.5293
18755TIP3   OH277755   3.652   6.613  10.527  0.3089 -0.0367  0.1977
18755TIP3    H177756   3.743   6.601  10.553  0.3653  0.7870  0.4081
18755TIP3    H277757   3.655   6.633  10.434  0.2499 -1.0713 -0.0428
18756TIP3   OH277758   5.675   3.286   5.086 -0.5149  0.7057 -0.4803
18756TIP3    H177759   5.589   3.244   5.095 -1.1912  2.1486  0.2441
18756TIP3    H277760   5.711   3.251   5.005 -1.0607 -1.1721  0.0340
18757TIP3   OH277761   2.768   3.054   4.501  0.4892  0.5537  0.3572
18757TIP3    H177762   2.750   3.062   4.407  1.8685  0.9452  0.1013
18757TIP3    H277763   2.860   3.026   4.506  0.4254  0.4959  1.5881
18758TIP3   OH277764   4.820   6.803  11.873 -0.5593  0.0019  0.6505
18758TIP3    H177765   4.826   6.739  11.943 -0.1445  0.8963  1.4587
18758TIP3    H277766   4.840   6.887  11.915  1.1316  0.3884 -0.8038
18759TIP3   OH277767   0.658   4.828   0.637 -0.8203 -0.1726 -0.7116
18759TIP3    H177768   0.738   4.776   0.643  0.1003  1.2788  0.1496
18759TIP3    H277769   0.603   4.780   0.575  0.3340 -1.6858 -0.6193
18760TIP3   OH277770   4.334   5.169   2.115 -0.3107  0.0508  0.3361
18760TIP3    H177771   4.305   5.093   2.165 -0.6732  0.1021  0.2093
18760TIP3    H277772   4.254   5.219   2.099 -0.1117  0.3276  0.2008
18761TIP3   OH277773   5.711   4.193   6.156  0.5904 -0.1750 -0.4385
18761TIP3    H177774   5.724   4.278   6.199  0.3321  0.2718 -1.2376
18761TIP3    H277775   5.646   4.149   6.211  0.4210  0.3039 -0.2509
18762TIP3   OH277776   6.212   3.369   1.974 -0.7043  0.2608  0.0530
18762TIP3    H177777   6.213   3.463   1.955  0.3774  0.4327  0.8501
18762TIP3    H277778   6.152   3.360   2.048 -0.3013  0.4415  0.4143
18763TIP3   OH277779   5.421   6.214   4.847  0.2443 -0.4624 -0.8187
18763TIP3    H177780   5.345   6.229   4.790  1.0361 -0.5711 -1.9507
18763TIP3    H277781   5.397   6.138   4.900 -0.5686 -0.2777 -0.8994
18764TIP3   OH277782   4.479   2.857   0.471  0.2403 -0.1602  0.5276
18764TIP3    H177783   4.504   2.857   0.564  0.8161 -0.4638  0.3768
18764TIP3    H277784   4.483   2.948   0.445 -0.4320 -0.0078  0.9341
18765TIP3   OH277785   1.546   0.198  13.441  0.0475  0.2744 -0.5033
18765TIP3    H177786   1.606   0.196  13.515 -0.0310 -3.8655 -0.3026
18765TIP3    H277787   1.459   0.202  13.481  0.0461  1.3827 -0.5830
18766TIP3   OH277788   6.784   3.311   1.887 -0.0877  0.2809  0.4604
18766TIP3    H177789   6.696   3.345   1.874 -0.3225  0.1331  1.5007
18766TIP3    H277790   6.789   3.293   1.981  0.3019 -1.7729  0.1081
18767TIP3   OH277791   2.506   6.447   0.747  0.5382 -0.2484  0.1400
18767TIP3    H177792   2.576   6.512   0.752 -0.8278  1.6229 -2.3459
18767TIP3    H277793   2.463   6.452   0.833  1.1102  1.4129  0.3739
18768TIP3   OH277794   2.011   0.270   2.771  0.5787 -0.3986 -0.2382
18768TIP3    H177795   2.020   0.286   2.865 -0.0496  0.4214 -0.3102
18768TIP3    H277796   2.028   0.176   2.762 -0.3636 -0.6965  0.8377
18769TIP3   OH277797   1.017   4.925  13.514  0.1410 -0.4148 -0.1349
18769TIP3    H177798   1.051   4.937  13.602  0.3440  1.1871 -0.4117
18769TIP3    H277799   1.093   4.900  13.462  0.3782  0.3942 -0.1931
18770TIP3   OH277800   1.891   3.003  11.154 -0.4971 -0.1581  0.0738
18770TIP3    H177801   1.852   3.060  11.221 -0.9285 -0.3120 -0.0388
18770TIP3    H277802   1.832   3.011  11.079 -0.1888 -0.2313 -0.1778
18771TIP3   OH277803   1.546   5.175  13.937 -0.2009 -0.0227 -0.9118
18771TIP3    H177804   1.615   5.184  13.872  1.4014  0.6823  0.7993
18771TIP3    H277805   1.523   5.082  13.934  1.5350 -0.4983 -0.8835
18772TIP3   OH277806   3.725   6.421   1.787 -0.8757  0.4282 -0.4967
18772TIP3    H177807   3.783   6.437   1.862 -1.5063 -1.1212  0.3786
18772TIP3    H277808   3.781   6.374   1.724 -0.6898  0.5660 -0.4364
18773TIP3   OH277809   2.472   6.793  16.363  0.1319  0.0988 -0.2565
18773TIP3    H177810   2.404   6.838  16.314 -0.5351 -1.8893 -1.2577
18773TIP3    H277811   2.540   6.773  16.298  1.1287  0.9505  0.4760
18774TIP3   OH277812   6.634   3.195   0.333  0.5340 -0.2293  0.2023
18774TIP3    H177813   6.609   3.114   0.289  1.6188 -0.0115 -0.8758
18774TIP3    H277814   6.566   3.258   0.309 -0.6146 -0.9250  1.4970
18775TIP3   OH277815   3.100   0.941  14.728 -0.0883 -0.1884  0.0750
18775TIP3    H177816   3.101   1.037  14.735  0.6487  0.0091 -1.9025
18775TIP3    H277817   3.011   0.920  14.699 -0.3327 -0.1370  0.7790
18776TIP3   OH277818   2.136   2.845   0.626  0.5537 -0.0859 -0.8814
18776TIP3    H177819   2.173   2.922   0.670  0.5946 -0.0742 -0.9375
18776TIP3    H277820   2.115   2.785   0.698  0.1976  0.1195 -0.8120
18777TIP3   OH277821   4.752   3.825   3.342  0.6263 -0.1163 -0.0311
18777TIP3    H177822   4.757   3.872   3.259  0.9612  0.7815  0.4841
18777TIP3    H277823   4.826   3.764   3.340  0.5823 -0.1581 -0.4218
18778TIP3   OH277824   2.548   6.717  14.904 -0.2305 -0.1462  0.3554
18778TIP3    H177825   2.520   6.663  14.831 -0.3067 -0.3625  0.5466
18778TIP3    H277826   2.632   6.755  14.874 -1.0848  1.1414 -0.5370
18779TIP3   OH277827   3.874   3.022  10.620 -0.1831 -0.0442  0.2223
18779TIP3    H177828   3.898   2.930  10.618  0.0447 -0.0220  1.2688
18779TIP3    H277829   3.904   3.057  10.536 -1.3898 -1.1746 -0.7093
18780TIP3   OH277830   4.165   0.900  14.523  0.1248  0.6644 -0.0229
18780TIP3    H177831   4.078   0.930  14.550  0.0345  0.8714 -0.5212
18780TIP3    H277832   4.149   0.816  14.479  0.1879  0.6484 -0.0156
18781TIP3   OH277833   1.548   5.776   3.351 -0.2214 -0.1605 -0.0281
18781TIP3    H177834   1.589   5.862   3.350 -1.2496  0.3412  0.0111
18781TIP3    H277835   1.489   5.778   3.426  0.6311 -1.3380  0.7225
18782TIP3   OH277836   4.089   2.420  11.207  0.2484 -0.5125 -0.2741
18782TIP3    H177837   4.058   2.509  11.192  1.8789 -0.1829 -2.0335
18782TIP3    H277838   4.155   2.405  11.139  2.1277 -2.0168  1.7210
18783TIP3   OH277839   4.062   5.928  13.334  0.0452 -0.6284  0.1289
18783TIP3    H177840   4.038   5.942  13.243  1.3837 -0.4372 -0.2199
18783TIP3    H277841   4.008   5.989  13.383  0.8912  0.9048 -0.7585
18784TIP3   OH277842   0.950   2.836   3.009  0.1893  0.6559  0.1372
18784TIP3    H177843   0.983   2.760   3.057 -1.6894 -0.9579 -0.9669
18784TIP3    H277844   1.027   2.891   2.996  1.6831 -1.1599  0.7875
18785TIP3   OH277845   2.175   6.203  13.189 -0.1740 -0.2220  0.0109
18785TIP3    H177846   2.141   6.142  13.254  1.4058 -0.6736  0.4515
18785TIP3    H277847   2.099   6.226  13.136 -1.1965 -0.9942  1.0926
18786TIP3   OH277848   4.948   1.789   0.860 -0.3562 -0.5448  0.1922
18786TIP3    H177849   4.991   1.710   0.893 -0.0145 -0.3731  0.1617
18786TIP3    H277850   4.881   1.809   0.925 -0.7182 -1.0899 -0.0035
18787TIP3   OH277851   5.221   3.114  14.912  0.2623  0.5865 -0.0804
18787TIP3    H177852   5.244   3.033  14.867  1.0388  0.8179 -0.1167
18787TIP3    H277853   5.169   3.163  14.849  0.8316  0.6464 -0.5071
18788TIP3   OH277854   5.074   3.851   5.217 -0.6240  0.1917 -0.0002
18788TIP3    H177855   5.150   3.892   5.175 -0.4152 -0.8253 -0.6715
18788TIP3    H277856   5.022   3.924   5.249  1.0548  0.9123  1.2711
18789TIP3   OH277857   0.863   3.432  16.801 -0.9751 -0.1643  0.6450
18789TIP3    H177858   0.787   3.448  16.744 -0.7923  0.8245  0.6522
18789TIP3    H277859   0.851   3.493  16.874 -0.3390 -0.2234  0.8047
18790TIP3   OH277860   0.573   0.221   1.643  0.5058  0.2628  0.0689
18790TIP3    H177861   0.604   0.300   1.599 -1.9308  1.6555  0.6531
18790TIP3    H277862   0.496   0.194   1.592 -1.3396  0.9069  2.3460
18791TIP3   OH277863   6.213   4.740   2.572  0.4220  0.0516  0.6966
18791TIP3    H177864   6.158   4.679   2.622 -0.2547 -0.5213 -0.7085
18791TIP3    H277865   6.293   4.691   2.554  0.7510  0.3282  1.3539
18792TIP3   OH277866   1.136   3.223   3.297  0.2524 -0.1159 -0.1227
18792TIP3    H177867   1.054   3.224   3.348  0.6973  0.6227  0.6190
18792TIP3    H277868   1.178   3.141   3.321  0.7900  0.5348  1.2994
18793TIP3   OH277869   1.562   4.693  16.210 -0.0825  0.1200 -0.0977
18793TIP3    H177870   1.593   4.767  16.261 -1.0027  0.3912  0.0860
18793TIP3    H277871   1.569   4.618  16.268 -0.2988  0.2788  0.1356
18794TIP3   OH277872   1.558   5.020   5.316 -0.1158  0.1835 -0.3483
18794TIP3    H177873   1.620   4.953   5.346 -0.5110 -0.3304 -0.6471
18794TIP3    H277874   1.572   5.025   5.221  1.3015  1.9749 -0.1033
18795TIP3   OH277875   3.235   4.480  11.620 -0.2284  0.2678 -0.2189
18795TIP3    H177876   3.321   4.513  11.596 -0.8621  1.9944 -0.2512
18795TIP3    H277877   3.253   4.399  11.669  1.5923  1.9308  2.1231
18796TIP3   OH277878   5.958   2.444  11.284 -0.0359  0.1942  0.2862
18796TIP3    H177879   5.957   2.400  11.369  1.0224  0.2002  0.3136
18796TIP3    H277880   5.919   2.381  11.224  2.1166 -1.1429  0.1745
18797TIP3   OH277881   6.285   1.124  13.353  0.4097 -0.0930 -0.3494
18797TIP3    H177882   6.335   1.042  13.346  3.6266  1.7272 -0.5773
18797TIP3    H277883   6.266   1.132  13.446  2.4368  0.1112  0.0961
18798TIP3   OH277884   4.887   1.426   3.205 -0.4446  0.0914  0.2663
18798TIP3    H177885   4.929   1.416   3.291 -2.1830  0.6595  1.2194
18798TIP3    H277886   4.896   1.339   3.164 -1.1721 -0.7349  1.7830
18799TIP3   OH277887   4.013   6.762  14.120  0.0916  0.1194  0.4768
18799TIP3    H177888   4.081   6.777  14.186  2.3662  0.8836 -1.8741
18799TIP3    H277889   4.000   6.848  14.079  0.3134 -0.7113 -1.4409
18800TIP3   OH277890   3.413   3.106  14.238  0.2470 -0.5695  0.1499
18800TIP3    H177891   3.477   3.065  14.296 -1.1795 -1.3088  1.2743
18800TIP3    H277892   3.413   3.198  14.265 -0.2427 -0.8629  1.2408
18801TIP3   OH277893   4.540   4.321   3.952 -0.1086  0.4690  0.3256
18801TIP3    H177894   4.557   4.410   3.983 -0.3565  0.1017  1.5785
18801TIP3    H277895   4.520   4.271   4.031  0.5303 -0.8248 -0.2862
18802TIP3   OH277896   0.998   0.690   4.862 -0.1910  0.5017  0.2478
18802TIP3    H177897   0.985   0.694   4.957 -1.5940  0.2416  0.0887
18802TIP3    H277898   0.925   0.742   4.826  0.8798  1.4357 -0.6637
18803TIP3   OH277899   3.644   3.083   2.588  0.4066 -0.1001 -0.7480
18803TIP3    H177900   3.583   3.039   2.647 -1.0420  0.4627 -1.7750
18803TIP3    H277901   3.650   3.025   2.513  0.3766  0.3054 -1.0666
18804TIP3   OH277902   2.119   3.163  14.205  0.3620  0.0389 -0.1865
18804TIP3    H177903   2.116   3.106  14.283 -0.3936 -0.4610 -0.5667
18804TIP3    H277904   2.045   3.223  14.217  1.6884  1.5717  0.6606
18805TIP3   OH277905   2.444   2.241   5.089 -0.4902  0.1612 -0.5116
18805TIP3    H177906   2.372   2.298   5.114 -1.4498 -0.9844 -0.5516
18805TIP3    H277907   2.482   2.281   5.011 -2.6266 -0.4172 -1.9401
18806TIP3   OH277908   1.169   4.016  10.361  0.7915 -0.4511 -0.2777
18806TIP3    H177909   1.143   3.924  10.357  0.1889 -0.6071  3.4393
18806TIP3    H277910   1.251   4.020  10.313  0.0353 -2.5388 -1.9115
18807TIP3   OH277911   6.393   3.208   1.576  0.0384 -0.1645  1.1215
18807TIP3    H177912   6.395   3.277   1.510  1.7825 -1.1186  0.0968
18807TIP3    H277913   6.306   3.214   1.615 -1.0408  0.4991 -1.2184
18808TIP3   OH277914   0.649   2.818  11.604 -0.0165  0.6524  0.1072
18808TIP3    H177915   0.726   2.837  11.549  1.3935 -1.0935  1.3522
18808TIP3    H277916   0.642   2.723  11.602 -0.3954  0.5962  2.2837
18809TIP3   OH277917   1.974   6.239   2.876  0.0438  0.1385 -0.1506
18809TIP3    H177918   1.917   6.170   2.842 -0.1472 -0.5904  1.5431
18809TIP3    H277919   1.968   6.309   2.811 -2.7523  0.0643 -0.1201
18810TIP3   OH277920   2.924   5.334   0.105 -0.0004 -0.0491 -0.2106
18810TIP3    H177921   2.941   5.420   0.067 -1.0805  0.6289  0.7464
18810TIP3    H277922   2.952   5.271   0.038  1.4643  1.0260 -0.6341
18811TIP3   OH277923   5.013   1.153  17.003  0.1207  0.1065  0.0618
18811TIP3    H177924   4.960   1.087  16.959  0.0930  0.9256 -1.1806
18811TIP3    H277925   5.017   1.124  17.094 -0.2113 -1.3777 -0.3812
18812TIP3   OH277926   0.342   2.252   5.725 -0.9032  0.1073 -0.2689
18812TIP3    H177927   0.410   2.199   5.767 -2.2776 -1.1160  0.5168
18812TIP3    H277928   0.390   2.316   5.672  0.8334 -1.0017 -0.1033
18813TIP3   OH277929   0.458   4.318  13.706  0.2542  0.6530  0.3293
18813TIP3    H177930   0.403   4.310  13.783 -0.6097  0.3201 -0.3178
18813TIP3    H277931   0.523   4.385  13.730  1.3157 -0.9131  2.0859
18814TIP3   OH277932   6.213   1.484  13.195  0.1570 -0.7867  0.0080
18814TIP3    H177933   6.186   1.575  13.189  0.3260 -0.6253  1.4646
18814TIP3    H277934   6.297   1.487  13.241  0.9085 -1.5753 -1.2264
18815TIP3   OH277935   1.495   1.514  12.561  0.0865  0.2072  0.2487
18815TIP3    H177936   1.554   1.589  12.552  1.9005 -1.1074  0.6773
18815TIP3    H277937   1.545   1.440  12.527 -0.4247 -1.3752  2.7554
18816TIP3   OH277938   4.935   0.017  15.497 -0.0202 -0.2630  0.3877
18816TIP3    H177939   4.991  -0.057  15.520  0.0539 -0.3918 -0.1841
18816TIP3    H277940   4.903  -0.003  15.409  0.1596  0.4718  0.1426
18817TIP3   OH277941   5.208   0.069  11.294 -0.3473 -0.1047  0.1021
18817TIP3    H177942   5.276   0.044  11.231  0.2342 -0.5979  0.9109
18817TIP3    H277943   5.215   0.005  11.365 -0.1375  1.1796  1.2844
18818TIP3   OH277944   0.944   2.158   5.011  0.2074 -0.1116 -0.7464
18818TIP3    H177945   0.900   2.197   5.087 -2.0450 -1.7936 -1.1022
18818TIP3    H277946   0.988   2.081   5.046  0.1086 -0.2697 -0.9763
18819TIP3   OH277947   2.978   2.061  10.449  0.1222  0.3533  0.0706
18819TIP3    H177948   3.012   1.994  10.508  1.5554 -0.5910 -1.7329
18819TIP3    H277949   2.893   2.027  10.420  0.0366  0.1870  0.5004
18820TIP3   OH277950   0.961   5.352   0.338 -0.0293  0.1033 -0.4367
18820TIP3    H177951   0.883   5.375   0.388  0.4057  1.2417 -0.2563
18820TIP3    H277952   1.021   5.425   0.352  0.7791 -0.3978 -1.1890
18821TIP3   OH277953   4.941   0.877  14.588 -0.5715 -0.2135 -0.3005
18821TIP3    H177954   4.975   0.945  14.529 -0.4870  0.1033  0.1126
18821TIP3    H277955   4.907   0.809  14.529  0.6152 -0.4679 -0.7389
18822TIP3   OH277956   5.013   2.563  13.441 -0.1360 -0.0256  0.5322
18822TIP3    H177957   5.107   2.568  13.459 -0.4251  1.6143  1.9474
18822TIP3    H277958   4.982   2.491  13.496  0.2412 -0.3776  0.2875
18823TIP3   OH277959   3.574   6.121   2.746  0.0941  0.7081  0.5549
18823TIP3    H177960   3.548   6.156   2.831  0.3620 -0.4017  1.1148
18823TIP3    H277961   3.670   6.112   2.752  0.0331 -0.1232  0.4381
18824TIP3   OH277962   3.599   2.608   3.601  0.1745  0.4565  0.0636
18824TIP3    H177963   3.666   2.579   3.540 -0.9629  1.6702 -1.8611
18824TIP3    H277964   3.522   2.557   3.578  0.3902 -1.0571  2.3721
18825TIP3   OH277965   0.535   3.362  15.659  0.3210 -0.1460  0.6013
18825TIP3    H177966   0.458   3.310  15.636  1.0075 -1.4667  1.1887
18825TIP3    H277967   0.502   3.424  15.725 -0.6599  0.7019 -0.6296
18826TIP3   OH277968   1.303   4.263  11.860  0.0855 -0.4969  0.0970
18826TIP3    H177969   1.311   4.330  11.792  0.3272 -1.2744 -0.6473
18826TIP3    H277970   1.217   4.225  11.847 -0.5934  0.5214  1.3391
18827TIP3   OH277971   1.839   1.569  14.059  0.4796  0.3338  0.0728
18827TIP3    H177972   1.912   1.584  13.998  1.0609 -0.3265  0.5834
18827TIP3    H277973   1.860   1.485  14.100 -0.7086 -0.0003  0.0444
18828TIP3   OH277974   0.263   2.875  12.917  0.4306  0.6142 -0.0197
18828TIP3    H177975   0.297   2.926  12.844  0.7658  0.6033  0.1264
18828TIP3    H277976   0.195   2.820  12.879  2.0815 -1.0077 -0.7621
18829TIP3   OH277977   4.727   2.035   2.329 -0.2070 -0.7649 -0.4014
18829TIP3    H177978   4.732   2.045   2.424  0.7896  2.9547 -0.6785
18829TIP3    H277979   4.640   2.066   2.306 -0.6758 -2.2239 -0.7423
18830TIP3   OH277980   5.407   1.294  16.513  0.2779  0.1616 -0.1346
18830TIP3    H177981   5.371   1.206  16.502  0.5894  0.2043 -1.7463
18830TIP3    H277982   5.411   1.329  16.424  1.1313  1.4113  0.3765
18831TIP3   OH277983   1.018   4.393  14.152 -0.3499 -0.2726 -0.1128
18831TIP3    H177984   0.963   4.316  14.140  0.6448 -1.1090  0.5397
18831TIP3    H277985   0.969   4.447  14.214 -0.6007 -0.8579  0.2119
18832TIP3   OH277986   4.013   2.125   2.012  0.7911  0.4116  0.7220
18832TIP3    H177987   4.052   2.055   2.063  0.2217  0.0074  0.6165
18832TIP3    H277988   4.073   2.199   2.022  1.4489 -0.1243  0.7405
18833TIP3   OH277989   2.179   1.710   2.612 -0.1524 -0.1609  0.3139
18833TIP3    H177990   2.090   1.701   2.647 -0.5651  2.9439  0.3124
18833TIP3    H277991   2.169   1.697   2.518 -0.8002  1.0641  0.1956
18834TIP3   OH277992   1.048   4.546  12.026  0.1156 -0.2445 -0.0792
18834TIP3    H177993   1.022   4.460  11.993 -1.2674  0.0382  0.2264
18834TIP3    H277994   1.142   4.538  12.042 -0.0860 -1.8715  0.4595
18835TIP3   OH277995   0.837   1.811   6.379  0.3319 -0.8492  0.0699
18835TIP3    H177996   0.913   1.753   6.389  0.7922 -0.1227  1.1022
18835TIP3    H277997   0.797   1.813   6.466 -1.5738 -2.1041 -0.7299
18836TIP3   OH277998   2.500   2.779  12.280  0.1522  0.3098  0.6310
18836TIP3    H177999   2.493   2.704  12.220  0.8481 -1.1700  2.3001
18836TIP3    H278000   2.573   2.830  12.246  2.0022 -1.6981  1.3933
18837TIP3   OH278001   4.510   2.097   1.208  0.0818 -0.0270 -0.1826
18837TIP3    H178002   4.586   2.067   1.259  0.9314  2.5620  0.2241
18837TIP3    H278003   4.495   2.027   1.144  2.1931 -1.0565  0.3532
18838TIP3   OH278004   6.607   1.320  16.453 -0.1984 -0.5783  0.3690
18838TIP3    H178005   6.584   1.354  16.367 -0.2830  2.2042  1.3832
18838TIP3    H278006   6.608   1.225  16.442 -1.9111 -0.3956 -2.2474
18839TIP3   OH278007   4.155   3.702   4.166  0.2837  0.1056 -0.1983
18839TIP3    H178008   4.146   3.767   4.096 -0.8948 -0.4762 -0.6085
18839TIP3    H278009   4.243   3.667   4.155 -0.2839 -0.8380 -2.1744
18840TIP3   OH278010   1.363   6.564  14.678 -0.2680 -0.0807 -0.4349
18840TIP3    H178011   1.329   6.482  14.713 -0.7174  0.1339 -0.3515
18840TIP3    H278012   1.413   6.539  14.601  0.1834 -0.4976 -0.0165
18841TIP3   OH278013   1.826   4.229   2.068  0.3663  0.6379  0.5171
18841TIP3    H178014   1.920   4.228   2.081  0.5365  2.3539 -0.3283
18841TIP3    H278015   1.811   4.170   1.995  1.2254  2.7649 -1.5062
18842TIP3   OH278016   0.067   2.067   3.616 -0.2726 -0.7498  0.7812
18842TIP3    H178017  -0.022   2.031   3.619 -0.8532  0.4822 -0.3816
18842TIP3    H278018   0.100   2.043   3.529 -0.1884  0.3559  0.4889
18843TIP3   OH278019   5.279   1.001   4.625  0.2245 -0.1507  0.1818
18843TIP3    H178020   5.278   1.077   4.683 -0.7554 -1.3688  1.8841
18843TIP3    H278021   5.202   1.012   4.569 -0.2893 -0.1820  0.8671
18844TIP3   OH278022   2.606   0.368  11.586 -0.3427  0.2858 -0.0001
18844TIP3    H178023   2.580   0.459  11.570 -0.1870  0.8746  2.6921
18844TIP3    H278024   2.568   0.319  11.513 -2.5263  2.1608 -0.2091
18845TIP3   OH278025   3.595   4.530   1.735  0.2836  0.2663 -0.0426
18845TIP3    H178026   3.648   4.569   1.805 -0.1893 -0.2004  0.5901
18845TIP3    H278027   3.505   4.542   1.764  0.1165 -2.0632  0.6482
18846TIP3   OH278028   0.915   4.041   4.418 -0.1335  0.5677  0.1580
18846TIP3    H178029   0.865   4.110   4.462  0.8280  2.7402 -1.9744
18846TIP3    H278030   0.849   3.993   4.368 -0.8177 -0.2227  1.7138
18847TIP3   OH278031   0.636   6.041   5.125 -0.1143  0.8185  0.2968
18847TIP3    H178032   0.708   6.040   5.187 -1.0224  1.2674  1.4055
18847TIP3    H278033   0.655   6.116   5.068  1.0035  0.0762 -0.3362
18848TIP3   OH278034   3.073   4.728   0.185 -0.4908  0.1551 -0.2709
18848TIP3    H178035   3.160   4.699   0.209 -0.7834  0.1180  0.7806
18848TIP3    H278036   3.088   4.801   0.125  0.2614  0.2353  0.0036
18849TIP3   OH278037   2.985   3.472  13.673  0.1918  0.0671 -0.3596
18849TIP3    H178038   2.999   3.565  13.690 -2.3817  1.1760 -3.3325
18849TIP3    H278039   3.003   3.462  13.580 -0.3495 -2.2540 -0.2740
18850TIP3   OH278040   2.402   1.389   5.634 -0.0347 -0.1344 -0.1222
18850TIP3    H178041   2.375   1.420   5.721  0.6219  0.5712 -0.1670
18850TIP3    H278042   2.331   1.416   5.576  0.9786  2.2599 -0.3442
18851TIP3   OH278043   5.892   0.121  17.114  0.2439  0.1670  0.5457
18851TIP3    H178044   5.824   0.188  17.109  0.0103 -0.1092 -0.2827
18851TIP3    H278045   5.916   0.105  17.022 -0.8879 -2.0425  0.5592
18852TIP3   OH278046   2.615   2.961  14.736  0.1230 -0.0274 -0.4245
18852TIP3    H178047   2.520   2.952  14.735  0.2202 -1.6276  0.5901
18852TIP3    H278048   2.644   2.895  14.799  1.9828 -0.3619 -1.5718
18853TIP3   OH278049   6.088   3.749   1.089 -0.6487  0.0722  0.5009
18853TIP3    H178050   6.116   3.758   0.998 -0.4007  1.0116  0.6598
18853TIP3    H278051   5.993   3.740   1.084 -0.7697  1.2994  0.1932
18854TIP3   OH278052   5.634   2.989  13.608 -0.5707 -0.2119  1.1279
18854TIP3    H178053   5.559   2.942  13.572 -1.3242  1.6459  0.1084
18854TIP3    H278054   5.670   3.036  13.533 -0.5830  1.7475  2.2875
18855TIP3   OH278055   0.480   6.785  12.530  0.5032  0.1261 -1.6597
18855TIP3    H178056   0.406   6.734  12.497 -0.8163  0.4807  0.5238
18855TIP3    H278057   0.444   6.872  12.544  1.2118  0.2155 -0.2523
18856TIP3   OH278058   5.513   4.068   2.084 -0.1390 -0.1011  0.9045
18856TIP3    H178059   5.419   4.061   2.070 -0.0789  0.4080  0.1994
18856TIP3    H278060   5.521   4.111   2.169 -0.5267 -1.3620  1.5918
18857TIP3   OH278061   3.121   5.721  16.415 -0.7654 -0.2182 -0.0711
18857TIP3    H178062   3.103   5.686  16.327 -1.1657  0.3020 -0.1994
18857TIP3    H278063   3.035   5.732  16.455 -0.5865 -0.3587  0.3546
18858TIP3   OH278064   3.627   4.807  11.525 -0.1787 -0.3130  0.0649
18858TIP3    H178065   3.636   4.792  11.619 -2.5805  0.0070  0.3969
18858TIP3    H278066   3.537   4.783  11.504  0.2047 -0.1151 -2.1222
18859TIP3   OH278067   2.027   1.885   3.808 -0.0509 -0.1077  0.5791
18859TIP3    H178068   2.024   1.960   3.749  0.0944  0.0815  0.8084
18859TIP3    H278069   2.120   1.870   3.824  0.0830 -2.0332 -1.5877
18860TIP3   OH278070   3.616   2.949  14.882 -0.6352  0.1970  0.3304
18860TIP3    H178071   3.629   3.018  14.817 -0.9637  0.3192  0.3882
18860TIP3    H278072   3.605   2.869  14.831  1.2004 -0.0705  0.3077
18861TIP3   OH278073   6.676   3.792   4.597  0.4720 -0.1224 -0.1960
18861TIP3    H178074   6.609   3.860   4.598 -0.7472 -1.2875  0.3193
18861TIP3    H278075   6.695   3.778   4.505  1.5794  1.6822 -0.2789
18862TIP3   OH278076   0.809   1.149  15.013 -0.1136 -0.8046 -0.6123
18862TIP3    H178077   0.804   1.154  15.108  4.1990 -0.6981 -0.1877
18862TIP3    H278078   0.798   1.240  14.983 -0.0750 -0.6309 -0.0967
18863TIP3   OH278079   2.411   4.214  11.170 -0.0351 -0.0297  0.0461
18863TIP3    H178080   2.381   4.304  11.155 -0.7247 -0.4602 -1.2393
18863TIP3    H278081   2.462   4.192  11.093  0.0654 -0.7733  0.3167
18864TIP3   OH278082   0.503   1.603  16.034 -0.0531 -0.0409 -0.3017
18864TIP3    H178083   0.458   1.686  16.046 -0.6123 -0.4171  0.2793
18864TIP3    H278084   0.546   1.611  15.949 -2.2269 -0.1097 -1.4785
18865TIP3   OH278085   3.372   4.778  13.463  0.2686 -0.0252 -0.1498
18865TIP3    H178086   3.369   4.842  13.392 -0.9560  1.2993  1.0301
18865TIP3    H278087   3.450   4.801  13.513 -0.6845  1.1899  0.8140
18866TIP3   OH278088   2.602   3.252   3.358  0.0996 -0.1096  0.0798
18866TIP3    H178089   2.670   3.189   3.338 -1.1025 -1.7435  0.9073
18866TIP3    H278090   2.626   3.287   3.444  0.7430  0.5737 -0.3616
18867TIP3   OH278091   0.438   6.020  12.922 -0.0803  0.2529 -0.2566
18867TIP3    H178092   0.515   6.006  12.977  0.6723  0.4499 -1.2376
18867TIP3    H278093   0.371   5.963  12.960  1.5265 -2.5274 -1.3607
18868TIP3   OH278094   3.763   4.187   4.767 -0.4703 -0.4040  0.0107
18868TIP3    H178095   3.762   4.226   4.679  1.4461 -1.4892 -0.5671
18868TIP3    H278096   3.734   4.257   4.825 -0.2470  0.8522 -1.3306
18869TIP3   OH278097   0.293   5.108   1.671  0.3675 -0.1298 -0.2090
18869TIP3    H178098   0.198   5.114   1.680  0.3176 -0.3803 -0.5210
18869TIP3    H278099   0.316   5.024   1.711  0.0672 -1.5449 -2.7493
18870TIP3   OH278100   2.712   4.130  11.831  0.1482 -0.2202  0.3282
18870TIP3    H178101   2.618   4.146  11.816  0.2967  0.5617  0.1752
18870TIP3    H278102   2.741   4.087  11.751 -0.2902 -1.4099  0.7948
18871TIP3   OH278103   4.731   3.211   0.866 -0.3953 -0.1972  0.1681
18871TIP3    H178104   4.671   3.255   0.806  1.4352 -0.0984 -1.7139
18871TIP3    H278105   4.801   3.275   0.880 -0.4808 -0.4449  1.9981
18872TIP3   OH278106   2.550   6.340   3.374 -0.3448 -0.6487  0.2837
18872TIP3    H178107   2.498   6.370   3.299  0.8832  1.0941  0.0825
18872TIP3    H278108   2.549   6.244   3.366 -0.2812 -0.5156 -1.9328
18873TIP3   OH278109   5.499   2.393   5.159  0.6880 -0.5603  0.0855
18873TIP3    H178110   5.584   2.403   5.203  0.7724  0.3627 -0.2816
18873TIP3    H278111   5.434   2.411   5.227  0.7621 -1.5109  0.4325
18874TIP3   OH278112   6.320   2.892   2.621  0.2491 -0.2716 -0.0822
18874TIP3    H178113   6.391   2.829   2.607 -0.0646 -0.6771  0.1376
18874TIP3    H278114   6.354   2.952   2.687  0.0372 -1.0302  0.7315
18875TIP3   OH278115   5.928   2.576   3.305 -0.1955 -0.2997  0.5469
18875TIP3    H178116   5.929   2.620   3.220  0.0652 -1.4641 -0.0655
18875TIP3    H278117   5.970   2.639   3.364 -0.9839  0.8060 -0.0172
18876TIP3   OH278118   3.249   0.875   1.823  0.5265 -0.0587 -0.1386
18876TIP3    H178119   3.164   0.896   1.861  0.3828 -0.6463 -0.1259
18876TIP3    H278120   3.290   0.960   1.807 -0.4920  0.2550 -1.1312
18877TIP3   OH278121   2.270   6.174   3.041  0.4000 -0.2120  0.2551
18877TIP3    H178122   2.225   6.243   2.992  1.3341  0.9091  0.8959
18877TIP3    H278123   2.269   6.098   2.983  1.9336  1.1919 -1.7783
18878TIP3   OH278124   6.596   5.316  11.524 -0.2082 -0.6420 -0.2907
18878TIP3    H178125   6.656   5.311  11.450 -0.6272  0.5237 -0.7270
18878TIP3    H278126   6.521   5.365  11.492  0.2526  1.2323  1.3006
18879TIP3   OH278127   6.575   2.139   3.046  0.2471 -0.5074  0.3057
18879TIP3    H178128   6.598   2.117   3.136 -1.7116 -0.2130  0.9178
18879TIP3    H278129   6.560   2.234   3.048 -1.0388 -0.6920 -0.0288
18880TIP3   OH278130   0.184   2.307  16.317  0.0494  0.4161 -0.1085
18880TIP3    H178131   0.173   2.219  16.284 -1.0160  0.8247 -0.8710
18880TIP3    H278132   0.140   2.307  16.402 -0.8219  0.4795 -0.5577
18881TIP3   OH278133   4.636   2.729  15.781  0.1843 -0.1766 -0.7486
18881TIP3    H178134   4.678   2.656  15.734 -0.6740 -1.1757 -0.0117
18881TIP3    H278135   4.562   2.689  15.826 -0.8068  1.3169 -0.9715
18882TIP3   OH278136   2.128   0.245   1.417 -0.4722 -0.4929  0.2087
18882TIP3    H178137   2.068   0.211   1.350 -0.7170 -1.8132  1.0767
18882TIP3    H278138   2.215   0.231   1.380 -0.6378  0.0863 -0.4254
18883TIP3   OH278139   6.019   0.461   5.976 -0.2826  0.2378  0.1214
18883TIP3    H178140   5.936   0.416   5.959 -0.1102 -0.3956  0.8900
18883TIP3    H278141   6.022   0.469   6.072  1.3059 -1.2675  0.2517
18884TIP3   OH278142   5.095   2.599  11.960  0.3355 -0.1625  0.5938
18884TIP3    H178143   5.148   2.572  11.885 -0.2956  2.3336 -0.8714
18884TIP3    H278144   5.155   2.646  12.017  0.4549 -0.5690  0.8065
18885TIP3   OH278145   5.507   2.103  17.145 -0.0885  0.2547 -0.1657
18885TIP3    H178146   5.467   2.047  17.079  0.2466 -0.5093  0.2622
18885TIP3    H278147   5.548   2.174  17.096 -1.1492  0.5361 -0.6660
18886TIP3   OH278148   3.713   6.562   4.134  0.6530 -0.3072 -0.3137
18886TIP3    H178149   3.737   6.481   4.089  0.1801 -0.0041 -1.1417
18886TIP3    H278150   3.792   6.615   4.132  0.2255  0.3447 -2.2617
18887TIP3   OH278151   0.455   4.881   4.580  0.1199 -0.7868  0.2918
18887TIP3    H178152   0.360   4.895   4.589  0.0511 -2.0082  1.9104
18887TIP3    H278153   0.462   4.813   4.513 -0.0688  0.1939 -0.7356
18888TIP3   OH278154   4.588   5.819   5.457 -0.6990 -0.1298  0.0362
18888TIP3    H178155   4.620   5.798   5.545 -1.9112 -1.4043  0.1984
18888TIP3    H278156   4.496   5.842   5.469 -0.8315 -0.1474 -0.8772
18889TIP3   OH278157   1.844   4.849  13.317 -0.0277 -0.1866  0.4047
18889TIP3    H178158   1.854   4.825  13.409 -1.4462  1.9151  1.1752
18889TIP3    H278159   1.903   4.923  13.305 -0.5381  0.1354 -0.1434
18890TIP3   OH278160   0.845   0.505  11.268  0.2685 -0.2802  0.5390
18890TIP3    H178161   0.835   0.430  11.327  0.0871 -1.4615 -0.9238
18890TIP3    H278162   0.758   0.544  11.265  0.1172 -0.6150  0.5343
18891TIP3   OH278163   6.793   0.915   0.988  0.4766 -0.1921 -0.2341
18891TIP3    H178164   6.759   0.995   1.028 -0.3082 -0.7187  0.1836
18891TIP3    H278165   6.751   0.911   0.903 -1.6572 -1.5391  0.8040
18892TIP3   OH278166   6.588   4.809  16.915  0.5636 -0.2405 -0.4311
18892TIP3    H178167   6.643   4.886  16.896 -0.7367  0.9390  0.3385
18892TIP3    H278168   6.550   4.785  16.831  1.1711 -0.2075 -0.7236
18893TIP3   OH278169   5.618   2.003  11.337 -0.4439 -0.4597 -0.0879
18893TIP3    H178170   5.655   2.037  11.256  1.3519 -2.0171  0.0171
18893TIP3    H278171   5.691   2.004  11.399 -0.4470 -3.5977  0.1426
18894TIP3   OH278172   1.461   4.231   0.687 -0.6320  0.0596  0.1917
18894TIP3    H178173   1.438   4.280   0.609 -1.2085  1.1865  1.0370
18894TIP3    H278174   1.395   4.257   0.752 -0.9955 -1.8704  0.6675
18895TIP3   OH278175   6.387   6.071   2.035  0.2268  0.1426 -0.0716
18895TIP3    H178176   6.450   6.115   2.092  0.7006 -0.4906 -0.0864
18895TIP3    H278177   6.435   6.058   1.953  0.3829 -1.0937  0.1926
18896TIP3   OH278178   1.996   4.683  15.068 -0.4022  0.4501  0.5574
18896TIP3    H178179   1.924   4.643  15.117  1.7274 -2.0203  1.8894
18896TIP3    H278180   2.030   4.613  15.013 -0.3447  2.1891 -1.7824
18897TIP3   OH278181   0.545   1.420  14.365 -0.5268  0.1343  0.1128
18897TIP3    H178182   0.572   1.502  14.324  0.7434 -0.5245 -0.4244
18897TIP3    H278183   0.614   1.402  14.429 -0.5846 -0.7027 -0.0489
18898TIP3   OH278184   5.840   0.294  13.251  0.0027  0.4277 -0.6935
18898TIP3    H178185   5.895   0.221  13.224 -0.4885 -0.2413  0.0553
18898TIP3    H278186   5.901   0.362  13.278  0.4685 -0.4835  0.6070
18899TIP3   OH278187   1.005   3.837  15.627  0.2790  0.3311 -0.0891
18899TIP3    H178188   1.089   3.815  15.586  0.1778  1.7086 -1.0929
18899TIP3    H278189   1.029   3.891  15.702  0.3265  0.1349  0.0371
18900TIP3   OH278190   5.643   5.871  13.693 -0.1538 -0.1058  0.0854
18900TIP3    H178191   5.624   5.813  13.619  0.8181 -0.7563  0.3326
18900TIP3    H278192   5.718   5.922  13.664 -1.3279  1.4512 -0.3408
18901TIP3   OH278193   1.538   4.572  15.307 -0.0265 -0.2965  0.1456
18901TIP3    H178194   1.509   4.639  15.368  0.2290 -0.8376  0.8825
18901TIP3    H278195   1.630   4.593  15.289  0.0034 -0.3492  0.2374
18902TIP3   OH278196   5.795   4.432   3.847  0.3543 -0.1723 -0.1603
18902TIP3    H178197   5.731   4.363   3.828 -0.4512  0.0767  1.4906
18902TIP3    H278198   5.835   4.405   3.929  1.6510  0.2230 -0.6338
18903TIP3   OH278199   6.713   5.133   0.290  0.5136 -0.2506 -0.0975
18903TIP3    H178200   6.773   5.147   0.363  0.2654 -1.0013  0.2656
18903TIP3    H278201   6.652   5.066   0.322  0.1662 -0.3059 -0.8560
18904TIP3   OH278202   0.626   4.362   1.094 -0.1482  0.2162 -0.0893
18904TIP3    H178203   0.656   4.310   1.169  0.4157 -1.2254 -1.2725
18904TIP3    H278204   0.701   4.417   1.071 -0.0224  0.0165 -0.1526
18905TIP3   OH278205   0.571   5.714   2.687 -0.4124  0.1796 -0.3866
18905TIP3    H178206   0.491   5.705   2.634 -1.8175 -1.7591  1.8400
18905TIP3    H278207   0.547   5.775   2.756 -0.7168 -1.8055  1.3762
18906TIP3   OH278208   1.526   2.118  16.615 -0.5087 -1.0096 -0.6356
18906TIP3    H178209   1.597   2.110  16.551  1.0631 -2.2034  1.1487
18906TIP3    H278210   1.546   2.198  16.662 -1.2359 -0.5416 -1.1024
18907TIP3   OH278211   3.468   5.660  11.337 -0.6394  0.7139 -0.5237
18907TIP3    H178212   3.481   5.594  11.269 -1.2307  0.5939 -0.5254
18907TIP3    H278213   3.460   5.743  11.289 -2.2737  0.4765 -0.7079
18908TIP3   OH278214   6.774   5.280  12.432 -0.0756 -0.3326  0.6209
18908TIP3    H178215   6.811   5.369  12.439 -1.3676  0.2788  0.0639
18908TIP3    H278216   6.752   5.271  12.339 -2.2094 -0.2749  1.0800
18909TIP3   OH278217   3.249   4.517  14.318 -0.4654  0.5038 -0.2178
18909TIP3    H178218   3.182   4.465  14.276 -0.2113 -1.0924  1.2607
18909TIP3    H278219   3.311   4.537  14.248 -1.4327  0.2888 -1.1638
18910TIP3   OH278220   6.165   1.237  13.089 -0.1367 -0.1492  0.1350
18910TIP3    H178221   6.174   1.206  13.179 -3.1740  0.2381  0.6593
18910TIP3    H278222   6.168   1.332  13.096 -1.2901 -0.0912 -0.0234
18911TIP3   OH278223   4.479   5.023   0.908  0.4566 -0.0314  0.1584
18911TIP3    H178224   4.407   5.040   0.968 -0.6490  1.2135 -1.4346
18911TIP3    H278225   4.488   4.928   0.908 -2.4357 -0.4066 -0.9315
18912TIP3   OH278226   4.375   3.979   3.701 -0.3829  0.5074  0.4657
18912TIP3    H178227   4.350   3.929   3.623 -1.4545  0.6191  0.7237
18912TIP3    H278228   4.369   4.070   3.675 -0.7840  0.5468  0.6771
18913TIP3   OH278229   2.435   4.166  11.639 -0.0042 -0.6672  0.0410
18913TIP3    H178230   2.352   4.195  11.602  0.2705 -0.2419 -0.2538
18913TIP3    H278231   2.482   4.247  11.660  0.0726 -0.8993  0.8179
18914TIP3   OH278232   3.768   0.486  13.066  0.4230 -0.4385 -0.4493
18914TIP3    H178233   3.703   0.539  13.113  1.0326  0.6274 -0.7726
18914TIP3    H278234   3.740   0.489  12.975  1.7328  1.3407 -0.8497
18915TIP3   OH278235   0.945   4.465  12.870  0.3225 -0.1925 -0.3463
18915TIP3    H178236   0.961   4.556  12.847 -1.6622 -0.0778 -1.5025
18915TIP3    H278237   0.896   4.469  12.952 -0.8393 -0.1089 -1.0145
18916TIP3   OH278238   6.533   4.373   5.523  0.7378  0.7237 -0.4329
18916TIP3    H178239   6.603   4.308   5.524  0.4216  0.3810 -0.1418
18916TIP3    H278240   6.549   4.428   5.599  0.1823  0.0901  0.1505
18917TIP3   OH278241   3.977   2.274   5.251  0.5623 -0.4681 -0.3522
18917TIP3    H178242   3.974   2.264   5.347 -0.1047 -0.4901 -0.3739
18917TIP3    H278243   4.029   2.354   5.238  1.2951 -0.8736 -0.0027
18918TIP3   OH278244   1.375   4.512   4.801  0.3761  0.3528 -0.5442
18918TIP3    H178245   1.309   4.462   4.849  0.4966  0.7139  0.0068
18918TIP3    H278246   1.419   4.447   4.747 -0.2027  0.0520 -0.6577
18919TIP3   OH278247   2.178   4.540   4.313  0.2300  0.2402  0.1381
18919TIP3    H178248   2.204   4.471   4.252  1.4302 -0.6060  1.5373
18919TIP3    H278249   2.191   4.502   4.400 -1.1040  1.5154  0.9608
18920TIP3   OH278250   3.869   2.906   4.006  0.2745  0.3108 -0.0171
18920TIP3    H178251   3.798   2.843   3.996  0.9735 -0.3130 -1.3995
18920TIP3    H278252   3.903   2.891   4.094  0.2333 -1.0530 -0.2188
18921TIP3   OH278253   3.552   5.898  17.141  0.1569 -0.2425 -0.0184
18921TIP3    H178254   3.466   5.926  17.171  1.2265  0.4291  2.7065
18921TIP3    H278255   3.542   5.804  17.122 -0.9772 -0.3540  1.0626
18922TIP3   OH278256   1.569   4.599  12.038  0.2407 -0.6095 -0.2278
18922TIP3    H178257   1.521   4.624  11.960  0.7539  2.1240  0.2109
18922TIP3    H278258   1.651   4.561  12.005  0.7531  1.1256 -1.0968
18923TIP3   OH278259   2.553   6.787   0.550 -0.3718  0.2241 -0.0164
18923TIP3    H178260   2.583   6.732   0.622 -0.7285 -0.0167 -0.0461
18923TIP3    H278261   2.469   6.823   0.580 -0.3154  0.4603 -0.1399
18924TIP3   OH278262   0.159   4.907  11.923  0.0374  0.8144 -0.2717
18924TIP3    H178263   0.114   4.868  11.849 -0.7374 -1.3063  1.2213
18924TIP3    H278264   0.250   4.879  11.913  0.3724  2.2250 -1.4496
18925TIP3   OH278265   4.601   0.646   5.888  0.1475  0.1763  1.0483
18925TIP3    H178266   4.572   0.735   5.867  1.5773  0.6904  1.1498
18925TIP3    H278267   4.520   0.599   5.909 -0.5677  1.6637  1.7993
18926TIP3   OH278268   4.879   5.471   3.522  0.1083 -0.1232  0.1914
18926TIP3    H178269   4.966   5.463   3.563 -0.2597  0.2053  1.0617
18926TIP3    H278270   4.821   5.496   3.594 -0.5327  0.6439 -0.5738
18927TIP3   OH278271   1.364   2.921   1.699  0.1253 -0.7345  0.1758
18927TIP3    H178272   1.277   2.929   1.738 -0.4413  0.3795 -1.2369
18927TIP3    H278273   1.354   2.853   1.632  0.7060 -1.5721  0.9220
18928TIP3   OH278274   3.579   2.487  11.297 -0.7683 -0.1733  0.1487
18928TIP3    H178275   3.568   2.580  11.316 -0.4279 -0.0061 -0.4383
18928TIP3    H278276   3.672   2.470  11.314 -1.0152 -0.6096  1.0944
18929TIP3   OH278277   3.415   0.502  12.387  0.2721 -0.3334 -0.1770
18929TIP3    H178278   3.436   0.539  12.473 -0.4613 -1.0002  0.3094
18929TIP3    H278279   3.497   0.504  12.339  0.2095  2.1352 -0.2745
18930TIP3   OH278280   6.075   1.988   3.166 -0.4843  0.3023  0.0071
18930TIP3    H178281   6.021   1.964   3.242 -0.4139  0.2826  0.0512
18930TIP3    H278282   6.120   2.068   3.192  0.8758 -0.6187  0.6609
18931TIP3   OH278283   3.123   2.944   3.296 -0.1632  0.1677  0.1722
18931TIP3    H178284   3.038   2.918   3.263 -0.2916 -1.2157  1.4597
18931TIP3    H278285   3.186   2.894   3.243 -0.1299  1.0562 -0.6596
18932TIP3   OH278286   6.403   6.165  14.725  0.0965  0.0762  0.2523
18932TIP3    H178287   6.492   6.201  14.720 -0.6916  2.3854  1.4156
18932TIP3    H278288   6.413   6.081  14.768  1.8540 -0.3821 -0.9422
18933TIP3   OH278289   3.838   4.268  14.547  0.0574  0.1841  0.2118
18933TIP3    H178290   3.838   4.251  14.452 -3.1095  2.3839 -0.3391
18933TIP3    H278291   3.921   4.313  14.562  0.5778 -0.0824 -1.5235
18934TIP3   OH278292   2.675   4.125  16.440 -0.3111 -0.0863  0.6134
18934TIP3    H178293   2.698   4.218  16.436 -0.7222 -0.0221 -0.6832
18934TIP3    H278294   2.587   4.121  16.402 -0.2350 -1.0205  0.5242
18935TIP3   OH278295   1.149   0.622  12.459 -0.4269 -0.2334 -0.2230
18935TIP3    H178296   1.072   0.678  12.450 -2.0013 -1.9490  1.5532
18935TIP3    H278297   1.213   0.676  12.506 -1.7861  0.2192  1.2026
18936TIP3   OH278298   0.315   3.517  14.375 -0.0508 -0.0278  0.6020
18936TIP3    H178299   0.314   3.504  14.470  1.5324 -0.9264  0.5222
18936TIP3    H278300   0.300   3.610  14.363 -0.9848 -0.0190  1.6952
18937TIP3   OH278301   5.098   3.433   0.044  0.7705 -0.3098  0.4043
18937TIP3    H178302   5.050   3.451  -0.037 -0.9336 -0.1352  1.4048
18937TIP3    H278303   5.188   3.420   0.016  0.3786  0.5952 -1.4220
18938TIP3   OH278304   6.231   1.488   6.051  0.2278 -0.1968  0.3852
18938TIP3    H178305   6.246   1.531   6.136 -0.7212  0.4432  0.2437
18938TIP3    H278306   6.178   1.551   6.002  0.4972 -0.7071 -0.5663
18939TIP3   OH278307   2.334   5.250  17.052  0.6001  0.4299  0.3486
18939TIP3    H178308   2.321   5.258  17.147  0.1117  4.4558  0.1357
18939TIP3    H278309   2.428   5.266  17.040  0.6258  0.1169  0.1263
18940TIP3   OH278310   2.611   2.986  12.071  0.0391  0.2526 -0.3787
18940TIP3    H178311   2.532   2.941  12.041  0.1938  0.5437 -1.2534
18940TIP3    H278312   2.579   3.059  12.123 -0.2330 -0.3328  0.2879
18941TIP3   OH278313   2.633   6.556   0.417 -0.0689 -0.1641 -0.6867
18941TIP3    H178314   2.611   6.649   0.425 -2.7902 -0.7191 -0.8003
18941TIP3    H278315   2.686   6.537   0.495 -0.2539  1.2794 -0.1852
18942TIP3   OH278316   0.859   5.039  13.286  0.7735  0.1571 -0.5219
18942TIP3    H178317   0.787   5.065  13.344  0.9394  1.6148 -0.9321
18942TIP3    H278318   0.929   5.013  13.345  1.0332  1.8796 -0.0172
18943TIP3   OH278319   0.216   2.708  15.191 -0.0555 -0.3150  0.0522
18943TIP3    H178320   0.173   2.788  15.160  1.2702  0.6005  0.4979
18943TIP3    H278321   0.146   2.656  15.229 -1.0822  0.2507 -1.0042
18944TIP3   OH278322   1.577   1.286   5.480  0.5248 -0.4600 -0.3094
18944TIP3    H178323   1.569   1.322   5.568  0.6249  1.0136 -0.8699
18944TIP3    H278324   1.637   1.211   5.489  1.3940  0.3395  0.6981
18945TIP3   OH278325   0.335   0.355   3.914 -0.1261 -0.2879 -0.7214
18945TIP3    H178326   0.402   0.287   3.917 -0.4175 -0.5518  0.1740
18945TIP3    H278327   0.328   0.377   3.822  2.5296  1.0810 -0.7103
18946TIP3   OH278328   4.982   1.128   1.268 -0.6503  0.3359 -0.0329
18946TIP3    H178329   5.069   1.156   1.239  0.2086 -2.0907  0.0442
18946TIP3    H278330   4.943   1.208   1.304  0.7336  1.9533 -1.8979
18947TIP3   OH278331   5.156   3.133  16.411 -0.7658  0.0982 -0.2737
18947TIP3    H178332   5.089   3.199  16.427  0.4524  1.4342 -0.4878
18947TIP3    H278333   5.195   3.158  16.328 -0.2474 -0.8842 -0.3452
18948TIP3   OH278334   5.347   6.208   1.875  0.2008  0.3805  0.4881
18948TIP3    H178335   5.360   6.303   1.879 -0.8377  0.5162  0.7509
18948TIP3    H278336   5.276   6.191   1.937  0.3829 -0.5753  0.4430
18949TIP3   OH278337   1.176   0.091   4.629  0.2337  0.1140 -0.6350
18949TIP3    H178338   1.120   0.057   4.559  0.3887  0.1782 -0.7905
18949TIP3    H278339   1.132   0.063   4.709  0.9397 -1.4233 -0.7524
18950TIP3   OH278340   0.928   3.217  13.312  0.5881  0.1705  0.3433
18950TIP3    H178341   0.877   3.266  13.376  0.9310 -0.3783  1.0578
18950TIP3    H278342   1.018   3.247  13.326  0.6160  0.2974 -0.1140
18951TIP3   OH278343   4.978   3.991   3.298 -0.4845 -0.7827 -0.0170
18951TIP3    H178344   5.007   3.957   3.213 -0.2679 -2.5379  0.7043
18951TIP3    H278345   4.912   4.057   3.277  1.8412  1.2076 -1.6298
18952TIP3   OH278346   6.609   1.403  12.079  0.7766 -0.0132  0.3264
18952TIP3    H178347   6.628   1.457  12.156 -1.0331  1.1060  0.0272
18952TIP3    H278348   6.553   1.457  12.024 -0.6437 -1.9785 -0.2737
18953TIP3   OH278349   0.361   3.890  12.163 -0.6084 -0.2764 -0.3868
18953TIP3    H178350   0.419   3.842  12.221 -2.5565 -3.3968 -0.8092
18953TIP3    H278351   0.411   3.901  12.082 -0.3900 -2.5585 -0.6083
18954TIP3   OH278352   6.690   5.989  11.389 -0.5325 -0.1646  0.0229
18954TIP3    H178353   6.667   6.028  11.305  0.7706 -2.1158 -1.3172
18954TIP3    H278354   6.757   6.047  11.425 -0.8778  0.5129 -0.4039
18955TIP3   OH278355   5.471   3.660  13.034  0.0330 -0.0131  0.0771
18955TIP3    H178356   5.551   3.609  13.022 -0.1433  0.0537 -1.8421
18955TIP3    H278357   5.435   3.669  12.945 -0.8862  1.9205  0.5782
18956TIP3   OH278358   1.225   2.008  14.652 -0.5249  0.4023 -0.1266
18956TIP3    H178359   1.153   1.981  14.710 -0.0574 -1.1371 -0.2235
18956TIP3    H278360   1.191   1.994  14.564 -0.4820  0.7393 -0.1995
18957TIP3   OH278361   1.973   0.696  14.919  0.4468 -0.2071 -0.2144
18957TIP3    H178362   1.907   0.645  14.965 -0.0820 -0.5373 -1.3053
18957TIP3    H278363   1.953   0.684  14.826  2.0170 -0.2778 -0.5716
18958TIP3   OH278364   5.309   6.225   1.586  0.0747 -0.2446 -0.1965
18958TIP3    H178365   5.325   6.162   1.656  0.4394  1.0581  0.9456
18958TIP3    H278366   5.255   6.293   1.627  3.4571  2.5705  0.0415
18959TIP3   OH278367   4.068   1.131  15.658 -0.7129 -0.5924  0.0223
18959TIP3    H178368   4.060   1.121  15.563  0.0562  2.5518 -0.4808
18959TIP3    H278369   3.980   1.158  15.686 -0.4329  0.5490 -0.1592
18960TIP3   OH278370   6.732   0.337  15.594 -0.8228 -0.2439  0.9796
18960TIP3    H178371   6.672   0.404  15.627  0.3984  0.6795  1.4158
18960TIP3    H278372   6.819   0.370  15.616 -0.0599 -0.8204 -0.9816
18961TIP3   OH278373   6.434   5.208   2.248 -0.6130  0.3457  0.1259
18961TIP3    H178374   6.453   5.242   2.160  0.3501 -0.8096 -0.1331
18961TIP3    H278375   6.476   5.270   2.307  1.4064 -0.4713 -0.3518
18962TIP3   OH278376   1.550   5.511  16.709  1.0548  0.2246  0.3076
18962TIP3    H178377   1.534   5.605  16.715 -1.4281  0.0450 -1.9209
18962TIP3    H278378   1.534   5.478  16.797 -0.0564  1.6417  0.6600
18963TIP3   OH278379   6.006   0.187  14.615 -0.1553 -0.0193 -0.1581
18963TIP3    H178380   6.004   0.195  14.711  4.0203  1.2683  0.0403
18963TIP3    H278381   5.957   0.263  14.584  0.7977  1.1531  1.0841
18964TIP3   OH278382   2.186   3.223   5.120  0.0416  0.2116 -0.5022
18964TIP3    H178383   2.090   3.221   5.124 -0.1314  0.8106 -2.7943
18964TIP3    H278384   2.213   3.141   5.162 -1.6719 -1.5605 -2.5942
18965TIP3   OH278385   1.342   1.796   0.953  0.0888 -0.0372 -0.0977
18965TIP3    H178386   1.360   1.736   1.025 -1.4943  0.3979  0.6862
18965TIP3    H278387   1.423   1.846   0.944  0.1897  0.1794  1.6524
18966TIP3   OH278388   4.102   5.311   2.033 -0.6222 -0.5833 -0.1029
18966TIP3    H178389   4.130   5.396   2.000 -0.4411 -0.2112  1.0008
18966TIP3    H278390   4.011   5.302   2.002 -0.6424  0.0051 -0.2117
18967TIP3   OH278391   2.279   0.195   2.551 -0.3159 -0.6295  0.1456
18967TIP3    H178392   2.199   0.165   2.594 -0.3743  2.0217  2.1573
18967TIP3    H278393   2.274   0.291   2.556  2.6678 -0.3706 -0.2755
18968TIP3   OH278394   0.635   2.246  15.292  0.2143  0.6948  0.2371
18968TIP3    H178395   0.661   2.214  15.206  2.2402  0.9280  0.7039
18968TIP3    H278396   0.710   2.296  15.323  0.2539 -0.7588  2.8357
18969TIP3   OH278397   0.534   6.407   0.745 -0.1643 -0.0060 -0.0943
18969TIP3    H178398   0.612   6.363   0.779 -1.0884 -1.5539  0.1164
18969TIP3    H278399   0.472   6.406   0.818 -0.2131  1.7347 -0.0706
18970TIP3   OH278400   5.284   2.482  16.427 -0.5159  0.1823 -0.1148
18970TIP3    H178401   5.263   2.540  16.500  0.0444  0.4201 -0.1341
18970TIP3    H278402   5.203   2.478  16.376 -0.2844  1.8217 -0.6914
18971TIP3   OH278403   2.678   2.326  13.806  0.0282 -0.1385 -0.2270
18971TIP3    H178404   2.604   2.271  13.832  0.2585 -0.2164  0.2666
18971TIP3    H278405   2.639   2.393  13.751 -0.6145  0.5815  1.0674
18972TIP3   OH278406   1.816   1.397  13.849  0.4044  0.1025 -0.3526
18972TIP3    H178407   1.767   1.459  13.903  2.3770  1.3274  0.1191
18972TIP3    H278408   1.785   1.414  13.760  0.7799  1.6762 -0.2141
18973TIP3   OH278409   0.376   6.305   5.023 -0.3109 -0.3366 -0.7541
18973TIP3    H178410   0.407   6.357   4.948  1.9526 -1.9588 -1.0320
18973TIP3    H278411   0.426   6.339   5.098  0.0130 -1.0234 -0.6509
18974TIP3   OH278412   2.632   1.693   5.626  0.3757 -0.3239  0.0372
18974TIP3    H178413   2.716   1.691   5.672  0.6439  0.5021 -0.3842
18974TIP3    H278414   2.566   1.695   5.696  0.7821  1.2799  0.4254
18975TIP3   OH278415   2.375   3.423  12.923  0.3469  0.1407 -0.1191
18975TIP3    H178416   2.403   3.512  12.904 -0.2787  0.6073  1.0516
18975TIP3    H278417   2.282   3.430  12.942  0.3091 -0.7475  0.0797
18976TIP3   OH278418   5.233   2.704   4.845 -0.5958  0.3490  0.0306
18976TIP3    H178419   5.214   2.619   4.884 -0.5535  1.3477  2.3482
18976TIP3    H278420   5.149   2.750   4.843 -0.1286  1.3419  1.6370
18977TIP3   OH278421   1.194   5.638   2.381  1.0038 -0.1346 -0.0941
18977TIP3    H178422   1.229   5.697   2.447  1.4431  1.3991 -1.6044
18977TIP3    H278423   1.182   5.694   2.304 -0.0119 -1.7179 -1.1354
18978TIP3   OH278424   6.335   6.399  13.066  0.0927  0.3259 -0.4115
18978TIP3    H178425   6.419   6.438  13.089  0.0120  0.5529 -0.5006
18978TIP3    H278426   6.328   6.321  13.122  0.8117 -0.2548 -1.1156
18979TIP3   OH278427   2.411   4.860  14.250  0.4227  0.1162  0.1226
18979TIP3    H178428   2.336   4.918  14.250  0.1808 -0.1862  0.6472
18979TIP3    H278429   2.459   4.882  14.170 -0.6873 -0.2948 -0.6887
18980TIP3   OH278430   2.839   4.138   2.812 -0.3816  0.6749  0.0552
18980TIP3    H178431   2.792   4.180   2.884  0.3242 -0.7209  1.3767
18980TIP3    H278432   2.790   4.058   2.794 -1.7734  1.9661 -2.5182
18981TIP3   OH278433   1.808   3.664   5.267 -0.0956 -0.0891 -0.3838
18981TIP3    H178434   1.856   3.693   5.189 -0.8714 -1.0694 -1.2584
18981TIP3    H278435   1.716   3.685   5.248 -0.1925  0.5290  0.6876
18982TIP3   OH278436   6.299   6.748   3.539 -0.0585  0.4321  0.3115
18982TIP3    H178437   6.266   6.773   3.452  0.5484  1.2283  0.2992
18982TIP3    H278438   6.373   6.807   3.554 -0.3319  0.4865  1.4944
18983TIP3   OH278439   3.971   3.660  15.849 -0.1830  0.0961  0.3866
18983TIP3    H178440   3.927   3.587  15.892  0.0675 -1.3023 -1.5994
18983TIP3    H278441   3.954   3.647  15.756  1.2134  1.6905 -0.1431
18984TIP3   OH278442   0.038   3.944   3.784 -0.4682 -0.9933 -0.1045
18984TIP3    H178443  -0.006   3.961   3.700  1.1901 -0.4055 -0.8917
18984TIP3    H278444   0.076   4.028   3.808  0.2699 -1.4931  0.5111
18985TIP3   OH278445   3.324   5.232   2.549  0.2978 -0.1832 -0.9602
18985TIP3    H178446   3.395   5.199   2.603  0.1605  2.0422  0.7127
18985TIP3    H278447   3.299   5.315   2.589 -2.9883 -0.6589 -1.7044
18986TIP3   OH278448   4.060   3.793  16.217 -0.1052  0.1492  0.1003
18986TIP3    H178449   4.146   3.818  16.250 -0.5233  1.5993  0.1726
18986TIP3    H278450   4.046   3.704  16.250 -0.0928  1.1458  3.1249
18987TIP3   OH278451   6.365   1.033   2.404 -0.1395 -0.4378 -0.0173
18987TIP3    H178452   6.286   1.081   2.428  0.4329  0.8654 -0.6079
18987TIP3    H278453   6.433   1.101   2.396  1.4909 -1.6933  2.1756
18988TIP3   OH278454   4.923   6.401  16.898 -0.3487 -0.5465 -0.0626
18988TIP3    H178455   4.903   6.416  16.806 -1.5759  0.0330  0.2759
18988TIP3    H278456   5.013   6.434  16.908  0.3325 -1.8860 -1.3186
18989TIP3   OH278457   5.434   5.554  13.821 -0.3514  0.3114 -0.2167
18989TIP3    H178458   5.359   5.515  13.865  0.0789 -0.5558 -0.2289
18989TIP3    H278459   5.510   5.518  13.868  0.0561  1.1833 -0.1933
18990TIP3   OH278460   6.695   2.385  15.124 -0.1978  0.0897 -0.0653
18990TIP3    H178461   6.632   2.341  15.181  0.7962  1.6112  2.3579
18990TIP3    H278462   6.658   2.375  15.036 -2.2113 -1.6948  0.8778
18991TIP3   OH278463   2.314   5.065   1.968  0.1012  0.3765  0.2742
18991TIP3    H178464   2.322   5.143   2.023  0.9295  0.4010  0.1351
18991TIP3    H278465   2.393   5.015   1.986  0.2715  0.2713 -0.7130
18992TIP3   OH278466   0.089   0.344   1.462 -0.7267  0.4408 -0.5263
18992TIP3    H178467   0.097   0.344   1.367  0.6387  1.2777 -0.4366
18992TIP3    H278468   0.056   0.432   1.483  2.0902  1.5061 -0.0738
18993TIP3   OH278469   4.441   3.914   6.539 -1.1134  0.2233  0.2954
18993TIP3    H178470   4.417   4.000   6.575 -1.2157  0.2057  0.2685
18993TIP3    H278471   4.498   3.935   6.465 -1.5968  0.2880 -0.0626
18994TIP3   OH278472   4.822   6.018  17.252 -0.1517  0.3134  0.5620
18994TIP3    H178473   4.773   5.936  17.238  0.2782  0.2667 -0.7817
18994TIP3    H278474   4.912   5.989  17.267  0.0334  0.5428 -0.0906
18995TIP3   OH278475   6.572   0.249   4.688 -0.4121 -0.9923 -0.3322
18995TIP3    H178476   6.595   0.177   4.746  0.8449  0.2857  0.8343
18995TIP3    H278477   6.655   0.291   4.667 -1.1051  0.1256 -0.9790
18996TIP3   OH278478   6.814   5.627   0.735 -0.4369  0.3696  0.7672
18996TIP3    H178479   6.771   5.656   0.655 -0.4550  0.3814  0.7812
18996TIP3    H278480   6.835   5.708   0.782  1.2591  0.4684 -0.0882
18997TIP3   OH278481   0.252   0.655  14.139 -0.6535  0.1195  0.4999
18997TIP3    H178482   0.197   0.726  14.104  1.3028  1.0941 -0.7552
18997TIP3    H278483   0.330   0.655  14.083  0.6313 -1.2214  2.1873
18998TIP3   OH278484   4.504   4.236  10.921  0.0458  0.5154 -0.6492
18998TIP3    H178485   4.525   4.239  11.014  1.1742  0.9925 -0.8993
18998TIP3    H278486   4.526   4.147  10.894  2.1640  1.0901 -0.9711
18999TIP3   OH278487   1.469   0.877  11.689  0.1536 -0.4662  0.3349
18999TIP3    H178488   1.462   0.963  11.730  1.2685  0.6333 -1.6132
18999TIP3    H278489   1.457   0.894  11.595 -3.0076 -2.9135  0.0940
19000TIP3   OH278490   2.683   6.190  16.668 -0.4551 -0.4716 -0.2577
19000TIP3    H178491   2.588   6.198  16.670 -0.3815  0.4661  0.7930
19000TIP3    H278492   2.714   6.264  16.721  0.8457 -0.9502 -0.3135
19001TIP3   OH278493   2.697   4.990   0.336 -0.0009 -0.0905  0.2432
19001TIP3    H178494   2.759   4.918   0.322 -0.4959 -0.3956 -0.4174
19001TIP3    H278495   2.725   5.030   0.419 -0.9283 -2.2672  1.6965
19002TIP3   OH278496   1.648   0.155  12.498  0.1894  0.1996 -0.2772
19002TIP3    H178497   1.553   0.147  12.486  0.0539 -1.7472  1.4175
19002TIP3    H278498   1.685   0.086  12.443  0.4754 -0.0659  0.2286
19003TIP3   OH278499   3.858   1.561  15.127 -0.2188 -0.1551  0.1334
19003TIP3    H178500   3.840   1.478  15.083  1.5139 -0.6432  0.2702
19003TIP3    H278501   3.896   1.617  15.059 -1.9979  0.8081 -0.1298
19004TIP3   OH278502   5.715   3.602  15.476 -0.3082  0.2800 -0.7258
19004TIP3    H178503   5.632   3.580  15.435 -1.8182  0.0987  2.1702
19004TIP3    H278504   5.740   3.523  15.525  0.9400  0.7397 -0.5793
19005TIP3   OH278505   5.934   4.980   0.414  0.4347  0.6929 -0.0608
19005TIP3    H178506   5.843   4.989   0.442  1.2269  2.3210  2.2990
19005TIP3    H278507   5.974   5.065   0.431  2.6590 -0.2840  0.0378
19006TIP3   OH278508   5.530   3.489   3.618 -0.1977  0.1414 -0.8308
19006TIP3    H178509   5.618   3.452   3.609 -0.0562 -0.0219  0.9450
19006TIP3    H278510   5.535   3.573   3.572  0.1456 -0.9164 -2.8649
19007TIP3   OH278511   3.335   4.708   5.921  0.5479  0.0058 -0.4107
19007TIP3    H178512   3.418   4.661   5.915 -0.6279 -2.1778 -0.5760
19007TIP3    H278513   3.322   4.723   6.014  0.1565 -1.5346 -0.2030
19008TIP3   OH278514   1.346   3.035  11.104 -0.0937  0.2833  0.2027
19008TIP3    H178515   1.283   2.963  11.105 -0.8637  0.9099 -0.9361
19008TIP3    H278516   1.425   2.999  11.146 -0.2352 -1.4258 -0.9108
19009TIP3   OH278517   0.623   5.962  13.379  0.7237  0.0166 -0.4941
19009TIP3    H178518   0.662   5.876  13.395  1.2286  0.1614 -0.9096
19009TIP3    H278519   0.643   5.981  13.288 -2.0967 -0.8057 -1.3961
19010TIP3   OH278520   3.275   1.635  11.678  0.3936 -0.1194 -0.4473
19010TIP3    H178521   3.304   1.726  11.668  1.0971 -0.2669  0.1412
19010TIP3    H278522   3.196   1.629  11.625 -0.9968  1.4688  1.3190
19011TIP3   OH278523   5.845   3.655   4.270  0.1395 -0.1340 -0.6100
19011TIP3    H178524   5.755   3.627   4.251  0.1059 -0.3756 -0.1123
19011TIP3    H278525   5.885   3.580   4.314 -0.1377  0.7947  1.3102
19012TIP3   OH278526   5.418   5.726  15.718 -0.0325 -0.1393 -0.0476
19012TIP3    H178527   5.495   5.671  15.736 -1.4617 -1.3203  3.4240
19012TIP3    H278528   5.450   5.816  15.725  1.2316 -0.5979  0.3135
19013TIP3   OH278529   3.706   3.508  12.502  0.1347 -0.5699 -0.0320
19013TIP3    H178530   3.761   3.439  12.464 -1.9271 -2.2581 -0.1279
19013TIP3    H278531   3.671   3.554  12.426  1.2834  0.4627  0.0293
19014TIP3   OH278532   6.606   4.476   0.570  0.6230  0.4598  0.2130
19014TIP3    H178533   6.641   4.462   0.482 -0.3618  1.0679 -0.2936
19014TIP3    H278534   6.569   4.392   0.595 -0.6715  0.7118 -0.7057
19015TIP3   OH278535   6.417   2.001  16.745 -0.5755  0.4114  0.1861
19015TIP3    H178536   6.477   2.017  16.818 -1.0094  1.1240  0.3993
19015TIP3    H278537   6.363   1.928  16.773  0.2240 -0.2840 -0.0324
19016TIP3   OH278538   0.141   3.529  13.755  0.6123  0.2914 -0.2507
19016TIP3    H178539   0.191   3.571  13.685  1.0293 -2.4114 -1.7354
19016TIP3    H278540   0.166   3.436  13.750 -2.0699 -0.6240  1.1323
19017TIP3   OH278541   5.643   2.381  17.090 -0.1492  0.3867 -0.0036
19017TIP3    H178542   5.683   2.468  17.091  0.7133  0.0340 -1.3566
19017TIP3    H278543   5.565   2.392  17.036  0.0956  0.2713 -0.3829
19018TIP3   OH278544   1.949   1.540   0.571  0.2141 -0.0917 -0.6461
19018TIP3    H178545   1.971   1.597   0.644 -0.9342  0.7248 -0.9076
19018TIP3    H278546   1.958   1.451   0.606 -1.4284  0.2742  0.8818
19019TIP3   OH278547   2.941   0.152  11.711  0.3870 -0.1652 -0.0983
19019TIP3    H178548   2.911   0.229  11.662  2.2329  1.1835  0.7667
19019TIP3    H278549   2.889   0.154  11.791 -0.3937 -0.5154 -0.5891
19020TIP3   OH278550   4.980   2.944   3.753  0.2821 -0.4034  0.7075
19020TIP3    H178551   5.010   2.980   3.836 -0.6261  1.8733  0.1178
19020TIP3    H278552   4.909   2.884   3.777  0.6846 -0.5266  1.6253
19021TIP3   OH278553   1.764   4.442   5.610 -0.5159 -0.0577 -0.0094
19021TIP3    H178554   1.680   4.419   5.572 -0.8525 -0.2909  0.8467
19021TIP3    H278555   1.828   4.389   5.562 -0.8417  0.1626 -0.6984
19022TIP3   OH278556   4.450   2.393   1.267  0.4732 -0.4559  0.6267
19022TIP3    H178557   4.532   2.375   1.220 -0.6716  0.0839 -1.7259
19022TIP3    H278558   4.429   2.310   1.310  2.5082 -0.4468  1.8030
19023TIP3   OH278559   2.599   2.999   3.024 -0.7589  0.1419  0.2782
19023TIP3    H178560   2.659   3.006   2.951 -2.5049 -0.3269 -1.2755
19023TIP3    H278561   2.551   3.082   3.025 -0.2806  0.4211  1.3408
19024TIP3   OH278562   0.660   0.843   1.335  0.7205 -0.2233  0.2688
19024TIP3    H178563   0.707   0.760   1.331  0.1028 -0.5265 -1.1893
19024TIP3    H278564   0.580   0.828   1.284 -0.3589  0.6679  1.6260
19025TIP3   OH278565   5.466   4.579   2.183  0.0488  0.4702 -0.5337
19025TIP3    H178566   5.468   4.662   2.230 -1.8360  0.2930 -0.0561
19025TIP3    H278567   5.376   4.570   2.153  0.0701 -1.6139 -0.1577
19026TIP3   OH278568   0.483   0.356   2.532 -0.5750  0.1371 -0.1918
19026TIP3    H178569   0.467   0.450   2.532  1.0497  0.4445 -0.9252
19026TIP3    H278570   0.514   0.337   2.621  0.5737  0.6050 -0.4687
19027TIP3   OH278571   0.469   3.277  11.451 -0.1268  0.1038 -0.5301
19027TIP3    H178572   0.440   3.362  11.416  0.2811 -0.0859 -1.3544
19027TIP3    H278573   0.392   3.243  11.497 -0.1585  1.1184  0.2005
19028TIP3   OH278574   1.883   1.179  13.380  0.5329 -0.3955 -0.3519
19028TIP3    H178575   1.909   1.092  13.407 -1.8211 -1.7785 -2.1413
19028TIP3    H278576   1.950   1.207  13.317  1.1601 -1.0049  0.0390
19029TIP3   OH278577   0.359   0.122  11.630 -0.9611 -0.0603  1.0221
19029TIP3    H178578   0.330   0.067  11.703 -0.3263 -0.6801  0.8185
19029TIP3    H278579   0.409   0.063  11.573  0.4594  0.8861  1.2203
19030TIP3   OH278580   1.019   5.094  12.660  0.1477  0.2595  0.3339
19030TIP3    H178581   1.047   5.085  12.751 -2.5427  1.5443  1.4081
19030TIP3    H278582   1.100   5.087  12.609  1.8406  0.2239  2.8437
19031TIP3   OH278583   4.826   4.890  14.662  0.2310 -0.0168  0.0616
19031TIP3    H178584   4.875   4.879  14.580  2.8229  2.2572  1.1753
19031TIP3    H278585   4.870   4.961  14.707 -2.5867  0.4004  2.4235
19032TIP3   OH278586   2.629   6.166   2.360  0.5563  0.5580  0.2037
19032TIP3    H178587   2.614   6.100   2.293 -1.4251  1.0327  0.0985
19032TIP3    H278588   2.636   6.249   2.312 -0.8825  0.9015  0.5426
19033TIP3   OH278589   2.434   1.475  16.831  0.2037  0.1894 -0.1105
19033TIP3    H178590   2.354   1.501  16.785  0.4312 -2.5561 -2.3784
19033TIP3    H278591   2.408   1.468  16.923 -1.6140  1.2896 -0.4933
19034TIP3   OH278592   0.082   5.830  15.309  0.0790 -0.3794 -0.6093
19034TIP3    H178593   0.151   5.851  15.245 -1.8100 -1.7252 -3.2607
19034TIP3    H278594   0.103   5.742  15.339  0.4374 -0.1093 -0.0344
19035TIP3   OH278595   5.724   2.228   4.988  0.1411 -0.0545  0.6851
19035TIP3    H178596   5.780   2.167   4.940  0.1244 -0.5528  1.2805
19035TIP3    H278597   5.703   2.182   5.070  0.1843  0.7787  1.1809
19036TIP3   OH278598   5.464   4.305   2.245  0.2819 -0.1584  0.7925
19036TIP3    H178599   5.475   4.393   2.210  1.2816 -0.9179 -0.9611
19036TIP3    H278600   5.398   4.314   2.314 -2.2165  1.4040 -1.6118
19037TIP3   OH278601   2.420   2.081   4.333 -0.2197  0.1881  0.5613
19037TIP3    H178602   2.387   2.001   4.292 -1.1126  1.2699 -0.9436
19037TIP3    H278603   2.366   2.093   4.411 -0.9233 -0.0107  0.1119
19038TIP3   OH278604   4.982   2.741   2.520  0.1794  0.2523 -0.1045
19038TIP3    H178605   5.058   2.794   2.542  0.2312  0.1679 -0.0813
19038TIP3    H278606   4.932   2.735   2.601 -0.4299  1.2495 -0.3850
19039TIP3   OH278607   4.973   6.187  13.775  0.4531 -0.1803 -0.3865
19039TIP3    H178608   5.016   6.203  13.691  1.7053  1.5989  0.5219
19039TIP3    H278609   4.988   6.267  13.825 -0.5042 -1.0854  1.4470
19040TIP3   OH278610   4.542   1.161   5.428 -0.2705 -0.3288 -0.2822
19040TIP3    H178611   4.630   1.189   5.403 -0.6467  0.0544 -1.2107
19040TIP3    H278612   4.492   1.164   5.347 -1.7713  1.7540  0.6330
19041TIP3   OH278613   2.680   6.658  15.881 -0.4936 -0.4195 -0.6540
19041TIP3    H178614   2.650   6.646  15.791 -0.4282 -0.5725 -0.6556
19041TIP3    H278615   2.725   6.576  15.902 -0.5641 -0.4083 -0.4621
19042TIP3   OH278616   3.083   2.586   6.644 -0.0847  0.3482 -0.1592
19042TIP3    H178617   3.086   2.653   6.575 -0.8033 -0.0972 -0.6307
19042TIP3    H278618   3.170   2.546   6.641  0.3845  1.3019  0.1841
19043TIP3   OH278619   1.584   3.392  15.552  0.2153  0.1872 -0.1986
19043TIP3    H178620   1.537   3.472  15.576  0.5758  0.2066  0.4656
19043TIP3    H278621   1.516   3.326  15.543  0.0412  0.2243  0.7229
19044TIP3   OH278622   3.772   2.031   5.897  0.5119  0.2511 -0.3714
19044TIP3    H178623   3.836   2.071   5.956  1.9167  1.2088 -2.4207
19044TIP3    H278624   3.790   1.937   5.904  0.3032  0.2987  1.0657
19045TIP3   OH278625   2.325   1.233   1.947 -0.5456  0.0170 -0.3936
19045TIP3    H178626   2.266   1.307   1.957 -0.1139  0.2555  0.5697
19045TIP3    H278627   2.381   1.237   2.025  0.0494 -0.8091 -0.7657
19046TIP3   OH278628   3.010   5.238   1.486 -0.2802  0.2521  0.1691
19046TIP3    H178629   3.059   5.187   1.422 -0.3800  0.1059  0.2078
19046TIP3    H278630   2.976   5.173   1.547 -0.3390  0.3737  0.2658
19047TIP3   OH278631   6.634   4.766   0.851 -0.2596 -0.5822 -0.8932
19047TIP3    H178632   6.566   4.785   0.786 -0.8402 -0.5509 -0.2861
19047TIP3    H278633   6.615   4.677   0.881  0.0600 -0.6314 -0.8325
19048TIP3   OH278634   2.361   1.741  14.473  0.4682 -0.2727  0.0957
19048TIP3    H178635   2.330   1.656  14.506  0.6413 -0.4053 -0.0800
19048TIP3    H278636   2.282   1.794  14.466  0.4890 -0.0695  1.2223
19049TIP3   OH278637   4.120   1.133   1.824  0.4472  0.0637  0.3423
19049TIP3    H178638   4.138   1.189   1.748 -1.6561 -0.3406 -0.5324
19049TIP3    H278639   4.025   1.126   1.826  0.5882 -3.0260  0.7548
19050TIP3   OH278640   2.676   5.595  13.238  0.6133 -0.5347 -0.1876
19050TIP3    H178641   2.753   5.648  13.219  0.0453  0.2882 -0.2772
19050TIP3    H278642   2.710   5.518  13.283  1.5349 -0.4439 -0.7091
19051TIP3   OH278643   2.381   6.432   3.155  0.2431 -0.2022 -0.1352
19051TIP3    H178644   2.403   6.356   3.101  0.6112 -1.1344  1.2605
19051TIP3    H278645   2.412   6.507   3.104  0.4850 -1.0226 -1.2489
19052TIP3   OH278646   0.961   0.412   2.107  0.0425 -0.0175 -0.4501
19052TIP3    H178647   1.011   0.489   2.078 -0.3010  0.0412 -0.8961
19052TIP3    H278648   1.020   0.338   2.091  0.3070  0.1289 -0.1848
19053TIP3   OH278649   5.062   4.440  12.274 -0.0190  0.5368 -0.0398
19053TIP3    H178650   5.031   4.416  12.361 -0.9834  1.3229 -0.1529
19053TIP3    H278651   4.984   4.437  12.219  0.6710 -0.4518 -0.9989
19054TIP3   OH278652   3.091   3.467   1.633 -0.4112  0.0281 -0.0730
19054TIP3    H178653   3.050   3.400   1.687  0.8174 -1.5765 -1.0337
19054TIP3    H278654   3.045   3.548   1.656 -3.4987 -1.4562 -0.4738
19055TIP3   OH278655   6.203   0.869  14.298  0.4553  0.3255 -0.2697
19055TIP3    H178656   6.233   0.805  14.234  0.6516  0.5800 -0.4371
19055TIP3    H278657   6.202   0.822  14.381  1.1368  0.2603 -0.2956
19056TIP3   OH278658   2.445   4.532  13.853 -0.4190  0.9693  0.4909
19056TIP3    H178659   2.509   4.475  13.811 -1.3807 -0.4972  0.9547
19056TIP3    H278660   2.470   4.533  13.946 -1.6547 -0.5190  0.8862
19057TIP3   OH278661   3.551   4.169  13.752 -0.4307  0.1019  0.0853
19057TIP3    H178662   3.490   4.219  13.806 -0.5517  0.2786 -0.2175
19057TIP3    H278663   3.497   4.123  13.689 -0.0946  2.7530 -2.2977
19058TIP3   OH278664   5.396   5.843   4.597  0.2757 -0.6035 -0.0888
19058TIP3    H178665   5.396   5.747   4.599  0.0847 -0.5920  0.6332
19058TIP3    H278666   5.484   5.867   4.625  0.6699 -0.5753 -1.2987
19059TIP3   OH278667   0.096   0.447  17.221  0.1982 -0.0477  0.3483
19059TIP3    H178668   0.133   0.471  17.136 -0.7589  0.3374  0.0187
19059TIP3    H278669   0.133   0.361  17.241  2.7421  1.0841  0.9490
19060TIP3   OH278670   0.377   2.042  10.697 -0.5745 -0.7749 -0.1105
19060TIP3    H178671   0.456   2.092  10.679 -0.1240 -1.0189  1.0464
19060TIP3    H278672   0.379   1.970  10.634  1.0591 -1.7634  0.9863
19061TIP3   OH278673   5.610   1.500   4.989 -0.3024  0.5097  0.8004
19061TIP3    H178674   5.629   1.435   4.922  0.3646 -1.6362  2.9089
19061TIP3    H278675   5.544   1.557   4.949  1.3597  0.5022 -2.2553
19062TIP3   OH278676   2.204   0.619  11.703  0.0842 -0.1648 -0.3314
19062TIP3    H178677   2.150   0.696  11.684  1.2424  0.3327 -1.8416
19062TIP3    H278678   2.227   0.584  11.617  0.5313 -1.5319  0.3167
19063TIP3   OH278679   3.935   3.067   6.400  0.0228  0.8746  0.9554
19063TIP3    H178680   3.882   3.092   6.476 -0.7842  1.9193  0.0738
19063TIP3    H278681   3.874   3.023   6.342  0.8763 -0.9514  1.3530
19064TIP3   OH278682   6.693   1.487  16.653  0.1321  0.3091  0.3057
19064TIP3    H178683   6.661   1.451  16.571  1.4948 -1.4639  0.5026
19064TIP3    H278684   6.653   1.574  16.657 -1.1561 -0.1269 -1.4830
19065TIP3   OH278685   1.540   5.002  12.454 -0.1083  0.0306  0.3405
19065TIP3    H178686   1.605   5.057  12.411 -0.7096 -0.7108 -1.6522
19065TIP3    H278687   1.585   4.966  12.530  1.8606 -0.5200 -1.0095
19066TIP3   OH278688   6.286   1.864  13.512  0.0213  0.4346 -0.1898
19066TIP3    H178689   6.335   1.857  13.594  0.0515 -0.6883 -0.2909
19066TIP3    H278690   6.301   1.954  13.483  1.1563  0.4369  0.3312
19067TIP3   OH278691   2.644   4.566  13.494 -0.0517 -0.9197  0.1601
19067TIP3    H178692   2.596   4.504  13.549  0.5827  1.5454  3.8323
19067TIP3    H278693   2.735   4.540  13.502  0.1392 -0.0375  1.1271
19068TIP3   OH278694   4.051   6.010  13.013 -0.0470 -0.0819 -0.1924
19068TIP3    H178695   4.135   5.965  13.017  0.1525  0.3574  1.5019
19068TIP3    H278696   4.061   6.075  12.944 -0.1204 -2.1184 -2.2375
19069TIP3   OH278697   5.212   2.994   1.411  0.1780 -0.0055 -0.3741
19069TIP3    H178698   5.186   2.922   1.468  0.1968  2.0643  2.4214
19069TIP3    H278699   5.308   2.994   1.415  0.2233  2.6887  3.3031
19070TIP3   OH278700   0.324   5.901   4.261 -0.1332 -0.5804 -0.2640
19070TIP3    H178701   0.387   5.831   4.243  0.7590  0.5928 -1.9780
19070TIP3    H278702   0.340   5.967   4.193 -2.6909  0.1405 -0.3084
19071TIP3   OH278703   2.854   0.723  15.413  0.5224 -0.0802 -0.5267
19071TIP3    H178704   2.913   0.716  15.489  1.1867  0.1248 -1.0134
19071TIP3    H278705   2.767   0.711  15.450  0.8386 -0.0298  0.2697
19072TIP3   OH278706   5.311   4.392  12.983 -0.2582 -0.2723  0.0466
19072TIP3    H178707   5.360   4.465  13.022  0.5921 -0.8826  0.1459
19072TIP3    H278708   5.257   4.359  13.054  1.6038 -1.6586  0.9033
19073TIP3   OH278709   2.462   3.097  13.830 -0.2519 -0.1505  0.3869
19073TIP3    H178710   2.372   3.082  13.800 -0.7169 -0.5580  1.8884
19073TIP3    H278711   2.511   3.022  13.795 -1.0209 -1.2454  1.5459
19074TIP3   OH278712   1.446   2.353  12.978 -0.4234  0.7923 -0.3806
19074TIP3    H178713   1.418   2.262  12.981 -1.3270  1.0866  0.3917
19074TIP3    H278714   1.521   2.353  12.918  0.2801 -0.6418  0.4493
19075TIP3   OH278715   0.422   5.763  11.920  0.5088 -0.2255  0.0393
19075TIP3    H178716   0.511   5.726  11.922 -0.2902 -2.4314 -1.3562
19075TIP3    H278717   0.411   5.794  11.830 -0.8392 -2.0299 -0.4755
19076TIP3   OH278718   5.335   1.019   0.977  0.8312 -0.8722 -0.1953
19076TIP3    H178719   5.259   1.060   0.936  0.2102 -1.0967  0.7023
19076TIP3    H278720   5.346   0.936   0.930 -0.6951 -1.7541  0.9218
19077TIP3   OH278721   6.458   2.324   4.139 -0.3792 -0.1523  0.4070
19077TIP3    H178722   6.525   2.293   4.200  0.0529  0.6849  0.3714
19077TIP3    H278723   6.502   2.392   4.088 -1.0775 -0.0365 -0.0534
19078TIP3   OH278724   4.414   4.010  12.365  0.4435 -0.7691 -0.3453
19078TIP3    H178725   4.369   3.972  12.290  2.1304 -1.0024 -1.3117
19078TIP3    H278726   4.463   3.938  12.403  0.8917 -0.3107 -0.0365
19079TIP3   OH278727   2.069   1.607  12.902 -0.3005  0.1332 -0.4501
19079TIP3    H178728   2.037   1.629  12.815 -0.7289  1.0900 -0.0625
19079TIP3    H278729   2.046   1.682  12.956 -0.3243 -0.5826  0.5688
19080TIP3   OH278730   4.623   6.199  17.229  0.4679  0.5256 -0.6112
19080TIP3    H178731   4.708   6.167  17.259  0.2040 -0.1684 -0.5944
19080TIP3    H278732   4.559   6.140  17.268 -0.1258  1.7943  0.4007
19081TIP3   OH278733   6.607   3.905  11.741 -0.4194  0.5767  0.1132
19081TIP3    H178734   6.678   3.925  11.802 -1.5154  2.3534  0.8941
19081TIP3    H278735   6.528   3.912  11.794 -1.2067 -1.7641 -0.6427
19082TIP3   OH278736   5.403   0.456   2.861 -0.1060 -0.4705 -0.1128
19082TIP3    H178737   5.402   0.414   2.947 -1.1927 -1.7533 -0.7127
19082TIP3    H278738   5.494   0.482   2.848  0.4641 -1.9561  0.6338
19083TIP3   OH278739   1.547   3.407  12.848 -0.1339  0.0499 -0.4387
19083TIP3    H178740   1.505   3.462  12.914 -0.7881 -0.3680 -0.5030
19083TIP3    H278741   1.624   3.371  12.892  0.8152  1.6907 -0.6511
19084TIP3   OH278742   2.327   0.887  12.955 -0.3035 -0.0442 -0.6223
19084TIP3    H178743   2.241   0.860  12.923 -0.4917  1.6182 -1.6080
19084TIP3    H278744   2.313   0.971  12.998  0.7652  0.0815 -0.4790
19085TIP3   OH278745   5.733   5.044   5.788 -0.3524  0.3120 -0.3881
19085TIP3    H178746   5.743   5.138   5.774  1.8925  0.0133 -1.1609
19085TIP3    H278747   5.638   5.030   5.790 -0.7464  2.6809  0.5634
19086TIP3   OH278748   6.494   3.403   3.055 -0.1049  0.0218 -0.4790
19086TIP3    H178749   6.498   3.376   3.147  0.0863  1.4030 -0.0445
19086TIP3    H278750   6.553   3.343   3.009  1.2312  0.4421  0.6146
19087TIP3   OH278751   4.586   2.688   1.681 -0.7582 -0.3938 -0.1828
19087TIP3    H178752   4.523   2.675   1.752 -0.9876  1.2587 -0.0241
19087TIP3    H278753   4.538   2.741   1.617 -0.0040 -0.4128 -0.7726
19088TIP3   OH278754   3.801   6.079  16.432  0.4230  0.6701  0.2164
19088TIP3    H178755   3.870   6.090  16.497 -1.0222  3.2240  1.4897
19088TIP3    H278756   3.720   6.100  16.479 -1.1206 -1.0026 -1.5218
19089TIP3   OH278757   0.948   0.070   1.254  0.0798  0.2565  0.4906
19089TIP3    H178758   0.892   0.085   1.178  0.5839 -1.6552 -0.3273
19089TIP3    H278759   0.894   0.096   1.329 -1.7340 -1.0000 -0.2977
19090TIP3   OH278760   2.184   6.457  13.804  0.0126 -0.2092  0.5723
19090TIP3    H178761   2.125   6.485  13.874 -1.2929  2.2799 -1.3766
19090TIP3    H278762   2.141   6.381  13.765 -0.6289  0.0325  0.7915
19091TIP3   OH278763   0.686   3.096  17.118 -0.3394  0.3505  0.0217
19091TIP3    H178764   0.757   3.100  17.053 -0.2143 -0.8872  0.0722
19091TIP3    H278765   0.606   3.103  17.066 -0.2046  1.0764 -0.0973
19092TIP3   OH278766   5.158   2.065  15.340 -0.3639  0.4079  0.3165
19092TIP3    H178767   5.164   2.094  15.431 -1.9975 -0.2569  0.6774
19092TIP3    H278768   5.173   1.970  15.343  0.8326  0.5445 -0.3081
19093TIP3   OH278769   1.577   2.170  13.534  0.2828  0.0242 -0.1038
19093TIP3    H178770   1.591   2.167  13.629 -0.8643 -0.0303  0.0750
19093TIP3    H278771   1.623   2.093  13.501  1.0521  0.2772  0.3513
19094TIP3   OH278772   3.001   0.127   5.998 -0.0929 -0.0597  0.0471
19094TIP3    H178773   2.944   0.193   6.036 -0.8069 -0.3370 -0.5159
19094TIP3    H278774   3.088   0.166   6.002 -0.1918  0.0520  1.6290
19095TIP3   OH278775   1.202   1.387  12.248  0.5448  0.2589  0.3318
19095TIP3    H178776   1.218   1.418  12.337  1.5661  0.4779  0.0791
19095TIP3    H278777   1.274   1.423  12.196  0.2826 -0.3450 -0.4756
19096TIP3   OH278778   1.835   6.758   1.762  0.0523  0.0869  0.1218
19096TIP3    H178779   1.918   6.804   1.766  0.9862 -1.5880  1.3513
19096TIP3    H278780   1.852   6.673   1.803 -1.5338 -1.4504 -2.1525
19097TIP3   OH278781   0.057   3.567  12.670  0.3156 -0.5381  0.6879
19097TIP3    H178782   0.128   3.602  12.723 -1.1282  1.2984  1.5064
19097TIP3    H278783   0.051   3.627  12.596 -0.0440 -1.0055  0.3293
19098TIP3   OH278784   4.083   4.816  14.555 -0.3836  0.2074 -0.0847
19098TIP3    H178785   4.132   4.747  14.601  1.0368  0.5758 -0.9694
19098TIP3    H278786   4.099   4.799  14.462  0.1161  1.7924 -0.3166
19099TIP3   OH278787   4.089   1.210   0.698  0.0609  0.0108  0.4367
19099TIP3    H178788   4.157   1.151   0.664 -0.2223 -0.0041 -0.0981
19099TIP3    H278789   4.014   1.153   0.714 -0.9329  0.5250 -2.0428
19100TIP3   OH278790   3.099   4.238   0.511  0.2580  0.4033  0.3542
19100TIP3    H178791   3.124   4.169   0.450  3.0990  1.7775 -0.2223
19100TIP3    H278792   3.142   4.316   0.477 -3.2424  2.6947  0.6486
19101TIP3   OH278793   2.531   1.701  13.321 -0.0456  0.4937  0.2584
19101TIP3    H178794   2.520   1.782  13.271  1.1429  1.6466  1.7711
19101TIP3    H278795   2.464   1.706  13.390 -0.2969 -0.0677  0.0658
19102TIP3   OH278796   4.466   5.374   5.792 -0.2726  0.3137  0.1994
19102TIP3    H178797   4.395   5.320   5.826  1.9322 -2.5822  0.6206
19102TIP3    H278798   4.470   5.449   5.852 -2.8037  0.4902  0.2385
19103TIP3   OH278799   0.615   4.674  12.502 -0.3158 -0.0065 -0.4757
19103TIP3    H178800   0.685   4.718  12.454 -0.7422 -0.6982 -1.7771
19103TIP3    H278801   0.631   4.698  12.594  1.0551  0.6157 -0.8391
19104TIP3   OH278802   4.514   4.751  11.998 -0.0677 -0.6570 -0.5784
19104TIP3    H178803   4.449   4.757  12.068  0.8127  0.8017  0.1743
19104TIP3    H278804   4.592   4.716  12.041  0.5513  0.4591 -0.7386
19105TIP3   OH278805   0.419   5.707  12.461 -0.3708 -0.3342  0.2708
19105TIP3    H178806   0.461   5.697  12.375  1.2394  0.1979  0.9533
19105TIP3    H278807   0.358   5.780  12.449 -0.7391 -0.7633 -0.6040
19106TIP3   OH278808   4.587   2.917  13.716  0.2433  0.6914 -0.2792
19106TIP3    H178809   4.609   2.928  13.624 -0.6674  0.7300 -0.4982
19106TIP3    H278810   4.527   2.843  13.718 -0.3019  1.1358  0.1912
19107TIP3   OH278811   5.301   6.589   3.897 -0.0510  0.6007  1.1906
19107TIP3    H178812   5.346   6.505   3.884 -0.0254  0.0432  4.1783
19107TIP3    H278813   5.208   6.568   3.885  0.0897  0.5938  0.0571
19108TIP3   OH278814   6.500   1.786   0.006  0.2343  0.1119  0.2409
19108TIP3    H178815   6.575   1.778  -0.053  0.0661  3.0277 -0.5051
19108TIP3    H278816   6.459   1.699   0.003  1.9423 -0.7240 -1.5536
19109TIP3   OH278817   6.762   1.875   3.138  0.2256 -0.0937  0.2230
19109TIP3    H178818   6.701   1.841   3.072  0.9352  0.8323 -0.9652
19109TIP3    H278819   6.831   1.810   3.142  1.0471  0.6223 -1.2672
19110TIP3   OH278820   2.677   3.531  12.949  0.0256  0.4454 -0.2575
19110TIP3    H178821   2.650   3.439  12.950 -1.4969  0.8417  2.3378
19110TIP3    H278822   2.756   3.534  13.002 -0.2774  0.6979  0.1901
19111TIP3   OH278823   0.984   1.327  14.535  0.5100 -0.1304  0.0873
19111TIP3    H178824   1.015   1.398  14.479 -0.3873  1.5993  1.6803
19111TIP3    H278825   1.039   1.252  14.511  0.5885  0.6589 -2.6284
19112TIP3   OH278826   0.539   5.334   3.492  0.1375 -0.5616 -0.3218
19112TIP3    H178827   0.602   5.402   3.469 -2.2200  1.6215 -0.7179
19112TIP3    H278828   0.575   5.296   3.572  0.8383  2.2491  0.8459
19113TIP3   OH278829   4.391   1.425   3.456 -0.3924 -0.1526  0.4968
19113TIP3    H178830   4.441   1.344   3.452  0.5315  0.4180  0.0892
19113TIP3    H278831   4.374   1.447   3.364 -0.1769  0.3798  0.5782
19114TIP3   OH278832   3.333   5.409   0.244  0.0500 -0.7754 -0.2682
19114TIP3    H178833   3.284   5.351   0.185 -0.4875 -0.1572 -0.4375
19114TIP3    H278834   3.404   5.354   0.278  0.0376 -1.2979 -1.0624
19115TIP3   OH278835   3.344   5.214  14.822  0.8158  0.4306  0.1476
19115TIP3    H178836   3.424   5.179  14.861 -0.0560  0.5449  2.1611
19115TIP3    H278837   3.280   5.143  14.831  0.6083  0.4165 -1.2328
19116TIP3   OH278838   0.432   0.446   2.199 -1.0060 -0.1017 -0.0240
19116TIP3    H178839   0.521   0.447   2.233 -1.0535 -0.7651  0.1422
19116TIP3    H278840   0.389   0.374   2.246 -2.1030  1.2296  1.0739
19117TIP3   OH278841   2.157   6.687   1.484 -0.4524 -0.5020  0.5914
19117TIP3    H178842   2.175   6.743   1.560 -0.1093  2.2252 -1.3624
19117TIP3    H278843   2.243   6.652   1.460 -0.3626 -0.3600  0.7006
19118TIP3   OH278844   1.849   6.614   2.053  0.4133  0.0195  0.1841
19118TIP3    H178845   1.831   6.666   2.132 -0.2414 -3.0229  2.2159
19118TIP3    H278846   1.771   6.560   2.041  0.3018  0.6661 -2.9210
19119TIP3   OH278847   5.943   4.783  14.976  0.0282 -0.6706  0.5889
19119TIP3    H178848   5.904   4.853  15.028  0.6282 -0.4469  0.7462
19119TIP3    H278849   5.998   4.828  14.912  0.1815 -0.9864  0.4972
19120TIP3   OH278850   3.059   3.496   3.098  0.3484  0.2089  0.5517
19120TIP3    H178851   3.056   3.412   3.052 -0.7783  0.5937 -0.1087
19120TIP3    H278852   2.968   3.525   3.102  0.8909  2.5275 -1.4221
19121TIP3   OH278853   4.669   1.575   1.506 -0.1298  0.0104  0.1926
19121TIP3    H178854   4.736   1.602   1.568  0.4488 -0.4024 -0.2540
19121TIP3    H278855   4.625   1.502   1.549 -0.0012 -0.0129  0.2869
19122TIP3   OH278856   2.000   5.817   0.635  0.3630  0.5188 -0.1851
19122TIP3    H178857   1.967   5.882   0.697 -1.2043 -0.3182 -0.0637
19122TIP3    H278858   1.992   5.858   0.550 -0.2453  0.6548 -0.0722
19123TIP3   OH278859   1.689   6.370  14.749 -0.2632  0.0549  0.3487
19123TIP3    H178860   1.596   6.351  14.758 -0.4235  1.4134  1.9356
19123TIP3    H278861   1.720   6.381  14.839  1.5506 -0.8428 -0.1187
19124TIP3   OH278862   3.593   1.823   2.719 -0.2630 -0.2449  0.4530
19124TIP3    H178863   3.629   1.812   2.807  1.0731 -0.0565 -0.0599
19124TIP3    H278864   3.498   1.812   2.731 -0.3369  1.6240  2.2446
19125TIP3   OH278865   0.570   5.365  12.944  0.4348 -0.6558 -0.2616
19125TIP3    H178866   0.551   5.363  13.038 -1.6932  0.8052 -0.5886
19125TIP3    H278867   0.658   5.400  12.938 -0.3862  1.8748  1.1508
19126TIP3   OH278868   5.810   6.429  14.024  0.4849 -0.1338 -0.4218
19126TIP3    H178869   5.769   6.360  14.075 -0.8674  0.6875 -0.3427
19126TIP3    H278870   5.859   6.383  13.956  1.0616 -1.1947  0.6787
19127TIP3   OH278871   5.855   3.102   6.097 -0.2206  0.2827  0.3592
19127TIP3    H178872   5.827   3.140   6.013 -1.3516 -1.9309 -0.3317
19127TIP3    H278873   5.816   3.159   6.163 -2.2419  0.1364 -0.6326
19128TIP3   OH278874   1.383   4.740   3.899 -0.0234 -0.0141 -0.1043
19128TIP3    H178875   1.377   4.821   3.949  1.4107 -0.3745  0.7041
19128TIP3    H278876   1.321   4.751   3.827 -1.9699  0.6328  1.5960
19129TIP3   OH278877   0.351   2.549  14.992  0.1804  0.4085  0.2442
19129TIP3    H178878   0.371   2.465  15.034  0.2404  0.5608  0.5184
19129TIP3    H278879   0.295   2.594  15.055 -1.3517 -0.1614 -0.6456
19130TIP3   OH278880   2.882   5.572   4.105 -0.3899 -0.1558  0.2751
19130TIP3    H178881   2.978   5.577   4.107 -0.4115  1.2607 -0.3960
19130TIP3    H278882   2.854   5.664   4.106 -1.7501 -0.5560  0.6625
19131TIP3   OH278883   4.263   5.316  10.821 -0.4250 -0.0874  0.8787
19131TIP3    H178884   4.246   5.235  10.772 -1.1022  0.4036  0.2717
19131TIP3    H278885   4.204   5.380  10.781  2.3118  1.5649 -0.8461
19132TIP3   OH278886   4.565   2.465  16.933  0.0557  0.5679  0.3143
19132TIP3    H178887   4.516   2.427  16.860  0.9588  0.7729 -0.4105
19132TIP3    H278888   4.511   2.538  16.963 -1.1675 -0.5676  1.0093
19133TIP3   OH278889   3.829   1.123   3.392 -0.1280 -0.0818 -0.1708
19133TIP3    H178890   3.845   1.110   3.486 -1.0299  0.1385  0.0173
19133TIP3    H278891   3.768   1.196   3.388 -2.0544 -1.6542 -0.8035
19134TIP3   OH278892   6.513   2.498   6.821 -0.9643 -0.1089  0.2524
19134TIP3    H178893   6.469   2.564   6.767 -0.4629  1.7304  1.9404
19134TIP3    H278894   6.563   2.445   6.759 -0.3407  1.9379 -1.1190
19135TIP3   OH278895   4.956   1.138   3.149 -0.2396 -0.0658 -0.2668
19135TIP3    H178896   4.993   1.153   3.237  0.1920  0.0109 -0.4581
19135TIP3    H278897   4.984   1.050   3.126 -0.1775 -0.0105 -0.4072
19136TIP3   OH278898   2.592   2.399   3.464 -0.1719 -0.5908 -0.0617
19136TIP3    H178899   2.507   2.442   3.463 -0.0525 -0.3069 -2.1741
19136TIP3    H278900   2.584   2.327   3.401  1.3991  0.0098 -1.0177
19137TIP3   OH278901   0.116   3.778  16.064 -0.1384 -0.2531 -0.2007
19137TIP3    H178902   0.029   3.813  16.045 -1.0123 -1.5022  1.3179
19137TIP3    H278903   0.152   3.755  15.978 -1.5679 -0.3273 -0.8031
19138TIP3   OH278904   1.493   1.879  13.419  0.3776  0.9425  0.2251
19138TIP3    H178905   1.571   1.875  13.363  1.1048 -2.1355  1.2393
19138TIP3    H278906   1.420   1.863  13.360  1.2413 -3.8622  0.0341
19139TIP3   OH278907   3.723   5.270  16.848 -0.3823  0.0642 -0.1269
19139TIP3    H178908   3.736   5.266  16.753  0.7689  0.4738 -0.0003
19139TIP3    H278909   3.711   5.363  16.866  0.2928  0.0880  0.2278
19140TIP3   OH278910   4.952   6.052   1.950 -0.7715 -0.1824  0.3116
19140TIP3    H178911   5.026   6.108   1.974 -1.2713  0.8902 -0.5493
19140TIP3    H278912   4.892   6.057   2.024  0.3439 -1.7123  1.3766
19141TIP3   OH278913   2.727   6.645   2.452 -0.1177 -0.7411  0.0351
19141TIP3    H178914   2.811   6.658   2.407  0.3519 -1.1392  0.7628
19141TIP3    H278915   2.740   6.686   2.538 -0.5336 -1.1433  0.2945
19142TIP3   OH278916   1.048   6.708   1.768  0.1179  0.0778  0.1540
19142TIP3    H178917   0.982   6.760   1.723  0.9085  0.8294 -0.1804
19142TIP3    H278918   1.119   6.698   1.703  0.6447 -0.0816  0.7433
19143TIP3   OH278919   6.572   0.770   6.021  0.1683 -0.5602 -0.7161
19143TIP3    H178920   6.543   0.819   6.097 -1.6996 -0.2294 -1.5843
19143TIP3    H278921   6.620   0.834   5.968 -0.7945 -0.1009 -1.0443
19144TIP3   OH278922   4.385   4.625  17.150 -0.3401  0.2001 -0.5092
19144TIP3    H178923   4.390   4.567  17.226  0.4443  0.5337 -0.3002
19144TIP3    H278924   4.373   4.712  17.188  1.1724  0.5126 -0.7144
19145TIP3   OH278925   4.553   3.598  16.892  0.1718 -0.4525  0.0940
19145TIP3    H178926   4.620   3.636  16.950 -0.6528  1.3444 -0.0506
19145TIP3    H278927   4.573   3.635  16.806  0.8061 -2.3467 -0.6112
19146TIP3   OH278928   5.113   1.020   2.387  0.4922  0.7508  0.0649
19146TIP3    H178929   5.110   1.077   2.464 -0.6036 -0.6736  1.1583
19146TIP3    H278930   5.027   0.978   2.386  1.0760 -0.4859 -0.9684
19147TIP3   OH278931   3.082   2.983  12.001  0.1247  0.5048  0.6723
19147TIP3    H178932   3.147   2.917  11.978 -0.6021  0.4239 -1.3504
19147TIP3    H278933   3.101   3.057  11.944 -2.0564  0.1289 -0.7014
19148TIP3   OH278934   4.727   6.085  13.733 -0.0567  0.6275  0.1575
19148TIP3    H178935   4.806   6.139  13.734  0.4122 -0.0666  0.9064
19148TIP3    H278936   4.746   6.011  13.791 -0.7087 -0.3251 -0.7961
19149TIP3   OH278937   4.196   1.021   2.834  0.5519  0.0395 -0.0657
19149TIP3    H178938   4.201   1.095   2.773  0.2187 -0.3371 -0.5615
19149TIP3    H278939   4.106   0.991   2.828  1.0034 -1.2432 -0.8928
19150TIP3   OH278940   6.732   2.407   6.964 -0.3253 -0.1888  0.0040
19150TIP3    H178941   6.722   2.312   6.956  1.1551 -0.2949 -0.7621
19150TIP3    H278942   6.659   2.443   6.912  0.3780 -0.9196 -1.5543
19151TIP3   OH278943   0.122   5.865  11.053  0.0845 -1.1901  0.0638
19151TIP3    H178944   0.160   5.856  11.140  1.7203 -1.6743 -0.6558
19151TIP3    H278945   0.072   5.946  11.057  0.4585 -0.9949  1.3413
19152TIP3   OH278946   6.051   0.762   1.536 -0.4852  0.2429  0.4069
19152TIP3    H178947   6.078   0.734   1.624 -0.0375  0.0945  0.2274
19152TIP3    H278948   5.956   0.767   1.540 -0.5640 -1.0384  0.5379
19153TIP3   OH278949   3.696   2.470   0.577 -0.2247 -0.2982  0.1740
19153TIP3    H178950   3.665   2.401   0.635 -1.7744  0.3623  0.1970
19153TIP3    H278951   3.738   2.425   0.504 -1.8592 -1.3015 -0.1781
19154TIP3   OH278952   3.327   2.962   1.239  0.4803  0.1478 -0.2715
19154TIP3    H178953   3.233   2.944   1.241  0.2016  1.5677  0.5219
19154TIP3    H278954   3.360   2.907   1.168 -0.8015 -0.9818 -0.0394
19155TIP3   OH278955   5.345   5.271   2.830 -0.2940 -0.1962  0.0217
19155TIP3    H178956   5.383   5.210   2.893  1.7163 -0.0165 -0.9562
19155TIP3    H278957   5.360   5.357   2.868 -1.8113 -0.1883  0.6920
19156TIP3   OH278958   0.842   0.256  15.192  0.9202 -0.1938 -0.0204
19156TIP3    H178959   0.806   0.311  15.123  0.0044  0.0055  0.5999
19156TIP3    H278960   0.817   0.167  15.167  2.7063 -0.4234 -1.2122
19157TIP3   OH278961   6.581   1.707  15.571  0.2579 -0.2051 -0.2810
19157TIP3    H178962   6.661   1.663  15.544  0.5189  0.3332 -0.3867
19157TIP3    H278963   6.517   1.636  15.581  0.8742 -0.6946  0.2865
19158TIP3   OH278964   0.117   4.498  11.217 -0.0135  0.2466 -0.8934
19158TIP3    H178965   0.179   4.532  11.281 -0.2289 -0.0756 -0.5076
19158TIP3    H278966   0.169   4.483  11.138  0.2275  0.7798 -0.8434
19159TIP3   OH278967   0.214   2.878  15.552 -0.2993 -0.2307 -0.7005
19159TIP3    H178968   0.188   2.881  15.644  0.8342 -0.9310 -0.3349
19159TIP3    H278969   0.223   2.784  15.533 -0.1525 -0.0776 -1.4193
19160TIP3   OH278970   2.840   2.978   4.950 -0.2418 -0.0603  0.1776
19160TIP3    H178971   2.891   3.059   4.948 -0.9376  0.3899  0.4913
19160TIP3    H278972   2.810   2.971   5.041 -1.8239  0.3555 -0.2990
19161TIP3   OH278973   1.909   4.712   4.997 -0.2012  0.5621  0.4749
19161TIP3    H178974   1.976   4.652   5.029 -0.0700  0.3744 -0.1329
19161TIP3    H278975   1.858   4.734   5.074  1.4503  1.8627  1.2673
19162TIP3   OH278976   1.594   0.176  15.119 -0.0121  0.1763 -0.0137
19162TIP3    H178977   1.502   0.159  15.099  0.2263 -0.0009 -1.0398
19162TIP3    H278978   1.628   0.091  15.147 -0.3998  0.4716  1.4239
19163TIP3   OH278979   0.655   6.803  16.051  0.0715  0.3009 -0.0324
19163TIP3    H178980   0.578   6.746  16.047  0.9333 -1.0231  1.2797
19163TIP3    H278981   0.690   6.789  16.139  2.2307  0.3114 -0.8379
19164TIP3   OH278982   1.407   2.926  10.797  0.0449  0.0628  0.4332
19164TIP3    H178983   1.486   2.923  10.743 -0.2500 -1.2534  0.0383
19164TIP3    H278984   1.361   3.006  10.769 -0.5503 -1.0336 -1.9492
19165TIP3   OH278985   0.696   2.857   4.151 -0.3840 -0.5325  0.1354
19165TIP3    H178986   0.767   2.793   4.151 -0.1594 -0.3666 -2.1085
19165TIP3    H278987   0.667   2.861   4.242  1.1742 -2.0461  0.7511
19166TIP3   OH278988   0.324   3.613   0.589  0.3350  0.5160 -0.1717
19166TIP3    H178989   0.323   3.695   0.538  2.6209  0.1324 -0.9816
19166TIP3    H278990   0.371   3.551   0.533 -0.5388 -1.1035  0.8127
19167TIP3   OH278991   2.018   2.976   3.241  0.3632 -0.2299 -0.2800
19167TIP3    H178992   1.987   2.895   3.201  0.1078 -0.4613  0.3688
19167TIP3    H278993   2.094   3.002   3.189 -0.3323 -0.1792 -1.3040
19168TIP3   OH278994   4.823   1.948   1.485  0.1640 -0.1463  0.6530
19168TIP3    H178995   4.863   2.026   1.446 -1.1552  0.3548  0.2322
19168TIP3    H278996   4.858   1.945   1.574 -1.9519  2.7053  1.7527
19169TIP3   OH278997   2.594   3.270  13.480 -0.4807  0.0656 -1.2187
19169TIP3    H178998   2.534   3.201  13.451  1.7063 -2.7560  0.4390
19169TIP3    H278999   2.671   3.261  13.424  0.5532 -0.1181  0.1737
19170TIP3   OH279000   6.522   5.742   4.181  0.0678  0.2389 -0.3554
19170TIP3    H179001   6.451   5.728   4.243  0.5183  1.8634  0.5748
19170TIP3    H279002   6.489   5.708   4.097 -0.6275 -1.8010  0.6785
19171TIP3   OH279003   3.735   5.391   0.546 -0.1776  0.9968  0.3204
19171TIP3    H179004   3.662   5.451   0.564  0.3899  1.4585  1.1634
19171TIP3    H279005   3.803   5.417   0.608  0.0474 -0.6079  0.7879
19172TIP3   OH279006   1.080   6.379  16.117 -0.3527 -0.2027 -0.1889
19172TIP3    H179007   0.999   6.360  16.071 -1.2570  1.5943  0.5586
19172TIP3    H279008   1.058   6.451  16.176  1.6862  0.0531  0.3504
19173TIP3   OH279009   2.320   4.194   4.878  0.4306  0.3219 -0.1482
19173TIP3    H179010   2.276   4.127   4.930  0.0076  2.0200  1.8163
19173TIP3    H279011   2.411   4.165   4.874  0.1208 -0.7171  0.0775
19174TIP3   OH279012   3.196   0.544   3.751 -0.0468  0.2193 -0.0116
19174TIP3    H179013   3.165   0.625   3.711  1.2683  1.3453  1.1414
19174TIP3    H279014   3.237   0.496   3.679  0.4254  1.2428 -0.4450
19175TIP3   OH279015   6.654   4.274   2.063 -0.6492 -0.4598 -0.3539
19175TIP3    H179016   6.623   4.310   2.146 -1.1051  0.1780 -0.7972
19175TIP3    H279017   6.575   4.250   2.015 -0.4268 -0.0231 -0.9567
19176TIP3   OH279018   3.022   2.969  16.874  0.2830 -0.2581 -0.1468
19176TIP3    H179019   3.059   3.046  16.831 -0.6956 -0.1909 -0.8941
19176TIP3    H279020   3.098   2.921  16.907  0.9412  0.6524 -0.3083
19177TIP3   OH279021   4.733   6.095  16.991 -1.1078 -0.4443  0.9611
19177TIP3    H179022   4.771   6.099  17.079 -2.8908  0.3462  1.7586
19177TIP3    H279023   4.677   6.172  16.986 -2.1990 -1.2793 -0.3040
19178TIP3   OH279024   6.175   5.006   4.948  0.0633 -0.3398 -0.2362
19178TIP3    H179025   6.247   4.977   5.005 -0.6809 -0.4251  0.6882
19178TIP3    H279026   6.217   5.026   4.864  0.9443 -1.8561 -0.1874
19179TIP3   OH279027   5.244   0.630   3.808 -0.4401  0.5125  0.0399
19179TIP3    H179028   5.315   0.640   3.744  0.3938  1.7163  1.1175
19179TIP3    H279029   5.281   0.573   3.876 -0.3246  1.4824  0.8158
19180TIP3   OH279030   5.427   2.036   0.723 -0.7965 -0.0276  0.1029
19180TIP3    H179031   5.341   2.011   0.756 -0.4572 -1.5248 -0.0724
19180TIP3    H279032   5.410   2.068   0.634 -1.1095 -0.9373 -0.1750
19181TIP3   OH279033   1.204   2.249  16.052  0.3778 -0.3046 -0.1213
19181TIP3    H179034   1.205   2.342  16.026 -0.9666 -0.3054 -0.2630
19181TIP3    H279035   1.179   2.251  16.145  2.8803 -0.4269  0.6292
19182TIP3   OH279036   4.227   2.813  12.368 -0.1433 -0.0996 -0.1230
19182TIP3    H179037   4.306   2.793  12.418 -0.6292  1.7280  1.5175
19182TIP3    H279038   4.256   2.876  12.302 -0.3165  1.2075  1.0023
19183TIP3   OH279039   2.636   2.533  16.062  0.0490  0.1446  0.2805
19183TIP3    H179040   2.607   2.583  16.138  0.8776  1.4811 -0.2367
19183TIP3    H279041   2.641   2.443  16.092 -1.0568  0.4323  1.3800
19184TIP3   OH279042   0.933   0.249   5.690 -0.2211  0.1076 -0.0537
19184TIP3    H179043   0.969   0.169   5.652  1.0275  0.5568  0.1604
19184TIP3    H279044   1.009   0.297   5.723 -1.1160  0.4033  1.7427
19185TIP3   OH279045   2.798   3.738   3.476 -0.7959  0.0037  0.2358
19185TIP3    H179046   2.731   3.733   3.408 -1.5243  2.4980  0.6625
19185TIP3    H279047   2.854   3.811   3.449  0.7914 -0.9959  0.7338
19186TIP3   OH279048   6.198   5.053   1.899 -0.4904  0.2339 -0.0212
19186TIP3    H179049   6.152   5.095   1.827 -0.8950 -0.7131 -0.3358
19186TIP3    H279050   6.150   4.972   1.914 -0.2506  0.2869  1.1444
19187TIP3   OH279051   2.425   0.877  17.115 -0.6205  0.1657 -0.1623
19187TIP3    H179052   2.430   0.963  17.158  1.2487  1.1551 -2.1754
19187TIP3    H279053   2.333   0.869  17.089 -0.6575  2.0024 -0.7237
19188TIP3   OH279054   0.014   1.938  14.690 -0.1341  0.4654 -0.0486
19188TIP3    H179055  -0.081   1.925  14.700 -0.1103 -1.7800 -1.8505
19188TIP3    H279056   0.053   1.879  14.754  0.0282  0.5882 -0.0358
19189TIP3   OH279057   6.113   3.965   0.595 -0.1956 -0.2659 -0.3451
19189TIP3    H179058   6.111   4.050   0.551  4.4500 -0.4290 -1.4324
19189TIP3    H279059   6.173   3.978   0.669 -1.0101 -2.1476  0.7060
19190TIP3   OH279060   0.553   3.468  11.252 -0.0757  0.4615  0.2850
19190TIP3    H179061   0.596   3.385  11.233 -0.9110  0.0162  0.3380
19190TIP3    H279062   0.625   3.526  11.278  0.6374  0.0650 -0.7613
19191TIP3   OH279063   3.051   4.286   1.838  0.0549 -0.3639  0.2158
19191TIP3    H179064   3.054   4.195   1.810  0.4617 -0.6732  1.2212
19191TIP3    H279065   2.958   4.309   1.838 -0.0297 -0.7111 -0.2479
19192TIP3   OH279066   1.832   4.207  14.387  0.1653 -0.1026  0.7951
19192TIP3    H179067   1.810   4.229  14.296 -0.0167 -0.2063  0.8141
19192TIP3    H279068   1.896   4.274  14.413  0.4891 -0.2837  0.4744
19193TIP3   OH279069   2.699   3.039  11.391  0.6625  0.0304 -0.1818
19193TIP3    H179070   2.671   3.012  11.478  2.2521  0.6916  0.5643
19193TIP3    H279071   2.660   3.125  11.378 -2.3279 -1.3552 -1.5515
19194TIP3   OH279072   5.643   2.221   3.865 -0.4342  0.2382  0.6842
19194TIP3    H179073   5.694   2.302   3.870  0.1427  0.0449 -1.1637
19194TIP3    H279074   5.552   2.250   3.863 -0.2112  0.9498 -0.7817
19195TIP3   OH279075   5.973   3.370  12.364  0.2266  0.0705 -0.2132
19195TIP3    H179076   5.977   3.466  12.360  0.7229  0.1086  0.7177
19195TIP3    H279077   5.904   3.346  12.302  0.1810  1.0192 -0.5530
19196TIP3   OH279078   2.028   6.261   1.374 -0.4092  0.1031  0.2762
19196TIP3    H179079   2.039   6.220   1.460  0.5165  1.7147  0.9588
19196TIP3    H279080   2.090   6.215   1.318 -2.5214 -2.4537 -0.1577
19197TIP3   OH279081   1.861   5.970  17.163  0.4067  0.0167 -0.4167
19197TIP3    H179082   1.770   5.959  17.136  0.6208 -0.4589 -0.9573
19197TIP3    H279083   1.855   6.003  17.253 -0.3070  1.3716 -0.9338
19198TIP3   OH279084   1.027   0.803  14.459 -0.1816  0.2983 -0.0046
19198TIP3    H179085   1.016   0.744  14.534 -1.1678  0.4686 -0.0024
19198TIP3    H279086   1.012   0.891  14.495  0.3106  0.4703 -0.2104
19199TIP3   OH279087   0.284   0.628  13.295 -0.1719  0.1005 -0.5100
19199TIP3    H179088   0.345   0.562  13.327  1.2408  0.1069 -2.9242
19199TIP3    H279089   0.293   0.702  13.355  0.3212 -0.8410  0.5897
19200TIP3   OH279090   4.182   6.129  16.048 -0.2645  0.1045 -0.2019
19200TIP3    H179091   4.098   6.122  16.004 -0.6068 -0.4941  0.5069
19200TIP3    H279092   4.245   6.148  15.979 -1.0567  1.0784 -0.6644
19201TIP3   OH279093   2.399   4.119  10.649 -0.1568 -0.0645  0.4331
19201TIP3    H179094   2.358   4.193  10.604  1.8861  0.8811 -0.0081
19201TIP3    H279095   2.326   4.073  10.691 -1.5167  2.1419  0.6535
19202TIP3   OH279096   3.612   0.249   4.235 -0.0131 -0.2593  0.5535
19202TIP3    H179097   3.610   0.337   4.273  0.5428 -0.3238  0.7423
19202TIP3    H279098   3.685   0.252   4.172  0.4851 -0.7893  1.0908
19203TIP3   OH279099   2.854   5.175   4.342 -0.3741 -0.4483 -0.1793
19203TIP3    H179100   2.871   5.208   4.430 -2.2218 -0.1574  0.1112
19203TIP3    H279101   2.781   5.114   4.352 -0.0656 -1.0521 -1.3958
19204TIP3   OH279102   6.364   1.309   2.661 -0.1818  0.3974  0.1131
19204TIP3    H179103   6.357   1.219   2.694  1.1845 -0.2637 -1.2550
19204TIP3    H279104   6.446   1.342   2.699  0.0147  0.5767 -0.4497
19205TIP3   OH279105   2.046   5.794   1.044 -0.4844 -0.7587 -0.3473
19205TIP3    H179106   1.966   5.803   0.991 -0.1108 -0.6384 -0.9100
19205TIP3    H279107   2.084   5.711   1.017 -0.4904 -0.8820  0.0206
19206TIP3   OH279108   5.029   6.204  16.397  0.2156  0.1177 -0.1670
19206TIP3    H179109   4.992   6.117  16.384 -0.1624  0.2816 -0.1933
19206TIP3    H279110   4.957   6.264  16.378  0.0237  0.4016  1.3279
19207TIP3   OH279111   5.930   4.460   2.252  0.0623  0.3578  0.2106
19207TIP3    H179112   6.014   4.421   2.227  0.4128  1.6653 -0.7722
19207TIP3    H279113   5.884   4.391   2.300  1.5348 -0.5108  0.4254
19208TIP3   OH279114   0.646   2.316  11.315 -0.2115  0.3658 -0.0432
19208TIP3    H179115   0.666   2.297  11.224  0.0618  4.3646 -1.0055
19208TIP3    H279116   0.560   2.358  11.313  0.5704  2.1608  1.2119
19209TIP3   OH279117   5.602   3.187  15.072 -0.0715 -0.7105  0.4818
19209TIP3    H179118   5.515   3.220  15.049  0.2147 -0.3748 -0.1424
19209TIP3    H279119   5.626   3.234  15.152 -0.4490 -0.7899  0.6445
19210TIP3   OH279120   6.194   4.988  15.219  0.2245 -0.1291  0.1704
19210TIP3    H179121   6.152   4.995  15.305  0.2587 -0.1751  0.1901
19210TIP3    H279122   6.164   4.904  15.185 -1.3840  0.7361 -0.6907
19211TIP3   OH279123   6.617   1.464  12.578 -0.2515 -0.0532 -0.3730
19211TIP3    H179124   6.633   1.421  12.662 -1.0672  1.1766  0.4480
19211TIP3    H279125   6.522   1.455  12.565 -0.3308  0.8808 -0.5083
19212TIP3   OH279126   5.747   1.096   0.693 -0.0137 -0.3845  0.2216
19212TIP3    H179127   5.813   1.116   0.760 -0.1085 -0.2584  0.2775
19212TIP3    H279128   5.705   1.016   0.725 -1.0179  0.4353  1.0394
19213TIP3   OH279129   0.009   3.132   3.620 -0.0978  0.2966  0.3360
19213TIP3    H179130   0.071   3.059   3.617 -0.7905 -0.3728  1.4592
19213TIP3    H279131   0.054   3.204   3.576  0.1540 -1.1186 -1.9223
19214TIP3   OH279132   1.080   4.956  11.018  0.4279  0.4462 -0.6938
19214TIP3    H179133   1.034   4.874  11.035  0.4909  0.6703  0.6836
19214TIP3    H279134   1.170   4.939  11.046  0.4919  0.9210 -0.6082
19215TIP3   OH279135   5.604   5.769  12.133 -0.3534  0.4144  0.2141
19215TIP3    H179136   5.589   5.861  12.156 -1.5883 -0.3225  2.8246
19215TIP3    H279137   5.516   5.734  12.117  0.0643 -0.4090 -0.3179
19216TIP3   OH279138   4.496   2.960   5.318 -0.1065 -0.1194  0.6351
19216TIP3    H179139   4.434   2.895   5.286  0.9523 -0.8429 -0.0191
19216TIP3    H279140   4.441   3.029   5.356 -1.4057  0.3210 -1.8231
19217TIP3   OH279141   5.316   4.144  15.566  0.0574  0.3696 -0.0163
19217TIP3    H179142   5.242   4.183  15.612  0.1958 -0.7183  1.1747
19217TIP3    H279143   5.329   4.060  15.609  1.4696  0.1851 -0.7590
19218TIP3   OH279144   5.318   4.404  14.648 -0.4184  0.0911  0.0519
19218TIP3    H179145   5.285   4.429  14.562 -0.5889  0.3189  0.1826
19218TIP3    H279146   5.413   4.413  14.641 -0.4354  0.1611 -0.0949
19219TIP3   OH279147   3.183   6.602   3.343 -0.7155  0.7317 -0.0263
19219TIP3    H179148   3.125   6.657   3.397 -1.5993 -0.0650 -0.1412
19219TIP3    H279149   3.220   6.539   3.405 -0.6670  0.6749 -0.1136
19220TIP3   OH279150   1.050   4.376  15.410 -0.1957 -0.0136  0.1426
19220TIP3    H179151   1.034   4.459  15.365  0.0952  0.4159  0.8114
19220TIP3    H279152   0.983   4.373  15.478  0.1252 -0.0600  0.4635
19221TIP3   OH279153   4.518   0.778   0.194  0.5566 -0.4397 -0.1417
19221TIP3    H179154   4.435   0.750   0.156 -1.2174  4.2733 -0.4137
19221TIP3    H279155   4.573   0.801   0.119 -0.9524  3.6901 -0.2400
19222TIP3   OH279156   6.164   0.863   6.801  0.1459 -0.3339  0.2854
19222TIP3    H179157   6.103   0.875   6.728 -0.6391  0.5731  1.0558
19222TIP3    H279158   6.248   0.893   6.768  0.0920 -1.1672 -0.6516
19223TIP3   OH279159   2.207   3.158  10.731 -0.0847 -0.5122  0.1134
19223TIP3    H179160   2.287   3.158  10.785 -0.7177  1.0116  1.1240
19223TIP3    H279161   2.149   3.220  10.775 -1.6050 -1.1282 -0.9538
19224TIP3   OH279162   0.522   3.268   1.180 -0.2724 -0.0651  0.4456
19224TIP3    H179163   0.555   3.338   1.123 -2.6729  0.7535 -0.0876
19224TIP3    H279164   0.432   3.295   1.200 -0.6546 -2.1129  1.7427
19225TIP3   OH279165   4.130   2.993  14.118 -0.5616  0.4637  0.1171
19225TIP3    H179166   4.079   3.066  14.083 -0.3246 -0.7582 -3.2034
19225TIP3    H279167   4.214   2.998  14.071  0.5380 -0.3465  1.9008
19226TIP3   OH279168   6.271   5.168  16.873 -0.1248 -0.4563  0.0327
19226TIP3    H179169   6.289   5.169  16.779 -2.6957 -0.1923 -0.5339
19226TIP3    H279170   6.290   5.079  16.901 -1.0362 -1.0379 -1.1446
19227TIP3   OH279171   3.582   6.608   2.223 -0.1513  0.2722 -1.0538
19227TIP3    H179172   3.505   6.599   2.168 -0.6350  0.5419 -0.4367
19227TIP3    H279173   3.600   6.520   2.256 -0.3400  0.2509 -1.0096
19228TIP3   OH279174   1.576   5.754  15.850  0.5253 -0.7207 -0.8662
19228TIP3    H179175   1.639   5.687  15.823  0.8386 -0.1854 -1.4883
19228TIP3    H279176   1.612   5.789  15.931  0.2829 -1.3926 -0.4515
19229TIP3   OH279177   5.443   1.143   4.120 -0.5089  0.3358  0.4257
19229TIP3    H179178   5.429   1.229   4.081  2.7808  1.5035  1.5547
19229TIP3    H279179   5.478   1.090   4.049 -0.5840  0.5360  0.2358
19230TIP3   OH279180   5.987   1.494  12.291  0.4490  0.2153  0.0493
19230TIP3    H179181   5.897   1.522  12.310  0.5731  0.5231  0.1913
19230TIP3    H279182   6.040   1.571  12.310  0.8748 -0.3059  1.0706
19231TIP3   OH279183   4.186   4.981  11.031 -0.4179 -0.0525  0.3568
19231TIP3    H179184   4.134   4.903  11.017 -0.7763 -0.1864  2.1467
19231TIP3    H279185   4.277   4.951  11.028 -0.5619 -0.6254  1.3965
19232TIP3   OH279186   0.734   3.189   3.506 -0.1244 -0.4628 -0.4789
19232TIP3    H179187   0.671   3.124   3.473  1.2802 -0.3082 -3.8191
19232TIP3    H279188   0.680   3.258   3.543 -1.7213 -2.3334  0.9351
19233TIP3   OH279189   0.334   6.491  11.461  0.2530 -0.1610  0.2367
19233TIP3    H179190   0.425   6.516  11.476  0.5984 -0.2593 -1.5248
19233TIP3    H279191   0.284   6.572  11.473  0.9032  0.5172 -1.4266
19234TIP3   OH279192   3.360   4.831   1.938  0.4418 -0.2304  0.3868
19234TIP3    H179193   3.267   4.809   1.941  0.8394 -2.3771 -0.5929
19234TIP3    H279194   3.393   4.807   2.025  0.2739 -0.5214  0.3717
19235TIP3   OH279195   3.274   1.252  13.071  0.1234 -0.2327 -0.6748
19235TIP3    H179196   3.344   1.191  13.047 -0.3302 -0.5421 -1.2249
19235TIP3    H279197   3.303   1.337  13.039 -0.0789 -0.4877 -1.5492
19236TIP3   OH279198   1.264   5.063  14.530 -0.4363 -0.3688  0.0721
19236TIP3    H179199   1.292   5.038  14.618 -1.2848 -1.2348  0.1211
19236TIP3    H279200   1.207   4.991  14.502 -1.8471  0.8483 -0.3519
19237TIP3   OH279201   6.257   4.027   3.110 -0.2148 -0.3376  0.3884
19237TIP3    H179202   6.278   3.954   3.168 -1.0811 -1.5780 -0.8102
19237TIP3    H279203   6.221   4.094   3.169  0.6134 -0.8492  1.5115
19238TIP3   OH279204   2.542   1.277   2.722  0.3569  0.2061  0.1684
19238TIP3    H179205   2.545   1.343   2.653  1.0493 -0.4804 -0.4805
19238TIP3    H279206   2.504   1.322   2.798  1.0897  1.4247 -0.1665
19239TIP3   OH279207   2.032   3.459   5.912  0.1702  0.1198 -0.5953
19239TIP3    H179208   2.016   3.551   5.933 -1.5237 -0.3767  0.4861
19239TIP3    H279209   2.069   3.461   5.823 -2.3406  1.7229 -1.7229
19240TIP3   OH279210   2.090   0.419   3.033  0.3818  0.4669  0.2539
19240TIP3    H179211   2.018   0.471   2.995 -1.8660 -1.8419  1.0354
19240TIP3    H279212   2.104   0.457   3.119 -0.0265  0.8499  0.1577
19241TIP3   OH279213   2.419   5.692  11.673  0.3686  0.1850  0.0512
19241TIP3    H179214   2.329   5.663  11.656 -0.3733 -0.2233  3.7441
19241TIP3    H279215   2.474   5.620  11.643 -0.8337 -1.1589  0.9584
19242TIP3   OH279216   0.702   1.407  13.540  0.0874  0.4552 -0.2404
19242TIP3    H179217   0.617   1.449  13.549 -0.5982 -1.0969  1.3606
19242TIP3    H279218   0.727   1.386  13.630  0.5788 -2.0438 -0.8840
19243TIP3   OH279219   0.281   0.251   3.013  0.1241 -0.2044  0.0364
19243TIP3    H179220   0.352   0.312   3.032  0.4643 -0.6382  0.1535
19243TIP3    H279221   0.203   0.307   3.010  0.4698  0.2828 -0.1478
19244TIP3   OH279222   1.171   0.225   2.063  0.2412  0.1154  1.0529
19244TIP3    H179223   1.236   0.214   2.132  1.6812 -0.5314 -0.3346
19244TIP3    H279224   1.219   0.265   1.991 -1.3955  1.4880  0.6423
19245TIP3   OH279225   1.268   5.457   2.643 -0.2706 -0.5403  0.0705
19245TIP3    H179226   1.234   5.413   2.564  0.1822  1.3322 -1.2475
19245TIP3    H279227   1.200   5.520   2.665  0.6273  0.5836 -0.2829
19246TIP3   OH279228   4.225   1.241   2.647  0.4880  0.1595  0.4182
19246TIP3    H179229   4.318   1.226   2.632  1.0008  0.5506  2.7294
19246TIP3    H279230   4.207   1.327   2.610  0.9034 -0.1312 -0.4855
19247TIP3   OH279231   5.324   0.684  16.844 -0.3367 -0.5027  0.3228
19247TIP3    H179232   5.314   0.598  16.804  1.1465 -0.2111 -0.7900
19247TIP3    H279233   5.404   0.677  16.896 -1.1593 -0.2883  1.6473
19248TIP3   OH279234   6.338   3.928   2.074  0.3336 -0.4250 -0.0701
19248TIP3    H179235   6.370   4.010   2.038 -0.4527 -0.5933 -1.1888
19248TIP3    H279236   6.345   3.939   2.169  3.0218 -0.2060 -0.2151
19249TIP3   OH279237   4.403   3.981  12.758  0.0935  0.3353 -0.0257
19249TIP3    H179238   4.364   3.915  12.701  1.2341  0.7782 -1.3688
19249TIP3    H279239   4.494   3.987  12.730  0.7695  0.4347  1.9986
19250TIP3   OH279240   2.141   6.489  16.876  0.0547  0.2224 -0.2233
19250TIP3    H179241   2.071   6.490  16.941  0.0662  0.9552 -0.2166
19250TIP3    H279242   2.213   6.442  16.918  0.6353  2.0232  0.9037
19251TIP3   OH279243   1.315   6.597  15.941 -0.2950 -0.1275 -0.2181
19251TIP3    H179244   1.338   6.690  15.952 -0.5790 -0.1978  1.2511
19251TIP3    H279245   1.352   6.554  16.018 -0.5214 -1.1747 -0.6735
19252TIP3   OH279246   0.209   1.285   3.482 -0.0486  0.8137 -0.2956
19252TIP3    H179247   0.255   1.369   3.475  1.8952  0.0326  1.6859
19252TIP3    H279248   0.271   1.221   3.446 -0.2071 -0.0864  0.9406
19253TIP3   OH279249   0.547   6.727   3.987 -0.6508  0.4992 -0.0257
19253TIP3    H179250   0.591   6.712   4.070 -1.3829 -1.7397  0.0211
19253TIP3    H279251   0.603   6.684   3.922  0.1986  2.6900 -0.8121
19254TIP3   OH279252   6.065   4.603  13.276 -0.0565  0.3064  0.2017
19254TIP3    H179253   6.080   4.511  13.253 -1.4037  0.5300 -1.7420
19254TIP3    H279254   6.151   4.634  13.304  1.1835 -0.7442 -2.1119
19255TIP3   OH279255   2.844   6.751  11.589  0.0411 -0.0073  0.0083
19255TIP3    H179256   2.879   6.830  11.631  0.3771  1.0393 -2.0893
19255TIP3    H279257   2.794   6.707  11.657  2.7852  0.0996  2.2859
19256TIP3   OH279258   1.027   6.438  13.435 -0.1048  0.1299  0.1422
19256TIP3    H179259   0.935   6.419  13.453  0.0364 -0.1786  0.5378
19256TIP3    H279260   1.049   6.380  13.361 -1.0879  2.4218 -2.1215
19257TIP3   OH279261   3.182   5.070   1.283  0.1335 -0.4743  0.1823
19257TIP3    H179262   3.270   5.046   1.257  0.1544  2.0461 -2.6295
19257TIP3    H279263   3.128   5.056   1.205 -0.9476  2.3164  0.2766
19258TIP3   OH279264   1.708   3.257  12.297  0.2979 -0.2298  0.1026
19258TIP3    H179265   1.691   3.195  12.226  0.0598  1.3458 -1.2836
19258TIP3    H279266   1.643   3.236  12.363 -1.3258 -0.0056 -1.3405
19259TIP3   OH279267   0.809   6.621   0.814  0.1991  0.6214 -0.4764
19259TIP3    H179268   0.764   6.689   0.865 -0.4148 -0.9219  1.1361
19259TIP3    H279269   0.858   6.570   0.879  2.4005  0.7631 -1.8976
19260TIP3   OH279270   5.684   4.807  14.752 -0.2581  0.1587 -0.5416
19260TIP3    H179271   5.686   4.815  14.847  0.1896 -0.6485 -0.4775
19260TIP3    H279272   5.759   4.858  14.722 -0.9790  1.2660 -0.5454
19261TIP3   OH279273   3.496   4.409  14.382 -0.4028  0.0529  0.3445
19261TIP3    H179274   3.405   4.433  14.365 -0.9200 -1.4515  0.7812
19261TIP3    H279275   3.491   4.346  14.455  1.0205  0.2631  0.6560
19262TIP3   OH279276   0.638   1.157  12.951 -0.0343 -0.4066  0.0665
19262TIP3    H179277   0.621   1.129  12.861 -0.6458 -0.0838  0.0767
19262TIP3    H279278   0.552   1.182  12.985  0.1392 -0.8395  0.8519
19263TIP3   OH279279   1.819   5.900   0.917 -0.2307  0.2657 -0.2360
19263TIP3    H179280   1.837   5.994   0.923 -0.3829  0.3005 -0.3294
19263TIP3    H279281   1.773   5.890   0.833 -0.1069  0.0924 -0.2830
19264TIP3   OH279282   3.076   0.316  15.141  0.4281  0.0933  0.1561
19264TIP3    H179283   3.105   0.270  15.220  1.2685  1.1089  0.4442
19264TIP3    H279284   3.065   0.407  15.168 -0.3478  0.2483 -0.6356
19265TIP3   OH279285   3.749   6.755  13.892  0.0995  0.0206  0.0214
19265TIP3    H179286   3.810   6.818  13.854 -1.3280  0.8924 -0.9164
19265TIP3    H279287   3.733   6.691  13.822  0.2854 -0.4837  0.4277
19266TIP3   OH279288   3.654   2.719   4.015 -0.7760  0.3913  0.2849
19266TIP3    H179289   3.685   2.682   3.932  2.1066  3.3132 -0.1343
19266TIP3    H279290   3.565   2.749   3.997 -0.4857  0.2495 -1.5032
19267TIP3   OH279291   5.228   4.762  16.851  0.3182  0.0730  0.1667
19267TIP3    H179292   5.308   4.722  16.884 -0.7930  0.4122  3.5884
19267TIP3    H279293   5.249   4.855  16.843  0.4153  0.0900  0.6044
19268TIP3   OH279294   4.488   3.500  15.861  1.1122  0.1638  0.1257
19268TIP3    H179295   4.416   3.520  15.801  0.3058  0.8025  1.2693
19268TIP3    H279296   4.536   3.429  15.818  0.1881  0.1691 -0.9662
19269TIP3   OH279297   5.856   6.748  15.392 -0.7839  0.0475 -0.3423
19269TIP3    H179298   5.870   6.833  15.433  0.5216 -0.8492  1.1606
19269TIP3    H279299   5.819   6.693  15.461  0.6520 -1.2648 -0.5675
19270TIP3   OH279300   2.542   4.703  12.818  0.1224  0.0250  0.3846
19270TIP3    H179301   2.510   4.772  12.760  2.6388  2.2501  1.4252
19270TIP3    H279302   2.585   4.641  12.759 -2.2135 -0.7581 -0.5794
19271TIP3   OH279303   0.172   4.455   4.069 -0.4597 -0.4209 -0.0834
19271TIP3    H179304   0.225   4.433   3.993  0.6268 -3.7573  1.4870
19271TIP3    H279305   0.230   4.509   4.124 -0.4592  0.0563 -0.5379
19272TIP3   OH279306   2.982   5.217  12.426 -0.3092 -0.0202 -0.0123
19272TIP3    H179307   3.069   5.222  12.388  0.4907  0.1655  1.7562
19272TIP3    H279308   2.959   5.124  12.422  0.3523 -0.2001  0.3029
19273TIP3   OH279309   1.035   3.618  11.971 -0.7719  0.2133 -0.4614
19273TIP3    H179310   1.048   3.598  11.879 -1.9342 -1.2789 -0.3531
19273TIP3    H279311   1.113   3.583  12.014  1.6882  4.3061 -1.1536
19274TIP3   OH279312   1.911   3.129   0.642  0.6379  0.0826 -0.3128
19274TIP3    H179313   1.995   3.151   0.681  0.8303 -2.7512  1.1420
19274TIP3    H279314   1.932   3.064   0.575 -0.4724 -2.1707  1.4148
19275TIP3   OH279315   3.945   1.855   2.370 -0.2400  0.2900 -0.1046
19275TIP3    H179316   3.867   1.901   2.401 -1.4610 -2.0788  0.6008
19275TIP3    H279317   3.997   1.840   2.449 -0.8178 -1.1771  0.0313
19276TIP3   OH279318   5.958   5.174   3.073  0.0500 -0.1187 -0.2831
19276TIP3    H179319   5.951   5.097   3.128  0.8486 -2.2366 -2.9163
19276TIP3    H279320   6.052   5.193   3.070 -0.0723  0.5300 -0.2226
19277TIP3   OH279321   5.501   0.474   4.365 -0.0517  0.0342  0.1165
19277TIP3    H179322   5.543   0.458   4.450  0.7816 -1.4651 -0.5437
19277TIP3    H279323   5.573   0.494   4.306 -0.5645  0.4353 -0.3884
19278TIP3   OH279324   6.132   5.510  13.795 -0.2780  0.1294 -0.2262
19278TIP3    H179325   6.085   5.455  13.732 -0.6776 -1.0893  1.0926
19278TIP3    H279326   6.211   5.460  13.816 -0.4749  0.2089  0.7302
19279TIP3   OH279327   0.292   4.759  13.164 -0.1083 -0.5310 -0.3234
19279TIP3    H179328   0.261   4.764  13.254 -1.8792 -0.4195 -0.8987
19279TIP3    H279329   0.251   4.833  13.120 -0.3056 -1.3141 -1.5077
19280TIP3   OH279330   6.224   2.185  15.605 -0.2502 -0.3918 -0.4134
19280TIP3    H179331   6.293   2.128  15.570 -0.0910  0.1562 -1.0040
19280TIP3    H279332   6.178   2.217  15.527  0.1099  0.8458 -0.1293
19281TIP3   OH279333   5.332   6.401   0.772  0.7075  0.4039 -0.2000
19281TIP3    H179334   5.339   6.448   0.689  1.9708  1.7442  0.6097
19281TIP3    H279335   5.294   6.317   0.749  1.5517  0.5227 -2.2284
19282TIP3   OH279336   5.956   2.411   4.285  0.5256  0.7751  0.1355
19282TIP3    H179337   6.038   2.426   4.238  0.3135  0.6063 -0.2949
19282TIP3    H279338   5.908   2.493   4.278  0.9790  1.1384  1.0579
19283TIP3   OH279339   0.819   5.375  17.168 -0.0324  0.5790 -0.5938
19283TIP3    H179340   0.818   5.311  17.239 -0.2810  1.6432  0.3887
19283TIP3    H279341   0.877   5.444  17.199  1.2387  0.2617 -2.1795
19284TIP3   OH279342   5.974   5.937  11.659  0.7324  0.0925  0.1771
19284TIP3    H179343   6.066   5.914  11.672  1.0479  1.1561 -0.0744
19284TIP3    H279344   5.936   5.936  11.746  1.4738  1.6256  0.5407
19285TIP3   OH279345   0.064   2.940  17.191 -0.3804  0.0112 -0.1335
19285TIP3    H179346   0.027   2.870  17.245  2.0457 -1.0879  0.2305
19285TIP3    H279347   0.097   3.004  17.254 -0.9738  0.6335 -0.4367
19286TIP3   OH279348   6.403   2.363  17.191 -0.1450 -0.1111  0.2415
19286TIP3    H179349   6.485   2.411  17.183  0.2004 -0.6550  0.4605
19286TIP3    H279350   6.401   2.334  17.282 -1.0133  0.6576  0.4795
19287TIP3   OH279351   4.557   6.542  15.820  0.2307  0.3395  0.3289
19287TIP3    H179352   4.555   6.635  15.795  0.4082  0.0486 -0.8425
19287TIP3    H279353   4.472   6.508  15.794  0.5680 -0.0655 -0.2723
19288TIP3   OH279354   3.242   1.163   4.076  0.1669  0.3803 -0.0168
19288TIP3    H179355   3.205   1.159   4.164  0.9895 -0.4252  0.3067
19288TIP3    H279356   3.237   1.256   4.052 -0.3783  0.5515  0.7328
19289TIP3   OH279357   1.427   0.027  12.176  0.0063 -0.9456 -0.5113
19289TIP3    H179358   1.402   0.110  12.136 -0.4485  0.1053  1.7953
19289TIP3    H279359   1.522   0.026  12.175  0.1804  1.2966  2.4709
19290TIP3   OH279360   4.883   4.638  16.121 -0.4808 -0.2254  0.1082
19290TIP3    H179361   4.912   4.566  16.178 -0.6290 -0.2107  0.2037
19290TIP3    H279362   4.788   4.628  16.116 -1.0398  2.0568  3.0945
19291TIP3   OH279363   3.160   3.624  15.833  0.4512 -0.1799  0.5519
19291TIP3    H179364   3.182   3.536  15.804  0.5589  0.4755 -1.5172
19291TIP3    H279365   3.082   3.613  15.887 -0.8600 -1.3630 -1.4506
19292TIP3   OH279366   0.252   6.809   0.296  0.1293  0.2429  0.1353
19292TIP3    H179367   0.288   6.755   0.366  0.6640 -0.7335 -0.8562
19292TIP3    H279368   0.164   6.774   0.281  0.3872 -0.2320 -0.3421
19293TIP3   OH279369   3.086   3.489  14.299  0.5646 -0.2013  0.4128
19293TIP3    H179370   3.047   3.521  14.380  1.0390 -1.3526  1.1098
19293TIP3    H279371   3.018   3.503  14.233  0.3687  1.2557  0.8689
19294TIP3   OH279372   0.098   6.020   3.951 -0.2946 -0.2058  0.1630
19294TIP3    H179373   0.104   6.019   4.046 -1.3756  0.1272  0.2476
19294TIP3    H279374   0.015   6.064   3.932 -1.3217 -2.4253 -0.8723
19295TIP3   OH279375   0.676   1.296   0.032 -0.0765  0.2156  0.2463
19295TIP3    H179376   0.653   1.389   0.035  0.8173  0.4244  1.3951
19295TIP3    H279377   0.732   1.288  -0.045  0.1288  0.7103  0.3349
19296TIP3   OH279378   0.871   2.722   2.083  0.0937  0.0173 -0.5859
19296TIP3    H179379   0.944   2.674   2.046  0.8569 -0.0062  0.8580
19296TIP3    H279380   0.911   2.782   2.146 -1.0093  1.0936 -0.8658
19297TIP3   OH279381   0.307   1.954   5.220  0.8607  1.0833 -0.0317
19297TIP3    H179382   0.221   1.989   5.197  0.1277 -0.3988  0.3238
19297TIP3    H279383   0.367   2.027   5.207 -0.5474  2.3752  0.3863
19298TIP3   OH279384   4.982   4.822   3.654 -0.5812  0.2809 -0.6049
19298TIP3    H179385   5.013   4.739   3.619  1.5814 -0.1140  1.8778
19298TIP3    H279386   4.968   4.877   3.577 -0.9362 -1.9816 -2.2532
19299TIP3   OH279387   1.221   1.896  16.403  0.3623 -0.3113  0.6056
19299TIP3    H179388   1.193   1.812  16.366 -0.0871  1.1072 -2.6012
19299TIP3    H279389   1.308   1.911  16.366  0.2514  0.8457  0.7758
19300TIP3   OH279390   2.652   4.640  15.381 -0.3993 -0.3415  0.1285
19300TIP3    H179391   2.678   4.712  15.438 -0.7640  1.0455 -1.3866
19300TIP3    H279392   2.565   4.614  15.413 -0.1205 -0.3481  0.8956
19301TIP3   OH279393   2.592   5.338  15.653  0.3144 -1.0706  0.4220
19301TIP3    H179394   2.514   5.337  15.598  0.5201  0.7318  0.0246
19301TIP3    H279395   2.585   5.420  15.703  1.6423 -1.1724  0.8296
19302TIP3   OH279396   3.751   5.900   1.143 -0.1525 -0.2366  0.1247
19302TIP3    H179397   3.689   5.930   1.077  0.2510  0.1242 -0.0925
19302TIP3    H279398   3.746   5.966   1.212 -1.1344 -1.0022  0.8229
19303TIP3   OH279399   0.822   4.545   2.597  0.1602  0.4115  0.5205
19303TIP3    H179400   0.750   4.576   2.543  0.6398  0.5884 -0.0262
19303TIP3    H279401   0.780   4.517   2.679 -0.5031  0.6709  0.2783
19304TIP3   OH279402   4.967   2.972   0.067  0.5368 -0.6556  0.1176
19304TIP3    H179403   4.881   2.995   0.030  0.8117 -0.6866 -0.5599
19304TIP3    H279404   5.010   3.056   0.082  0.5609 -0.6493  0.0200
19305TIP3   OH279405   4.750   0.078   5.293 -0.1306 -1.0955 -0.3294
19305TIP3    H179406   4.822   0.138   5.270 -1.4222  1.2686  1.3290
19305TIP3    H279407   4.768   0.053   5.383 -1.4069 -0.4074  0.1339
19306TIP3   OH279408   2.030   2.574  16.408 -0.4854  0.4546 -1.1024
19306TIP3    H179409   1.989   2.522  16.339  0.0297  1.4736 -2.2150
19306TIP3    H279410   2.077   2.510  16.461 -0.7120 -0.3326 -1.8172
19307TIP3   OH279411   5.591   3.430  16.035 -0.0920 -0.5228 -0.1938
19307TIP3    H179412   5.503   3.468  16.035 -0.0426 -0.1949 -3.0207
19307TIP3    H279413   5.592   3.371  16.110 -2.3814  0.1974  0.4792
19308TIP3   OH279414   1.647   3.009   0.691 -0.4195  0.2320 -0.1264
19308TIP3    H179415   1.723   3.066   0.679 -0.8594  0.6076 -1.2339
19308TIP3    H279416   1.679   2.921   0.671 -0.0568  0.2518  0.3362
19309TIP3   OH279417   4.388   0.390   4.169  0.5778 -0.4961 -0.5414
19309TIP3    H179418   4.320   0.436   4.118  1.9745  1.5361 -0.6669
19309TIP3    H279419   4.359   0.298   4.169 -1.8656  0.1940 -1.0529
19310TIP3   OH279420   6.461   2.571   3.716 -0.3744  0.5281 -0.3878
19310TIP3    H179421   6.510   2.617   3.647  0.4901 -0.5246 -0.5049
19310TIP3    H279422   6.403   2.512   3.668 -0.2760  0.2910 -0.2105
19311TIP3   OH279423   5.791   0.650  14.175  0.2439 -0.2257 -0.4628
19311TIP3    H179424   5.748   0.573  14.213  1.0823 -0.2379  0.5206
19311TIP3    H279425   5.851   0.614  14.110 -2.4664 -0.1051 -3.2264
19312TIP3   OH279426   4.158   0.462  14.721 -0.2968  0.7934 -0.6011
19312TIP3    H179427   4.204   0.545  14.736 -1.0458  1.1385 -0.1692
19312TIP3    H279428   4.170   0.413  14.802  0.7142  0.1841 -1.0954
19313TIP3   OH279429   5.045   1.324   0.489 -0.3874 -0.0292 -0.0873
19313TIP3    H179430   4.980   1.266   0.448 -1.7183  1.2092  0.2058
19313TIP3    H279431   5.063   1.390   0.423 -0.2441  0.2537  0.2344
19314TIP3   OH279432   5.860   4.110   6.419  0.4080  0.0175  0.0163
19314TIP3    H179433   5.831   4.192   6.378 -0.0821  0.1162  0.5409
19314TIP3    H279434   5.790   4.089   6.482  1.0836 -0.1782  0.7212
19315TIP3   OH279435   2.113   3.227  12.685 -0.5101  0.2005 -0.1796
19315TIP3    H179436   2.191   3.203  12.635 -0.9116  0.6752 -1.0590
19315TIP3    H279437   2.109   3.164  12.756  1.9095  1.4598  1.1934
19316TIP3   OH279438   5.174   1.603  11.348 -0.0882 -0.4388 -0.3462
19316TIP3    H179439   5.149   1.542  11.417  0.9204 -1.3791 -0.7944
19316TIP3    H279440   5.265   1.582  11.328  0.8464  2.2371  0.5814
19317TIP3   OH279441   4.880   6.631   3.153  0.4704  0.1751 -0.2909
19317TIP3    H179442   4.827   6.553   3.171 -0.7080  0.7284 -1.1770
19317TIP3    H279443   4.843   6.666   3.071  0.6143  1.9423  0.3525
19318TIP3   OH279444   5.079   5.114   2.958 -0.1749  0.2533 -0.6166
19318TIP3    H179445   5.168   5.077   2.960 -1.5762 -3.5596  0.5963
19318TIP3    H279446   5.077   5.176   3.030  1.9477  1.9492 -1.8651
19319TIP3   OH279447   0.070   5.799  13.942 -0.0073 -0.3207  0.1975
19319TIP3    H179448   0.067   5.893  13.926  0.8240  0.3782  3.4490
19319TIP3    H279449  -0.011   5.779  13.989  1.1502 -0.5644  2.1945
19320TIP3   OH279450   5.995   3.649   5.626 -0.9209 -0.0840 -0.5819
19320TIP3    H179451   6.060   3.603   5.678 -0.0394  1.3133 -0.3967
19320TIP3    H279452   5.957   3.581   5.570  1.4754 -0.7745 -1.5042
19321TIP3   OH279453   3.201   1.179  12.665  0.3974  0.7749  0.1180
19321TIP3    H179454   3.276   1.180  12.606 -0.5205 -1.3397 -1.2288
19321TIP3    H279455   3.177   1.271  12.676 -0.5255  1.2892 -4.3980
19322TIP3   OH279456   4.115   0.295   1.913  0.0436  0.1095 -0.4885
19322TIP3    H179457   4.022   0.272   1.912 -0.5425  2.1963 -2.0918
19322TIP3    H279458   4.135   0.312   2.005 -1.1863 -0.2157 -0.1404
19323TIP3   OH279459   4.136   0.574   4.290  0.6802  0.0312  0.5770
19323TIP3    H179460   4.133   0.594   4.197 -1.4157  1.8830  0.9492
19323TIP3    H279461   4.221   0.607   4.319  0.6207  1.1026 -0.3817
19324TIP3   OH279462   2.083   3.944  12.778 -0.2026 -0.4768  0.3566
19324TIP3    H179463   2.135   4.001  12.721  0.8330 -0.4845  1.2715
19324TIP3    H279464   2.006   3.923  12.726 -0.1489  0.9736 -0.3774
19325TIP3   OH279465   6.276   0.761  11.116  0.1416  0.0557 -0.1621
19325TIP3    H179466   6.325   0.680  11.135 -0.3376 -0.1374  0.2637
19325TIP3    H279467   6.344   0.824  11.092  0.7001  0.0488  1.2852
19326TIP3   OH279468   0.733   2.484  16.796 -0.2515 -0.4006  0.2950
19326TIP3    H179469   0.639   2.500  16.798  0.0162  1.8174 -1.0713
19326TIP3    H279470   0.759   2.482  16.888 -1.7047 -1.7776  0.7119
19327TIP3   OH279471   2.764   3.581  13.831 -0.7031 -0.3935  0.2064
19327TIP3    H179472   2.687   3.524  13.825 -0.2123 -1.0836  0.3833
19327TIP3    H279473   2.832   3.536  13.781 -0.1782 -0.1899  0.7205
19328TIP3   OH279474   4.105   1.311   4.758 -0.5688 -0.2419 -0.1304
19328TIP3    H179475   4.094   1.359   4.676  2.0427  0.3892 -0.1941
19328TIP3    H279476   4.017   1.312   4.798 -1.5134  0.9410 -2.0804
19329TIP3   OH279477   1.507   2.102  11.440  0.4287 -0.0230  0.4298
19329TIP3    H179478   1.491   2.092  11.346  0.7166  0.5979  0.3113
19329TIP3    H279479   1.569   2.174  11.446  1.0839 -0.6255  1.0470
19330TIP3   OH279480   4.016   5.000  17.164  0.4727  0.0451  0.0355
19330TIP3    H179481   3.936   5.003  17.216  0.9773  0.3590  0.8242
19330TIP3    H279482   4.086   5.013  17.228  1.2783 -2.1577 -0.3202
19331TIP3   OH279483   4.720   2.616  10.404  0.1834  0.4925  0.4977
19331TIP3    H179484   4.796   2.597  10.348 -0.5988  3.2068 -1.7207
19331TIP3    H279485   4.755   2.674  10.472  0.4577  0.1259  0.6724
19332TIP3   OH279486   3.801   3.291  16.088  0.2104  0.3201 -0.2767
19332TIP3    H179487   3.759   3.223  16.035 -1.3644  1.1328 -0.1393
19332TIP3    H279488   3.756   3.371  16.063  0.7403  1.0153  0.9309
19333TIP3   OH279489   4.807   5.527   4.336 -0.7150  0.0067  0.3970
19333TIP3    H179490   4.830   5.557   4.248  0.5529  2.3340  1.4343
19333TIP3    H279491   4.818   5.432   4.333 -1.0013 -0.0081 -2.0157
19334TIP3   OH279492   4.927   2.112   0.113  0.3971  0.3207  0.0965
19334TIP3    H179493   4.986   2.083   0.183 -2.0490 -0.9983  1.7641
19334TIP3    H279494   4.844   2.129   0.157 -0.6065  1.8792 -2.1793
19335TIP3   OH279495   1.311   1.558   1.162 -0.7112 -0.0808  0.0013
19335TIP3    H179496   1.343   1.508   1.086  1.1772 -2.0011  1.9281
19335TIP3    H279497   1.216   1.547   1.159 -0.6030 -0.9256 -1.5251
19336TIP3   OH279498   1.787   3.721   3.288  0.0867 -0.0696 -0.0339
19336TIP3    H179499   1.712   3.668   3.262 -0.6395  0.1251  1.5408
19336TIP3    H279500   1.860   3.685   3.238 -0.3288 -2.7338  1.1006
19337TIP3   OH279501   3.721   2.939   0.251  0.0739 -0.7001 -0.2240
19337TIP3    H179502   3.655   2.870   0.263  0.1204 -0.6049  0.6304
19337TIP3    H279503   3.673   3.021   0.261  0.5010 -0.6229  1.6821
19338TIP3   OH279504   6.555   0.089  15.404 -0.2210  0.3597 -0.0948
19338TIP3    H179505   6.617   0.128  15.465  1.1163 -0.5028 -0.8623
19338TIP3    H279506   6.474   0.138  15.417 -0.2227 -0.2516  2.8978
19339TIP3   OH279507   2.043   0.819   4.740 -0.2478  0.8450  0.2418
19339TIP3    H179508   2.099   0.844   4.813 -2.7126  1.1321  2.1920
19339TIP3    H279509   2.062   0.726   4.726  2.3347  1.4565 -0.8060
19340TIP3   OH279510   1.110   2.998  12.453 -0.1898  0.9726 -0.5271
19340TIP3    H179511   1.020   2.982  12.423 -1.1322  2.3375  1.3697
19340TIP3    H279512   1.106   2.986  12.548  1.3544  2.2431 -0.2590
19341TIP3   OH279513   1.380   2.674  15.310 -0.0700  0.0342 -0.3038
19341TIP3    H179514   1.387   2.762  15.276 -0.5642 -0.5457 -1.9719
19341TIP3    H279515   1.290   2.648  15.293 -0.7388  0.1235  2.5939
19342TIP3   OH279516   0.103   0.353   5.830 -0.0275 -0.5483  0.1461
19342TIP3    H179517   0.033   0.416   5.814  0.8214 -0.2544 -3.1593
19342TIP3    H279518   0.061   0.282   5.880 -3.1432 -1.0785 -2.8533
19343TIP3   OH279519   4.863   5.943  13.515  0.1526  0.7513 -0.0891
19343TIP3    H179520   4.809   6.002  13.568  0.1536  0.0916  0.6617
19343TIP3    H279521   4.804   5.874  13.487  0.0207  1.3685 -1.4371
19344TIP3   OH279522   6.149   0.428   3.528  0.3893  0.2153 -0.6923
19344TIP3    H179523   6.069   0.480   3.522  1.3124  1.8903  0.5942
19344TIP3    H279524   6.194   0.444   3.444  0.1590  0.6522 -0.7378
19345TIP3   OH279525   1.896   4.096   1.788 -0.0958 -0.4408 -0.6397
19345TIP3    H179526   1.863   4.041   1.716 -0.3977 -0.6182 -0.3691
19345TIP3    H279527   1.902   4.184   1.750  0.3185 -0.6473 -1.0549
19346TIP3   OH279528   6.582   2.727   1.098 -0.5602  0.1158 -0.2097
19346TIP3    H179529   6.620   2.663   1.038  1.6589  0.5100  0.6727
19346TIP3    H279530   6.531   2.673   1.160 -0.2407 -0.6018 -0.5585
19347TIP3   OH279531   5.042   1.861  13.440 -0.2662 -0.3703 -0.1032
19347TIP3    H179532   5.121   1.891  13.394 -0.9579  0.2680 -0.8978
19347TIP3    H279533   5.039   1.767  13.423  0.0731 -0.3200 -0.4641
19348TIP3   OH279534   0.014   1.917   1.098 -0.0173 -0.0883  0.3814
19348TIP3    H179535  -0.067   1.968   1.091  0.1359 -0.0875 -2.1306
19348TIP3    H279536   0.084   1.982   1.093  0.1591 -0.3790 -1.4673
19349TIP3   OH279537   3.705   6.633   5.153 -0.0280  0.5202  0.6658
19349TIP3    H179538   3.779   6.665   5.101 -0.2859 -0.4495 -0.3520
19349TIP3    H279539   3.727   6.656   5.243  2.1610 -0.8676  0.5587
19350TIP3   OH279540   5.318   3.316  13.963 -0.9266  0.3098  0.4115
19350TIP3    H179541   5.392   3.333  13.904 -0.8102  0.2589  0.5436
19350TIP3    H279542   5.266   3.396  13.959 -1.7015 -0.2278 -0.8956
19351TIP3   OH279543   5.838   5.847   6.526  0.1545 -0.4708 -0.2104
19351TIP3    H179544   5.925   5.820   6.555  0.4699  0.6866 -0.0632
19351TIP3    H279545   5.782   5.771   6.546  0.7556 -0.5200  1.4454
19352TIP3   OH279546   5.919   0.202  16.105  0.3235 -0.1702 -0.2967
19352TIP3    H179547   5.891   0.291  16.086  0.2882 -0.6308 -2.6601
19352TIP3    H279548   6.014   0.205  16.094  0.2231 -0.6254 -1.3181
19353TIP3   OH279549   2.724   4.398  16.392  0.2112 -0.3991  0.0101
19353TIP3    H179550   2.708   4.415  16.300  2.8020 -1.9791 -0.8533
19353TIP3    H279551   2.806   4.444  16.411 -0.5712  0.3945  1.7282
19354TIP3   OH279552   3.957   4.041  12.176 -0.0052  0.1080 -0.1103
19354TIP3    H179553   3.948   4.102  12.102 -0.9716 -0.0421 -0.1379
19354TIP3    H279554   4.046   4.007  12.170 -1.0376 -2.5370 -3.2765
19355TIP3   OH279555   0.262   3.227   3.859  0.0900  0.4068  0.6686
19355TIP3    H179556   0.331   3.273   3.811  0.4136 -0.1054  0.6312
19355TIP3    H279557   0.298   3.213   3.946  0.2111 -0.2554  0.5161
19356TIP3   OH279558   5.611   6.652   6.095  0.5490 -0.0684  0.6084
19356TIP3    H179559   5.606   6.604   6.178 -0.4113 -0.2666  0.4572
19356TIP3    H279560   5.602   6.744   6.120 -1.2096 -0.2140  0.6368
19357TIP3   OH279561   2.984   3.740   1.643  0.4627 -0.0974 -0.2053
19357TIP3    H179562   3.074   3.771   1.630  0.7144 -1.4598 -2.0244
19357TIP3    H279563   2.929   3.807   1.604  0.5750  1.1142  1.5667
19358TIP3   OH279564   2.285   5.442   6.670 -0.5000 -0.0769 -0.1731
19358TIP3    H179565   2.234   5.414   6.594 -0.4524  0.9587 -0.6039
19358TIP3    H279566   2.227   5.501   6.718  0.2837  1.1565 -0.6971
19359TIP3   OH279567   3.978   0.475  13.501 -0.0255  0.2095 -0.3810
19359TIP3    H179568   3.922   0.424  13.442 -0.1038  0.2653 -0.3545
19359TIP3    H279569   3.966   0.566  13.474  0.2041  0.2053 -0.5046
19360TIP3   OH279570   5.288   3.809  15.942  0.1346  0.0098 -0.1529
19360TIP3    H179571   5.263   3.891  15.984  0.0816 -0.9412  1.7410
19360TIP3    H279572   5.351   3.768  16.002 -0.8814 -1.9751 -0.3433
19361TIP3   OH279573   4.574   0.811   1.382  0.0181  0.5579 -0.2129
19361TIP3    H179574   4.492   0.797   1.336 -0.2830 -0.0322  0.4730
19361TIP3    H279575   4.625   0.731   1.365 -0.1693  0.2512  0.6067
19362TIP3   OH279576   4.891   5.511  14.866  0.3031 -0.1533  0.6527
19362TIP3    H179577   4.796   5.505  14.863  0.3190 -0.5892  0.9304
19362TIP3    H279578   4.909   5.588  14.920  0.1051  0.4518 -0.1349
19363TIP3   OH279579   6.428   0.206  13.635 -0.4766  0.3856 -0.1435
19363TIP3    H179580   6.386   0.160  13.708  0.6528 -0.0928  0.2197
19363TIP3    H279581   6.464   0.286  13.674 -0.9265  0.7403 -0.4332
19364TIP3   OH279582   2.628   3.321  13.789  0.0561 -0.0797 -0.0487
19364TIP3    H179583   2.626   3.298  13.696  0.0151 -0.2194 -0.0129
19364TIP3    H279584   2.571   3.256  13.831  0.6448 -0.4573  0.1724
19365TIP3   OH279585   5.834   6.466   4.597 -0.2358 -0.3666 -0.0188
19365TIP3    H179586   5.760   6.407   4.588 -0.8231  0.6576 -2.8913
19365TIP3    H279587   5.808   6.527   4.667 -1.2191 -1.1756  0.3445
19366TIP3   OH279588   0.149   4.385   5.304  0.2688  0.0597 -0.7827
19366TIP3    H179589   0.198   4.431   5.373 -0.1802 -0.7994  0.1435
19366TIP3    H279590   0.097   4.320   5.352  1.8385 -2.2969 -2.1184
19367TIP3   OH279591   5.779   3.073   0.682  0.0867  0.6678  0.0052
19367TIP3    H179592   5.720   3.141   0.650 -1.0343 -0.1740  0.1921
19367TIP3    H279593   5.731   2.991   0.666  0.5045  0.0670  1.6670
19368TIP3   OH279594   4.604   6.600  12.133  0.4242  0.3543  0.1284
19368TIP3    H179595   4.653   6.564  12.207 -1.3368 -1.6192  0.4705
19368TIP3    H279596   4.576   6.686  12.162  0.1507 -0.2056  1.6167
19369TIP3   OH279597   1.674   0.327   2.952  0.2612  0.4866 -0.2967
19369TIP3    H179598   1.699   0.373   2.872 -0.1643  0.4653 -0.4433
19369TIP3    H279599   1.645   0.396   3.011  0.5920  0.5040 -0.1544
19370TIP3   OH279600   1.917   0.825   0.622  0.2277 -0.0418 -0.4510
19370TIP3    H179601   1.865   0.746   0.614 -0.9561  0.6692  0.0261
19370TIP3    H279602   1.972   0.810   0.699  1.1440 -0.9997 -1.2556
19371TIP3   OH279603   4.183   5.091   3.962 -0.1358 -0.1611  0.2220
19371TIP3    H179604   4.253   5.044   4.009 -1.3487 -0.4233  1.8766
19371TIP3    H279605   4.106   5.079   4.017 -0.6747  3.2811  0.4434
19372TIP3   OH279606   5.763   3.558  15.174  0.1459 -0.1222  0.4092
19372TIP3    H179607   5.737   3.566  15.267  2.8510 -1.4225  1.3703
19372TIP3    H279608   5.772   3.463  15.160 -0.6653  0.0209 -1.3751
19373TIP3   OH279609   2.437   5.154   3.076  0.2754 -0.3001  0.3065
19373TIP3    H179610   2.379   5.099   3.129 -2.2102  0.6465 -1.2729
19373TIP3    H279611   2.524   5.139   3.113 -0.9093 -1.9221  2.7046
19374TIP3   OH279612   0.946   5.404   5.464 -0.5962 -0.2059  0.1088
19374TIP3    H179613   0.856   5.403   5.432 -0.4024 -1.7793 -0.4433
19374TIP3    H279614   1.000   5.414   5.385 -0.2223 -1.5054  0.1741
19375TIP3   OH279615   0.695   5.602   1.914 -0.1964  0.5352 -0.3805
19375TIP3    H179616   0.717   5.606   2.008  1.6997  0.3242 -0.7741
19375TIP3    H279617   0.672   5.511   1.899  1.3216  0.1288 -0.4457
19376TIP3   OH279618   1.756   6.527  13.563  0.5745  0.4110 -0.1718
19376TIP3    H179619   1.818   6.481  13.508  0.0692  1.1338 -1.3955
19376TIP3    H279620   1.725   6.600  13.508  0.8959  1.8470  1.4653
19377TIP3   OH279621   4.643   5.917   1.565 -0.0598 -0.4546  0.0708
19377TIP3    H179622   4.646   5.823   1.582 -2.4468 -0.4086  1.1861
19377TIP3    H279623   4.555   5.932   1.531 -0.9268  1.7907  2.9622
19378TIP3   OH279624   5.410   6.261  12.047 -0.4257  0.2863  0.3523
19378TIP3    H179625   5.431   6.288  12.136  2.4635 -1.2747  0.2594
19378TIP3    H279626   5.473   6.306  11.991 -0.6207 -0.5916 -0.6272
19379TIP3   OH279627   5.729   0.472  15.601 -0.1572 -0.5274 -0.1213
19379TIP3    H179628   5.756   0.398  15.656 -0.5366 -0.1377  0.5935
19379TIP3    H279629   5.667   0.521  15.655  1.0452  1.0402 -0.0757
19380TIP3   OH279630   2.433   0.626  13.383  0.1671 -0.8226  0.0921
19380TIP3    H179631   2.445   0.533  13.404  0.7667 -1.1531 -1.4874
19380TIP3    H279632   2.516   0.650  13.340  0.5196  0.8016  1.6108
19381TIP3   OH279633   4.705   0.124  16.332  0.1345  0.2053  0.5624
19381TIP3    H179634   4.609   0.122  16.332  0.1019  1.0701  1.1237
19381TIP3    H279635   4.727   0.186  16.263  0.3228 -0.6043 -0.1168
19382TIP3   OH279636   2.242   2.409   2.541 -0.5030 -0.3318  0.7173
19382TIP3    H179637   2.154   2.425   2.506  0.4352 -0.9261 -2.1117
19382TIP3    H279638   2.259   2.317   2.524  1.5316  0.2903 -1.0075
19383TIP3   OH279639   1.130   3.256   1.260 -0.2344  0.2209 -0.5332
19383TIP3    H179640   1.214   3.284   1.295  0.8027 -0.2919 -2.4493
19383TIP3    H279641   1.071   3.254   1.335  1.0343  2.1697  0.5828
19384TIP3   OH279642   1.339   4.635  12.857  0.6420  0.2076  0.3311
19384TIP3    H179643   1.387   4.698  12.802  2.4326 -0.9900  0.4516
19384TIP3    H279644   1.384   4.637  12.941  0.8365 -1.3079  0.2922
19385TIP3   OH279645   1.198   4.970   4.552 -0.1620 -0.2084 -0.8693
19385TIP3    H179646   1.270   4.908   4.558  0.1522  0.1948 -0.4384
19385TIP3    H279647   1.235   5.046   4.507  0.3360  0.9158  1.3274
19386TIP3   OH279648   3.140   2.630   1.627  0.1949  0.6438  0.5290
19386TIP3    H179649   3.133   2.579   1.546  0.3766  1.2209  0.1470
19386TIP3    H279650   3.197   2.577   1.683  1.3156  0.9528 -0.2894
19387TIP3   OH279651   0.260   1.047  16.662 -0.3425 -0.2241 -0.0850
19387TIP3    H179652   0.235   1.101  16.587 -2.1349  0.4630  0.9272
19387TIP3    H279653   0.176   1.016  16.698  0.4771 -0.8193  1.4175
19388TIP3   OH279654   0.846   2.727  15.542  0.1628 -0.3830  0.0646
19388TIP3    H179655   0.875   2.730  15.634 -0.6013  2.2709  0.3090
19388TIP3    H279656   0.923   2.755  15.492 -0.0085  0.1827  0.1084
19389TIP3   OH279657   4.972   5.291  13.419 -0.4865  0.0899  0.4856
19389TIP3    H179658   4.916   5.348  13.472  1.0777  0.2607  2.0488
19389TIP3    H279659   5.034   5.351  13.378 -0.7898 -0.2000 -0.4156
19390TIP3   OH279660   6.092   5.132   1.679 -0.0579 -0.3016 -0.4800
19390TIP3    H179661   6.042   5.076   1.620  0.3796 -0.7044 -0.4765
19390TIP3    H279662   6.073   5.221   1.649 -2.1192 -0.3236  0.5835
19391TIP3   OH279663   2.255   3.410   1.339  0.0025  0.2102 -0.3158
19391TIP3    H179664   2.295   3.384   1.256  0.4359 -2.6132  0.6789
19391TIP3    H279665   2.216   3.330   1.374 -0.5895  1.4075  2.0098
19392TIP3   OH279666   3.267   1.954  15.608 -0.4902  0.1007 -0.1100
19392TIP3    H179667   3.259   2.020  15.539  2.5304  0.7370 -0.0205
19392TIP3    H279668   3.211   1.985  15.679 -1.4615  0.9395 -1.2195
19393TIP3   OH279669   3.925   3.841   2.928 -0.0245  0.2894 -0.4522
19393TIP3    H179670   3.868   3.904   2.971  0.9776  2.4428 -2.1064
19393TIP3    H279671   3.897   3.841   2.836  0.5762 -1.0283 -0.6705
19394TIP3   OH279672   5.525   4.291   5.196  1.1187 -0.4408  0.2848
19394TIP3    H179673   5.613   4.313   5.225  1.0859 -0.6274  0.5289
19394TIP3    H279674   5.535   4.267   5.104  0.9431  1.9213 -0.4070
19395TIP3   OH279675   1.413   3.313  14.860  0.6808  0.0229  0.1203
19395TIP3    H179676   1.340   3.375  14.860  0.2612 -0.4589 -0.7693
19395TIP3    H279677   1.488   3.365  14.889  0.4013  1.0418 -0.9173
19396TIP3   OH279678   1.327   6.101   3.737  0.1024 -0.0229 -0.4880
19396TIP3    H179679   1.423   6.109   3.737 -0.0073  1.6763 -0.0788
19396TIP3    H279680   1.297   6.173   3.681 -0.9687 -0.1435 -0.0860
19397TIP3   OH279681   4.099   4.099  11.587 -0.0331 -0.7625 -0.5234
19397TIP3    H179682   4.165   4.047  11.632  1.1924 -0.4804 -1.9399
19397TIP3    H279683   4.120   4.190  11.610  0.2507 -0.6558 -1.1999
19398TIP3   OH279684   2.515   2.078   3.643  0.1056  0.7133  0.4125
19398TIP3    H179685   2.605   2.066   3.672 -0.0915  2.7391  2.0372
19398TIP3    H279686   2.462   2.058   3.719 -0.9157 -1.0648 -0.6968
19399TIP3   OH279687   1.225   3.766   2.037  0.2565 -0.3129 -0.4199
19399TIP3    H179688   1.317   3.766   2.065  0.0901 -1.0588  0.1375
19399TIP3    H279689   1.211   3.679   2.000 -0.5721 -0.6519  0.6682
19400TIP3   OH279690   6.513   2.030  15.153  0.1193 -0.4189 -0.0867
19400TIP3    H179691   6.594   2.037  15.103  0.3170  0.0327  0.2855
19400TIP3    H279692   6.449   1.995  15.091  0.5153 -0.4551 -0.4769
19401TIP3   OH279693   4.407   3.008   2.271 -0.3664 -0.3816 -0.5202
19401TIP3    H179694   4.318   3.038   2.255 -1.1970 -1.9570  0.8234
19401TIP3    H279695   4.439   3.064   2.342 -0.8938 -0.8595  0.1014
19402TIP3   OH279696   1.656   1.169  14.588 -0.4204  0.0144 -0.1141
19402TIP3    H179697   1.716   1.197  14.519 -2.3166  0.6834 -1.5923
19402TIP3    H279698   1.647   1.246  14.645  1.7203 -0.7689  1.4077
19403TIP3   OH279699   3.465   1.956   0.473  0.1330  0.3841 -0.3924
19403TIP3    H179700   3.397   1.980   0.535  0.4159  0.1665  0.0064
19403TIP3    H279701   3.541   1.937   0.527  0.2580 -0.2289 -0.7711
19404TIP3   OH279702   2.894   0.311  12.871  0.4278  0.0638  0.2688
19404TIP3    H179703   2.880   0.405  12.870  1.2413  0.1919  0.5684
19404TIP3    H279704   2.962   0.296  12.805 -1.7196 -0.6749 -1.9627
19405TIP3   OH279705   6.578   2.389  13.452  0.0444 -0.0623  0.5149
19405TIP3    H179706   6.509   2.370  13.389  1.4242  0.6950 -1.3048
19405TIP3    H279707   6.593   2.483  13.444  2.8231 -0.5189 -0.8846
19406TIP3   OH279708   3.873   1.367  13.567  0.6936  0.1862  0.3193
19406TIP3    H179709   3.911   1.280  13.580  0.0129 -0.5059 -1.8920
19406TIP3    H279710   3.817   1.380  13.643 -1.8815 -2.8462 -0.8409
19407TIP3   OH279711   2.026   3.241  14.508  0.3744  0.0599 -0.5489
19407TIP3    H179712   2.051   3.317  14.454  1.5643 -0.2912 -0.5166
19407TIP3    H279713   2.030   3.273  14.598  2.5187 -0.4394 -0.4163
19408TIP3   OH279714   6.477   2.844  13.339 -0.3087  0.5672  0.4225
19408TIP3    H179715   6.554   2.899  13.356  0.6390 -1.3074  2.6663
19408TIP3    H279716   6.425   2.850  13.419  0.4511 -2.6669  1.2756
19409TIP3   OH279717   6.588   2.771   2.521  0.4842 -0.4337 -0.0200
19409TIP3    H179718   6.562   2.830   2.450  1.2334 -1.9228 -1.6134
19409TIP3    H279719   6.631   2.698   2.477  0.0833 -1.9235  1.8966
19410TIP3   OH279720   0.639   0.922   2.994  0.1329  0.4142  0.5375
19410TIP3    H179721   0.553   0.920   3.036  0.0595 -0.2571  0.3687
19410TIP3    H279722   0.619   0.926   2.900  0.2872  0.3652  0.5032
19411TIP3   OH279723   2.600   0.864   2.319 -0.3232 -0.3778 -0.1491
19411TIP3    H179724   2.615   0.896   2.408  0.5827 -1.6584  0.1895
19411TIP3    H279725   2.627   0.772   2.322  0.0530 -0.3464 -1.8496
19412TIP3   OH279726   3.914   1.890   4.094  0.5505  0.5475 -0.6763
19412TIP3    H179727   3.934   1.886   4.001  0.8819 -2.1992 -0.5769
19412TIP3    H279728   3.998   1.880   4.138  0.1919 -0.2779 -0.1405
19413TIP3   OH279729   5.176   6.480  12.814  0.4110  0.1720  0.0568
19413TIP3    H179730   5.114   6.513  12.879 -1.1659 -1.6801 -0.4064
19413TIP3    H279731   5.237   6.426  12.863  1.4768  1.6658  0.4545
19414TIP3   OH279732   2.471   3.184  12.791 -0.4097  0.0073 -0.2399
19414TIP3    H179733   2.425   3.181  12.707  0.0948 -1.3928 -0.4944
19414TIP3    H279734   2.416   3.239  12.846 -1.7933 -0.6565 -0.8948
19415TIP3   OH279735   1.946   6.678  16.063  0.3721  0.5732  0.0655
19415TIP3    H179736   1.991   6.625  15.996  0.4405  0.0442  0.5206
19415TIP3    H279737   1.853   6.658  16.051  0.4871 -0.7967  1.1650
19416TIP3   OH279738   4.396   3.425  15.247  0.1320 -0.1282  0.1517
19416TIP3    H179739   4.464   3.486  15.216 -0.0455 -0.3725 -0.7330
19416TIP3    H279740   4.408   3.346  15.194 -1.0326 -0.0653 -0.2363
19417TIP3   OH279741   4.715   1.037   4.562 -0.0029  0.4464 -0.2096
19417TIP3    H179742   4.627   1.062   4.590 -0.6017  1.5455 -2.7996
19417TIP3    H279743   4.771   1.111   4.586  0.3623 -0.3846  1.7271
19418TIP3   OH279744   1.676   3.380  12.584  0.2296 -0.4188  0.3150
19418TIP3    H179745   1.643   3.420  12.665  0.9594  1.1816 -0.1299
19418TIP3    H279746   1.650   3.441  12.515  2.2154 -0.1905 -0.2932
19419TIP3   OH279747   5.464   1.693  14.842  0.0791  0.4113 -0.5789
19419TIP3    H179748   5.451   1.762  14.908 -0.8557  0.2974 -0.6251
19419TIP3    H279749   5.544   1.649  14.869  0.0616  0.7849  0.1105
19420TIP3   OH279750   5.719   3.056  12.497 -0.3746  0.0376  0.2926
19420TIP3    H179751   5.796   3.000  12.508 -0.9007 -0.9715 -0.9285
19420TIP3    H279752   5.696   3.047  12.405 -0.8136  1.8694  0.1892
19421TIP3   OH279753   4.884   4.182  15.203 -0.2019  0.1962 -0.0482
19421TIP3    H179754   4.861   4.272  15.182 -0.0282  0.2954  0.1869
19421TIP3    H279755   4.901   4.182  15.297 -3.1342 -0.6937  0.5981
19422TIP3   OH279756   5.273   1.952  14.050  0.4501  0.3086 -0.4646
19422TIP3    H179757   5.198   1.971  14.108  0.2520  2.2073 -1.2637
19422TIP3    H279758   5.233   1.919  13.970  0.5273  0.4336 -0.5548
19423TIP3   OH279759   2.120   3.954  15.478 -0.3381  0.1661  0.5844
19423TIP3    H179760   2.172   3.874  15.479 -0.5438  0.0317  0.4466
19423TIP3    H279761   2.169   4.014  15.535 -0.2130 -0.0727  0.7320
19424TIP3   OH279762   4.928   4.242   5.597  0.6393 -0.5496  0.2527
19424TIP3    H179763   4.931   4.337   5.596  1.4344 -0.5679  0.0982
19424TIP3    H279764   4.834   4.221   5.595  0.4431  0.2258 -1.6683
19425TIP3   OH279765   3.264   5.498   0.809  0.4987 -0.4315  0.4290
19425TIP3    H179766   3.315   5.577   0.825  0.4206 -0.4247  0.6475
19425TIP3    H279767   3.203   5.522   0.740  2.2446 -1.0667 -1.4284
19426TIP3   OH279768   3.744   2.679  15.318  0.2090 -0.1503 -0.4128
19426TIP3    H179769   3.707   2.591  15.308 -0.8676  0.2792 -0.2503
19426TIP3    H279770   3.791   2.676  15.402 -1.7132  0.0726  0.7142
19427TIP3   OH279771   4.280   1.270  12.442  0.0137  0.7123 -0.0636
19427TIP3    H179772   4.263   1.315  12.525 -0.7120  1.6522 -0.6990
19427TIP3    H279773   4.374   1.254  12.442 -0.0452  0.2345  1.1582
19428TIP3   OH279774   6.108   1.147  12.853 -0.6636  0.1098 -0.1320
19428TIP3    H179775   6.088   1.057  12.877  2.7366 -0.4871  1.0321
19428TIP3    H279776   6.147   1.185  12.932  0.1715  1.8409 -1.3091
19429TIP3   OH279777   5.889   3.434   0.264 -0.1214  0.0382 -0.1590
19429TIP3    H179778   5.860   3.484   0.188 -2.0188 -0.6726  0.0356
19429TIP3    H279779   5.981   3.416   0.248 -0.2204  0.8165 -1.7622
19430TIP3   OH279780   0.411   3.320  16.813  0.0357 -0.2213 -0.0048
19430TIP3    H179781   0.495   3.348  16.775 -0.2216  1.2777  0.4707
19430TIP3    H279782   0.351   3.320  16.739 -0.2533  1.8179  0.1677
19431TIP3   OH279783   1.805   1.963   4.301  0.3601  0.2531  0.2284
19431TIP3    H179784   1.820   1.976   4.207  0.4873  1.0325  0.3556
19431TIP3    H279785   1.892   1.975   4.341  1.0301 -3.1290  0.1674
19432TIP3   OH279786   2.249   6.190   1.221 -0.4432 -0.5237 -0.5337
19432TIP3    H179787   2.283   6.280   1.223 -1.6349 -0.0110 -1.4204
19432TIP3    H279788   2.297   6.148   1.150 -0.5612 -0.2697 -0.7694
19433TIP3   OH279789   4.444   3.153  14.578  0.5188 -0.0747 -0.2277
19433TIP3    H179790   4.363   3.126  14.534  0.9500 -1.0440 -0.4412
19433TIP3    H279791   4.459   3.242  14.548 -1.0341  0.5093  0.6183
19434TIP3   OH279792   3.100   3.679  16.866  0.3808  0.5845 -0.1410
19434TIP3    H179793   3.131   3.600  16.820 -3.0443 -2.0052  1.5292
19434TIP3    H279794   3.070   3.737  16.796 -2.3767 -2.1856 -1.5008
19435TIP3   OH279795   5.994   0.309   4.540  0.0292 -0.1111 -0.2489
19435TIP3    H179796   5.973   0.350   4.456 -0.9168  1.2311  0.6131
19435TIP3    H279797   6.045   0.375   4.587 -0.5458 -0.3448  0.7278
19436TIP3   OH279798   4.909   3.766  16.109 -0.3636 -0.1280 -0.0048
19436TIP3    H179799   4.897   3.848  16.060 -0.7385 -0.4935 -0.5327
19436TIP3    H279800   4.846   3.705  16.070 -0.4883 -0.5019  0.7691
19437TIP3   OH279801   2.135   0.756  15.253  0.2249  0.1323 -0.3644
19437TIP3    H179802   2.089   0.780  15.333 -0.4948  1.5444 -1.1632
19437TIP3    H279803   2.068   0.761  15.184  1.0158 -0.2004 -1.1879
19438TIP3   OH279804   4.309   5.031   1.096  0.4696  0.1782  0.4244
19438TIP3    H179805   4.248   4.972   1.051  0.9020  0.5885 -0.7465
19438TIP3    H279806   4.321   4.992   1.183 -1.0071 -0.2162  0.4835
19439TIP3   OH279807   5.478   2.278   4.445  1.0338  0.0835 -0.4951
19439TIP3    H179808   5.444   2.330   4.518  0.4518  0.3661 -0.9526
19439TIP3    H279809   5.569   2.262   4.467  0.4015 -1.4920  1.2461
19440TIP3   OH279810   0.647   2.366  12.420  0.7380  0.0717  0.5760
19440TIP3    H179811   0.704   2.395  12.349  3.9551 -0.9256  2.5344
19440TIP3    H279812   0.672   2.422  12.494 -0.1667 -1.0446  1.7556
19441TIP3   OH279813   0.406   2.026   4.101  0.1320 -0.0561  0.4520
19441TIP3    H179814   0.379   2.007   4.011 -1.0278  2.3637  0.2141
19441TIP3    H279815   0.497   1.997   4.105 -0.3866 -2.0814 -0.8513
19442TIP3   OH279816   2.974   2.932   0.173  0.2341  0.5577 -0.2669
19442TIP3    H179817   2.905   2.929   0.106 -0.5381  0.0258  0.5322
19442TIP3    H279818   3.043   2.876   0.138  0.6402  1.7248 -1.4497
19443TIP3   OH279819   1.551   1.773  17.219  0.1154  0.0789  0.0435
19443TIP3    H179820   1.460   1.793  17.243  0.6678 -1.0355  3.6492
19443TIP3    H279821   1.592   1.859  17.208 -1.1656  0.6079 -0.7934
19444TIP3   OH279822   6.616   1.047  12.686 -0.0973  0.4371  0.6117
19444TIP3    H179823   6.524   1.072  12.695 -0.3478 -0.5950  1.1088
19444TIP3    H279824   6.618   0.954  12.712  0.5314 -0.4940 -2.3530
19445TIP3   OH279825   0.385   4.274  15.937  0.1160 -0.1865  0.0792
19445TIP3    H179826   0.334   4.216  15.993  1.0252  1.0059  2.2939
19445TIP3    H279827   0.331   4.353  15.929 -0.0495 -0.3771 -0.8754
19446TIP3   OH279828   4.194   1.595  10.820  0.4067 -0.1930  0.0652
19446TIP3    H179829   4.187   1.584  10.915 -0.4452  0.1862  0.0574
19446TIP3    H279830   4.286   1.577  10.800  0.9426  1.1669  1.1667
19447TIP3   OH279831   5.400   4.313  13.576 -0.6562  0.1256  0.0887
19447TIP3    H179832   5.339   4.371  13.532 -0.8066 -1.0878 -1.4017
19447TIP3    H279833   5.403   4.234  13.521  1.0249 -0.4920  0.9628
19448TIP3   OH279834   6.729   5.657  10.762  0.3775  0.2821  0.2391
19448TIP3    H179835   6.802   5.656  10.700 -0.0709 -2.3604 -0.3593
19448TIP3    H279836   6.655   5.691  10.711  0.0008 -1.9127 -0.7801
19449TIP3   OH279837   1.499   2.387  15.588  0.0566 -0.5746  0.2626
19449TIP3    H179838   1.454   2.461  15.629  0.1543  0.5012 -1.5272
19449TIP3    H279839   1.546   2.424  15.514  1.3677 -2.1973  0.2290
19450TIP3   OH279840   1.868   6.401   3.074  0.6432 -0.4305  0.4342
19450TIP3    H179841   1.872   6.381   2.980 -0.9600 -1.3627  0.5255
19450TIP3    H279842   1.954   6.438   3.094  0.1704  2.3386 -1.9426
19451TIP3   OH279843   3.459   3.999  14.022  0.4772 -0.4353 -0.3676
19451TIP3    H179844   3.467   4.078  13.968  2.4401 -0.5110 -0.2585
19451TIP3    H279845   3.469   4.031  14.111  0.8325 -0.7298 -0.2982
19452TIP3   OH279846   4.049   4.955   1.428 -0.1925 -0.7126 -0.7620
19452TIP3    H179847   4.021   4.900   1.502 -0.8343  0.1886 -0.3179
19452TIP3    H279848   4.127   4.911   1.394  0.6322 -0.7133  0.9871
19453TIP3   OH279849   1.246   6.740  14.960  0.0943 -0.1738  1.1123
19453TIP3    H179850   1.249   6.825  14.916 -0.4910 -0.4166  0.5799
19453TIP3    H279851   1.319   6.691  14.922  0.4708  0.1098  1.4662
19454TIP3   OH279852   1.068   6.694  16.017 -0.2780 -0.4154  0.1969
19454TIP3    H179853   1.152   6.727  15.986 -1.1185  2.3686  0.6191
19454TIP3    H279854   1.087   6.657  16.103  0.4282  0.8248  0.5962
19455TIP3   OH279855   4.841   0.743   4.467 -0.2428  0.3594  0.4443
19455TIP3    H179856   4.859   0.791   4.547 -2.5183  2.3741 -0.1234
19455TIP3    H279857   4.913   0.764   4.408 -0.1203  1.3519  0.9418
19456TIP3   OH279858   3.033   5.939  15.241  0.1259  0.9755  0.2279
19456TIP3    H179859   3.040   5.935  15.146  0.7271 -0.8673  0.3151
19456TIP3    H279860   2.956   5.886  15.262  2.7516 -2.9659  0.9696
19457TIP3   OH279861   0.125   5.625  12.789 -0.2577 -0.6642 -0.4514
19457TIP3    H179862   0.200   5.574  12.820  0.1590  0.2334  0.0584
19457TIP3    H279863   0.079   5.567  12.729  0.6707 -1.3433 -0.5170
19458TIP3   OH279864   3.627   2.534   5.272 -0.4827  0.1657 -0.3817
19458TIP3    H179865   3.648   2.512   5.363 -1.2073 -0.5050 -0.3707
19458TIP3    H279866   3.712   2.530   5.227 -0.1225  0.4715  0.2469
19459TIP3   OH279867   1.237   1.337   3.100 -0.0389  0.1264  0.5987
19459TIP3    H179868   1.266   1.310   3.187 -2.5146  0.7660  1.7148
19459TIP3    H279869   1.194   1.260   3.064 -1.8355  0.7376  1.3241
19460TIP3   OH279870   5.932   4.172  15.804 -0.6826  0.4014 -0.0641
19460TIP3    H179871   5.903   4.088  15.770 -1.7138  0.3076  0.9833
19460TIP3    H279872   6.026   4.161  15.817 -0.7063 -0.3819 -0.5019
19461TIP3   OH279873   5.933   0.194   0.758 -0.1180  0.3887 -0.4416
19461TIP3    H179874   5.956   0.240   0.839 -1.8131  0.6119 -0.0510
19461TIP3    H279875   5.917   0.263   0.695 -1.7653  0.3650 -0.1039
19462TIP3   OH279876   1.793   5.900  13.156 -0.1964  0.1864  0.1436
19462TIP3    H179877   1.711   5.944  13.178 -0.1864  2.3134 -3.3667
19462TIP3    H279878   1.777   5.808  13.179 -2.4701  0.9921  2.2060
19463TIP3   OH279879   2.866   5.927  11.036 -0.5397  0.1588 -0.0027
19463TIP3    H179880   2.859   5.831  11.038 -1.3792  0.1168 -2.3260
19463TIP3    H279881   2.805   5.957  11.103 -0.6272 -0.9023  0.4199
19464TIP3   OH279882   3.407   6.475   4.586 -0.5950  0.4233 -0.7329
19464TIP3    H179883   3.487   6.476   4.638 -1.4444 -0.9653  0.6660
19464TIP3    H279884   3.421   6.543   4.520  1.5279  0.5365 -0.2344
19465TIP3   OH279885   2.010   2.288  13.139 -0.0586 -0.1153 -0.0025
19465TIP3    H179886   1.946   2.220  13.160 -1.1496  0.4688 -1.2750
19465TIP3    H279887   2.062   2.298  13.219 -0.4560 -1.7937  0.5029
19466TIP3   OH279888   4.378   6.018  16.801 -0.5050 -0.0793  0.5146
19466TIP3    H179889   4.377   6.047  16.709 -1.7615  0.0217  0.5375
19466TIP3    H279890   4.426   5.935  16.799  1.1109  0.8345  0.0776
19467TIP3   OH279891   2.429   3.917  13.973 -0.4130 -0.4411  0.0168
19467TIP3    H179892   2.471   3.864  14.040 -0.3190 -1.5354 -0.8760
19467TIP3    H279893   2.432   3.863  13.894 -1.4628  0.3755 -0.6151
19468TIP3   OH279894   4.101   6.615  13.754 -0.1524  0.4209 -0.6753
19468TIP3    H179895   4.155   6.675  13.703 -0.7096  0.1769 -1.5789
19468TIP3    H279896   4.110   6.530  13.709  0.9807 -0.3144  0.8331
19469TIP3   OH279897   3.459   1.234   4.898  0.3059 -0.0928 -0.1730
19469TIP3    H179898   3.423   1.199   4.980  1.8357 -1.7435 -0.1518
19469TIP3    H279899   3.453   1.329   4.908  0.2219 -0.2617  1.7575
19470TIP3   OH279900   3.813   0.487  14.013 -0.0454 -0.2926  0.0383
19470TIP3    H179901   3.870   0.474  14.088 -0.2064 -1.8670 -0.0703
19470TIP3    H279902   3.870   0.520  13.944  0.4589 -0.5501  0.3294
19471TIP3   OH279903   3.951   0.466  11.218  0.6444 -0.2252 -0.2288
19471TIP3    H179904   3.914   0.497  11.136 -0.0561 -0.7669 -0.1236
19471TIP3    H279905   3.876   0.456  11.277  1.2330  1.0698  0.8007
19472TIP3   OH279906   0.825   2.625  14.981  0.4468  0.4388 -0.5721
19472TIP3    H179907   0.915   2.659  14.977  1.0068 -1.0300 -0.8966
19472TIP3    H279908   0.794   2.649  15.069  2.2350 -1.5727  0.7109
19473TIP3   OH279909   4.981   5.994   0.902 -0.3420 -0.1859 -0.0860
19473TIP3    H179910   4.922   5.999   0.826 -0.0101 -0.8547 -0.3887
19473TIP3    H279911   4.942   6.054   0.965 -0.3378  0.8015 -0.9803
19474TIP3   OH279912   0.764   5.402  14.868 -0.4741 -0.1262  0.0327
19474TIP3    H179913   0.723   5.486  14.889  0.0526  0.1255  0.0593
19474TIP3    H279914   0.825   5.386  14.940  1.1904  0.6452 -1.1538
19475TIP3   OH279915   5.273   3.877   5.835  0.6807  0.8460 -0.5106
19475TIP3    H179916   5.204   3.942   5.848 -0.6043 -0.2580 -1.5128
19475TIP3    H279917   5.314   3.903   5.753 -0.7745 -0.3454 -1.6739
19476TIP3   OH279918   0.584   0.610  14.562 -0.1276  0.1329 -0.1231
19476TIP3    H179919   0.501   0.607  14.514 -1.0847  0.0822  1.4666
19476TIP3    H279920   0.616   0.699  14.550 -0.5826  0.2518 -0.4654
19477TIP3   OH279921   2.606   0.370   0.093 -0.1154 -0.0735  0.1545
19477TIP3    H179922   2.554   0.314   0.035  0.3712 -0.5067  0.1306
19477TIP3    H279923   2.688   0.323   0.106  0.0440  0.3248  0.6711
19478TIP3   OH279924   0.996   4.589   2.403  0.3002 -0.4785 -0.4166
19478TIP3    H179925   1.026   4.673   2.367 -0.0488 -1.0834 -2.2498
19478TIP3    H279926   0.910   4.608   2.439  0.5079  0.0907 -0.2092
19479TIP3   OH279927   1.208   5.878  16.887  0.3276  0.2014 -0.3603
19479TIP3    H179928   1.228   5.861  16.979 -0.5000  0.5168 -0.1107
19479TIP3    H279929   1.163   5.963  16.888 -1.7554 -0.8295 -0.7549
19480TIP3   OH279930   3.531   0.033  12.830 -0.1561 -0.3509  0.4278
19480TIP3    H179931   3.436   0.023  12.839  0.0251 -0.9859  1.8472
19480TIP3    H279932   3.560  -0.048  12.788 -0.3270  0.2016 -0.7876
19481TIP3   OH279933   2.327   2.403   5.685  0.7045 -0.1311  0.0596
19481TIP3    H179934   2.301   2.404   5.593 -0.0129  0.6151  0.2584
19481TIP3    H279935   2.398   2.466   5.690  0.9023 -0.3439 -0.0182
19482TIP3   OH279936   5.925   2.904   0.114  0.2603  0.4692  0.0493
19482TIP3    H179937   6.019   2.918   0.117  0.1977  0.8222  2.4845
19482TIP3    H279938   5.889   2.971   0.172 -1.4677  0.1417 -0.5883
19483TIP3   OH279939   1.722   0.781   3.820  0.1891 -0.2083  0.6704
19483TIP3    H179940   1.746   0.831   3.742 -0.1921 -1.7466 -0.4637
19483TIP3    H279941   1.721   0.847   3.890  1.0368  1.1202 -0.4945
19484TIP3   OH279942   2.094   5.931   2.639  0.3135 -0.5470  0.0008
19484TIP3    H179943   2.020   5.883   2.676  0.1967 -2.3573 -2.3647
19484TIP3    H279944   2.054   5.995   2.580  0.5909  0.4263  0.8295
19485TIP3   OH279945   3.051   0.342  14.263 -0.2272 -0.0754  0.1804
19485TIP3    H179946   2.989   0.269  14.269 -0.2851 -0.0490 -0.0847
19485TIP3    H279947   3.042   0.374  14.173  1.0708 -0.8558 -0.2496
19486TIP3   OH279948   1.176   5.594   5.482 -0.5415  0.2414  0.2481
19486TIP3    H179949   1.237   5.649   5.532 -0.8905  0.8955 -0.0222
19486TIP3    H279950   1.222   5.575   5.400  0.1636 -1.1083  0.9253
19487TIP3   OH279951   0.025   3.308  15.327 -0.2570  0.4088  0.6203
19487TIP3    H179952   0.036   3.216  15.348 -1.0295 -0.8097 -3.3873
19487TIP3    H279953   0.084   3.323  15.253 -2.3346  2.2325 -0.8010
19488TIP3   OH279954   4.027   5.582   3.886  0.3018  0.4435  0.7994
19488TIP3    H179955   4.060   5.513   3.944 -0.2001 -2.4415 -2.0794
19488TIP3    H279956   4.099   5.599   3.825 -1.1326 -1.2411 -1.5380
19489TIP3   OH279957   0.181   2.350  14.546  0.3105 -0.0219  0.3070
19489TIP3    H179958   0.264   2.387  14.516  0.3003  1.5203  1.9936
19489TIP3    H279959   0.169   2.386  14.633 -4.5228  3.9650 -1.5515
19490TIP3   OH279960   4.198   0.821  16.083  0.3418 -0.6781 -0.2972
19490TIP3    H179961   4.165   0.894  16.030  0.6124 -0.6201 -0.3865
19490TIP3    H279962   4.138   0.816  16.157  2.2675  1.9321  1.6317
19491TIP3   OH279963   3.631   2.312  13.346  0.3539 -0.1735  0.3082
19491TIP3    H179964   3.637   2.407  13.357  0.7231  0.0515 -1.4456
19491TIP3    H279965   3.538   2.292  13.350  0.2783  0.2574  0.7070
19492TIP3   OH279966   6.518   5.310   3.545 -0.5621 -0.4269  0.2308
19492TIP3    H179967   6.595   5.260   3.519  0.1913  0.3259  0.9917
19492TIP3    H279968   6.476   5.256   3.612 -0.4041 -0.5694  0.2149
19493TIP3   OH279969   4.264   2.828   5.132 -0.2034  0.3159  0.4059
19493TIP3    H179970   4.178   2.808   5.169 -0.2566  1.1258  0.7432
19493TIP3    H279971   4.307   2.743   5.124 -1.1279 -0.1321 -0.0165
19494TIP3   OH279972   3.728   6.687  16.872  0.2050 -0.3820  0.7451
19494TIP3    H179973   3.700   6.754  16.810  0.5899 -0.2735  0.6857
19494TIP3    H279974   3.778   6.625  16.820  0.2733 -0.4501  0.8925
19495TIP3   OH279975   0.449   4.250  15.473 -0.5441  0.1666 -0.0845
19495TIP3    H179976   0.382   4.280  15.412  0.3709  0.0549 -1.1642
19495TIP3    H279977   0.506   4.325  15.485 -0.1433 -0.1263 -0.1627
19496TIP3   OH279978   1.025   0.865  13.460 -0.5094  0.4902  0.2222
19496TIP3    H179979   0.972   0.943  13.445 -0.8716  0.0136 -1.1895
19496TIP3    H279980   0.962   0.794  13.470 -0.2283 -0.2314 -2.3348
19497TIP3   OH279981   1.949   3.590   0.672 -0.5725  0.3676 -0.1126
19497TIP3    H179982   2.001   3.518   0.708 -2.1586 -0.8318 -0.0847
19497TIP3    H279983   1.959   3.582   0.577  1.0137  1.5158 -0.0716
19498TIP3   OH279984   1.602   2.660  16.247 -0.1170  0.1604 -0.7875
19498TIP3    H179985   1.605   2.695  16.336  1.6527 -0.4961 -0.5611
19498TIP3    H279986   1.510   2.671  16.221 -0.9793 -0.7438  1.5707
19499TIP3   OH279987   5.904   0.146   5.745 -0.5511  0.0316 -0.0676
19499TIP3    H179988   5.923   0.162   5.837  1.0043 -0.8284 -0.2135
19499TIP3    H279989   5.989   0.129   5.705 -1.0363  1.7279 -1.9553
19500TIP3   OH279990   2.904   0.897  12.399  0.1537 -0.3589  0.4840
19500TIP3    H179991   2.848   0.968  12.430  1.2589  0.4664  0.6547
19500TIP3    H279992   2.844   0.825  12.381 -0.9995  0.6080  0.3285
19501TIP3   OH279993   3.593   3.790  14.861  0.9200  0.2835 -0.4926
19501TIP3    H179994   3.673   3.792  14.914  0.0388 -0.2034  0.9188
19501TIP3    H279995   3.523   3.774  14.924 -0.1782 -0.4865 -1.8499
19502TIP3   OH279996   2.459   4.263  16.757  0.0914  0.3824 -0.5028
19502TIP3    H179997   2.381   4.264  16.812  0.1434  1.2425 -0.4280
19502TIP3    H279998   2.525   4.216  16.808 -0.5992 -1.1178 -0.9120
19503TIP3   OH279999   5.817   4.063   0.600  0.4587 -0.1282 -0.2545
19503TIP3    H180000   5.885   4.112   0.645  0.0270  0.2940 -0.0521
19503TIP3    H280001   5.824   4.090   0.508 -1.3395  2.2508  0.1958
19504TIP3   OH280002   3.395   2.027   0.894  0.4230  0.2239 -0.5900
19504TIP3    H180003   3.361   1.956   0.949 -3.1423 -0.3351 -3.1206
19504TIP3    H280004   3.395   2.104   0.951 -1.2947 -0.6763  0.7259
19505TIP3   OH280005   1.639   5.996  10.860 -0.2656  0.2624  0.3854
19505TIP3    H180006   1.563   5.954  10.901 -0.3008 -2.0309 -1.7999
19505TIP3    H280007   1.607   6.026  10.775  0.9845  0.2398 -0.1119
19506TIP3   OH280008   3.335   0.674   5.145 -0.5255  0.0524  0.8785
19506TIP3    H180009   3.241   0.664   5.126 -0.1552 -1.7156 -0.3088
19506TIP3    H280010   3.342   0.664   5.239 -1.4583 -0.7624  0.8831
19507TIP3   OH280011   0.949   6.364   6.085 -0.1505 -0.2622 -0.3426
19507TIP3    H180012   0.885   6.432   6.108  0.0948  0.6832 -2.2446
19507TIP3    H280013   1.029   6.413   6.065 -0.5264 -0.7904 -3.7801
19508TIP3   OH280014   5.872   6.267  16.677  0.0562  0.4102 -0.1544
19508TIP3    H180015   5.875   6.263  16.772  0.6247 -0.6108 -0.2022
19508TIP3    H280016   5.811   6.339  16.658 -1.5715 -0.5896  0.9716
19509TIP3   OH280017   2.180   5.205  11.036 -0.0366 -0.8205 -0.4290
19509TIP3    H180018   2.243   5.136  11.015  1.0611  0.5673 -1.9997
19509TIP3    H280019   2.099   5.158  11.054  0.9913 -2.5750 -0.1297
19510TIP3   OH280020   1.220   6.108   1.811  0.3547  0.1580 -0.2734
19510TIP3    H180021   1.291   6.051   1.782  0.5700  1.0156 -1.4848
19510TIP3    H280022   1.140   6.064   1.783  0.5310  0.5739 -1.4795
19511TIP3   OH280023   1.107   3.120  15.610  0.4315 -0.0598  0.3100
19511TIP3    H180024   1.162   3.121  15.532  1.7860 -0.2254  1.2147
19511TIP3    H280025   1.017   3.124  15.577  0.9761  0.1181 -1.2277
19512TIP3   OH280026   0.539   6.744  15.103  0.0185 -0.3929 -0.3998
19512TIP3    H180027   0.468   6.796  15.068  0.5418  1.4919  1.1550
19512TIP3    H280028   0.499   6.660  15.126 -0.6277 -1.2113 -3.9013
19513TIP3   OH280029   6.703   0.445  16.340 -0.2929 -0.7836  0.8705
19513TIP3    H180030   6.732   0.505  16.408  0.3759 -0.4976  0.3450
19513TIP3    H280031   6.752   0.364  16.357  2.1951  0.1919 -0.9697
19514TIP3   OH280032   4.525   0.520  11.550  0.1033 -0.2706 -0.5062
19514TIP3    H180033   4.459   0.582  11.584  0.0532 -0.4916 -0.1972
19514TIP3    H280034   4.576   0.495  11.627  0.1002 -0.6443 -0.6233
19515TIP3   OH280035   0.918   5.743  15.186  0.1350 -0.2218 -0.7251
19515TIP3    H180036   0.961   5.814  15.138  1.2496 -0.2714  0.1837
19515TIP3    H280037   0.874   5.786  15.259  0.7700 -0.4582 -0.1999
19516TIP3   OH280038   2.382   1.553  12.232  0.5258 -0.2811  0.0807
19516TIP3    H180039   2.288   1.556  12.251  0.5792 -0.1241  0.3209
19516TIP3    H280040   2.408   1.464  12.256  0.7665  0.1602  1.5931
19517TIP3   OH280041   2.833   0.581  14.451 -0.5962 -0.2462  0.6354
19517TIP3    H180042   2.857   0.641  14.380 -0.2569 -1.1853 -0.0604
19517TIP3    H280043   2.738   0.592  14.460 -0.3809  1.3197  1.4048
19518TIP3   OH280044   6.532   6.201   2.270  0.0511  0.1912  0.0213
19518TIP3    H180045   6.534   6.227   2.362  1.5384 -0.6144  0.2515
19518TIP3    H280046   6.526   6.283   2.222  0.7650  0.7322  0.8197
19519TIP3   OH280047   5.314   4.085   1.566 -0.9258  0.0880  0.3778
19519TIP3    H180048   5.271   4.170   1.558 -1.0476  0.0823  0.9093
19519TIP3    H280049   5.358   4.089   1.651 -0.2071 -0.0567  0.0230
19520TIP3   OH280050   5.003   2.519   0.631  0.7276  0.4553 -0.0246
19520TIP3    H180051   4.944   2.444   0.637 -0.3649  1.3462  0.7512
19520TIP3    H280052   5.015   2.533   0.537  0.8007 -0.5643 -0.1757
19521TIP3   OH280053   3.951   6.380   1.979 -0.4157 -0.3351  0.2183
19521TIP3    H180054   3.995   6.354   1.898  0.8974  0.9222  0.4840
19521TIP3    H280055   3.984   6.468   1.997  0.7178 -1.2335  3.0887
19522TIP3   OH280056   0.833   5.571   4.871  0.0368  0.5904  0.4821
19522TIP3    H180057   0.759   5.626   4.896 -0.5886 -0.5159  1.1381
19522TIP3    H280058   0.876   5.548   4.954 -0.2293 -0.6073  0.3053
19523TIP3   OH280059   0.321   0.767   4.161  0.1487  0.4936  0.0958
19523TIP3    H180060   0.350   0.764   4.070 -0.3234  2.4549 -0.1733
19523TIP3    H280061   0.228   0.747   4.156 -0.0300  1.2887  0.0275
19524TIP3   OH280062   4.895   3.475   2.374 -0.4666 -1.1228 -0.1724
19524TIP3    H180063   4.817   3.473   2.429 -1.3256 -1.5406 -1.3470
19524TIP3    H280064   4.864   3.510   2.290  0.8201 -0.3805 -0.3607
19525TIP3   OH280065   5.215   6.720   0.983 -0.4519 -0.2622  0.1855
19525TIP3    H180066   5.259   6.640   1.011  0.0920 -0.0116  0.0542
19525TIP3    H280067   5.128   6.715   1.024 -0.7681 -1.3505 -0.5631
19526TIP3   OH280068   1.739   5.280  12.932  0.3776  0.1968  0.0475
19526TIP3    H180069   1.682   5.270  12.856 -0.8531  0.7145  0.8625
19526TIP3    H280070   1.736   5.374  12.952 -0.9249 -0.1699  1.8801
19527TIP3   OH280071   2.031   1.952   0.686 -0.4921 -0.0906  0.0850
19527TIP3    H180072   2.044   1.874   0.740  2.3814  0.0778 -0.1877
19527TIP3    H280073   2.014   1.918   0.598 -1.7117 -0.3726  0.4174
19528TIP3   OH280074   1.825   1.257   5.674  0.2325  0.6366 -0.3949
19528TIP3    H180075   1.789   1.248   5.762  1.6112 -0.9755  0.0624
19528TIP3    H280076   1.864   1.344   5.672  2.3002 -0.1640  1.4688
19529TIP3   OH280077   5.233   4.529   0.615 -0.0373 -0.1735 -0.1024
19529TIP3    H180078   5.303   4.505   0.555 -0.0441  0.5771 -0.4264
19529TIP3    H280079   5.175   4.453   0.616 -1.8736  0.9315 -3.7209
19530TIP3   OH280080   5.186   4.016  11.475  0.2940  0.7036  0.3705
19530TIP3    H180081   5.201   3.948  11.409 -1.1187  0.7350 -0.0262
19530TIP3    H280082   5.204   4.098  11.429  0.8680  0.6518  0.5034
19531TIP3   OH280083   1.515   5.500  13.628 -0.0460  0.1596 -0.0295
19531TIP3    H180084   1.522   5.421  13.575  0.2512  0.8504 -1.0439
19531TIP3    H280085   1.420   5.512  13.639 -0.0928 -1.1320  1.4033
19532TIP3   OH280086   2.927   2.404  16.541  0.5660  0.3217 -0.1902
19532TIP3    H180087   2.968   2.481  16.580  2.3779 -0.7772  0.1841
19532TIP3    H280088   2.914   2.344  16.614  0.2186 -0.1817 -0.6534
19533TIP3   OH280089   5.113   6.794  11.908 -0.8657 -0.0241 -0.2247
19533TIP3    H180090   5.077   6.881  11.890  0.4268  0.8904  1.3250
19533TIP3    H280091   5.036   6.738  11.916 -1.7374  0.9801 -1.0986
19534TIP3   OH280092   4.632   4.847   4.023 -0.4506 -0.1761  0.0071
19534TIP3    H180093   4.641   4.805   4.108  1.2605 -1.2252 -0.6267
19534TIP3    H280094   4.722   4.858   3.993 -1.0043  0.5557 -1.4805
19535TIP3   OH280095   6.525   1.311   6.469 -0.5885  0.5366 -0.7260
19535TIP3    H180096   6.610   1.273   6.490  0.0804  1.9806 -0.7075
19535TIP3    H280097   6.461   1.248   6.503  0.4658 -0.1871 -0.0407
19536TIP3   OH280098   1.861   2.722  16.081 -0.1728 -0.5016 -0.8738
19536TIP3    H180099   1.780   2.722  16.131  1.3699  0.5228  1.8295
19536TIP3    H280100   1.901   2.807  16.098  2.8554 -1.9993  0.4179
19537TIP3   OH280101   5.289   0.148  12.906 -0.2021  0.0527  0.2296
19537TIP3    H180102   5.323   0.132  12.819 -0.3239  0.4189  0.1145
19537TIP3    H280103   5.364   0.177  12.957  0.0786 -1.0908  0.5070
19538TIP3   OH280104   3.430   2.829   2.139  0.3287 -0.1755 -0.1912
19538TIP3    H180105   3.341   2.862   2.155  0.1395  0.4000 -2.1445
19538TIP3    H280106   3.470   2.894   2.083  1.3419 -1.3534 -0.8941
19539TIP3   OH280107   3.990   5.955   1.857 -0.4926 -0.3181  0.1095
19539TIP3    H180108   4.064   5.959   1.797 -0.2216 -0.1456  0.4504
19539TIP3    H280109   3.923   5.906   1.809  0.2005 -1.3658  0.1773
19540TIP3   OH280110   1.590   1.611   3.909  0.1240 -0.1054  0.4812
19540TIP3    H180111   1.663   1.673   3.900  0.2960  0.0905  2.5970
19540TIP3    H280112   1.541   1.643   3.985 -0.1048 -2.2583  1.3040
19541TIP3   OH280113   6.753   2.907   5.029  0.2405  0.6961  0.2787
19541TIP3    H180114   6.673   2.895   4.978  0.3896 -2.2356  0.5738
19541TIP3    H280115   6.750   2.837   5.094  2.1620  1.6872  1.5009
19542TIP3   OH280116   5.333   5.881   2.181  0.1989 -0.1797  0.0111
19542TIP3    H180117   5.298   5.795   2.160  0.3822 -0.1646 -0.3555
19542TIP3    H280118   5.267   5.921   2.238 -0.0833 -0.3904 -0.1690
19543TIP3   OH280119   0.506   0.225   6.838  0.0218  0.3724  0.3788
19543TIP3    H180120   0.413   0.209   6.847  0.5273 -2.5252  1.4131
19543TIP3    H280121   0.512   0.314   6.803 -3.0045  2.2162  3.8618
19544TIP3   OH280122   3.452   3.735   0.616 -0.1622  0.0765  0.0883
19544TIP3    H180123   3.529   3.777   0.653  2.0978 -0.8840 -3.1324
19544TIP3    H280124   3.421   3.796   0.549 -0.6717 -0.6449 -0.3488
19545TIP3   OH280125   6.820   5.341   2.497  0.1741 -0.1730  1.1636
19545TIP3    H180126   6.853   5.422   2.458 -2.2565  0.2399 -0.2105
19545TIP3    H280127   6.831   5.353   2.591  1.7410  0.8520  0.8848
19546TIP3   OH280128   3.284   2.956   0.421  0.3504  0.1022 -0.3529
19546TIP3    H180129   3.279   3.036   0.473  0.8858 -0.1822  0.1495
19546TIP3    H280130   3.196   2.919   0.426  0.4152  0.0439  0.4108
19547TIP3   OH280131   6.061   5.337   4.422 -0.2241 -0.3639  0.3718
19547TIP3    H180132   5.978   5.382   4.405 -0.6033 -0.1613  2.4381
19547TIP3    H280133   6.124   5.379   4.363 -1.3749  0.1416 -0.5370
19548TIP3   OH280134   0.930   6.181   4.017  0.0947 -0.1935  0.6636
19548TIP3    H180135   0.961   6.098   3.980  0.0988  0.1249 -0.0804
19548TIP3    H280136   0.886   6.157   4.098 -0.4706 -0.9948  0.1315
19549TIP3   OH280137   0.273   3.873   3.552  0.3626 -0.0549 -0.2973
19549TIP3    H180138   0.345   3.890   3.613 -0.6152 -0.8310  1.1348
19549TIP3    H280139   0.233   3.959   3.538  0.2767  0.0691  0.6188
19550TIP3   OH280140   0.594   2.915   4.386 -0.0331  0.0353 -0.1291
19550TIP3    H180141   0.566   3.004   4.366  0.4351  0.0888 -0.5735
19550TIP3    H280142   0.651   2.924   4.462  0.7176  0.2293 -0.7062
19551TIP3   OH280143   4.821   6.041   2.340  0.1135 -0.5627  0.7256
19551TIP3    H180144   4.864   5.965   2.301  1.1114  0.4410 -0.2032
19551TIP3    H280145   4.802   6.099   2.266  2.5150  1.6466  1.6714
19552TIP3   OH280146   4.407   0.485  13.593 -0.0810  0.7111 -0.2262
19552TIP3    H180147   4.462   0.534  13.654 -1.7013  1.4706  0.6719
19552TIP3    H280148   4.350   0.550  13.552 -2.6610 -0.3640  1.3820
19553TIP3   OH280149   0.933   3.101  15.391 -0.5703  0.0200 -0.0305
19553TIP3    H180150   0.979   3.156  15.329 -0.6350  1.2315  0.9650
19553TIP3    H280151   0.842   3.103  15.362 -0.8214  1.5911  0.7726
19554TIP3   OH280152   0.396   1.957  12.609 -0.0754 -0.1258 -0.1125
19554TIP3    H180153   0.421   1.930  12.697  1.9852  0.9544 -0.3113
19554TIP3    H280154   0.339   2.033  12.622  1.4158  0.9631  0.3093
19555TIP3   OH280155   4.003   5.050   4.429  0.6347  0.2263  0.0853
19555TIP3    H180156   3.985   4.973   4.482 -0.1913 -0.9004 -1.7242
19555TIP3    H280157   3.923   5.102   4.434 -0.1991 -0.8304 -1.5286
19556TIP3   OH280158   4.251   3.381  13.862 -0.0417 -0.1454  0.3083
19556TIP3    H180159   4.313   3.376  13.789 -0.5007 -1.0303 -0.0445
19556TIP3    H280160   4.231   3.289  13.882 -1.2353  0.1272  0.4113
19557TIP3   OH280161   3.390   1.799   4.561  0.5630  0.0082  0.2580
19557TIP3    H180162   3.379   1.893   4.543  3.4271  0.3562 -0.2008
19557TIP3    H280163   3.359   1.788   4.650 -0.2734  1.2906  0.1537
19558TIP3   OH280164   1.367   0.655  13.031 -0.5832 -0.0087 -0.1598
19558TIP3    H180165   1.390   0.635  12.940 -0.5051 -0.1334 -0.1134
19558TIP3    H280166   1.434   0.717  13.060 -0.4992 -0.1137 -0.1288
19559TIP3   OH280167   6.790   3.223  16.065  0.0049  0.7844 -0.2287
19559TIP3    H180168   6.749   3.306  16.088  0.2452  1.4593 -2.0641
19559TIP3    H280169   6.739   3.191  15.990  0.7695 -0.0065 -0.4267
19560TIP3   OH280170   5.370   1.217  14.165 -0.3774  0.0488  0.4044
19560TIP3    H180171   5.328   1.246  14.084  0.9547 -2.3716 -1.2506
19560TIP3    H280172   5.343   1.283  14.230 -3.2170  0.9254 -1.4539
19561TIP3   OH280173   6.123   2.857   1.594  0.0785  0.4399  0.2388
19561TIP3    H180174   6.037   2.879   1.629  0.3205  2.9565 -0.5861
19561TIP3    H280175   6.185   2.897   1.656  0.5611  1.5942 -0.9504
19562TIP3   OH280176   6.276   6.236   2.850 -0.0377  0.2255 -0.2494
19562TIP3    H180177   6.246   6.154   2.889 -0.8586 -0.5188 -2.2687
19562TIP3    H280178   6.363   6.216   2.815 -0.9741 -0.4499 -2.3938
19563TIP3   OH280179   0.582   3.168   3.157  0.1124  0.1009  0.0073
19563TIP3    H180180   0.551   3.107   3.225 -0.3948  0.3826  0.0335
19563TIP3    H280181   0.620   3.240   3.206 -0.8534  0.6208  0.0180
19564TIP3   OH280182   5.730   1.999   4.684  0.7251  0.3463 -0.3655
19564TIP3    H180183   5.656   1.940   4.667 -0.3626  1.6471 -0.3499
19564TIP3    H280184   5.767   2.017   4.597 -0.5500  1.6035 -0.6984
19565TIP3   OH280185   3.317   4.049  13.649  0.0685 -0.0931 -0.2668
19565TIP3    H180186   3.315   4.051  13.553 -0.1056  0.5063 -0.2582
19565TIP3    H280187   3.226   4.036  13.674  0.2091 -0.9516 -0.1869
19566TIP3   OH280188   1.724   6.721   0.077  0.1033 -0.0581  0.5947
19566TIP3    H180189   1.642   6.674   0.093  1.3753 -2.2529  1.0450
19566TIP3    H280190   1.779   6.699   0.152  1.6214  0.1300 -0.4267
19567TIP3   OH280191   4.612   6.450  13.436 -0.4936  0.0061  0.0964
19567TIP3    H180192   4.664   6.521  13.475 -0.7984  0.6975 -0.7298
19567TIP3    H280193   4.677   6.392  13.396 -0.3325  0.8105 -0.8397
19568TIP3   OH280194   3.521   6.713   1.829  0.1755  0.6893 -0.0138
19568TIP3    H180195   3.458   6.712   1.757  0.2017 -1.1662 -0.0583
19568TIP3    H280196   3.578   6.637   1.811  1.2358  1.2119  1.0444
19569TIP3   OH280197   4.075   2.418   5.001  0.2249 -0.3983  0.2579
19569TIP3    H180198   4.129   2.495   5.020  1.0353 -1.3648  2.1718
19569TIP3    H280199   3.986   2.444   5.026  0.1487  0.4830 -0.8485
19570TIP3   OH280200   0.568   6.017   1.165 -0.0937 -0.0474  0.3841
19570TIP3    H180201   0.579   6.045   1.256  1.7723  3.5192 -0.7321
19570TIP3    H280202   0.655   5.988   1.138 -0.1805  0.6448 -0.7091
19571TIP3   OH280203   4.736   0.799  15.183 -0.1736  0.5695  0.0533
19571TIP3    H180204   4.768   0.760  15.264  0.9703 -0.4990 -0.8635
19571TIP3    H280205   4.706   0.886  15.208 -0.2072  0.1232  1.6773
19572TIP3   OH280206   5.893   4.996   1.531  0.3924 -0.3824 -0.2873
19572TIP3    H180207   5.817   4.969   1.479  0.8109  0.2728 -1.2656
19572TIP3    H280208   5.909   4.923   1.590 -0.7997 -0.6684 -0.2864
19573TIP3   OH280209   6.792   3.593   3.844 -0.3253 -0.4909 -0.4974
19573TIP3    H180210   6.818   3.503   3.824  1.5256 -0.0787 -0.1933
19573TIP3    H280211   6.697   3.592   3.844 -0.3387 -2.2742 -1.2643
19574TIP3   OH280212   0.720   5.715   4.010 -0.3554  0.2356  0.2704
19574TIP3    H180213   0.667   5.760   4.076  1.0053  0.5238  1.2226
19574TIP3    H280214   0.798   5.687   4.058  1.2607  1.5322 -1.4435
19575TIP3   OH280215   1.612   0.024  16.146  0.5220  0.2646  0.4469
19575TIP3    H180216   1.574   0.015  16.234  1.1535  1.5798  0.8798
19575TIP3    H280217   1.653   0.111  16.146 -2.2505  1.7500 -2.2284
19576TIP3   OH280218   4.677   4.045  12.954  0.4891 -0.6785 -0.5443
19576TIP3    H180219   4.772   4.056  12.962  0.3255 -0.0404  0.8406
19576TIP3    H280220   4.658   4.065  12.863  1.6128 -0.2356 -0.6971
19577TIP3   OH280221   2.934   5.533   1.074 -0.2237 -0.1154  0.5760
19577TIP3    H180222   2.970   5.454   1.036  0.7875 -0.0606  1.3863
19577TIP3    H280223   2.839   5.520   1.071 -0.0773 -1.1958  0.3719
19578TIP3   OH280224   6.616   4.070  12.664  0.4049 -0.2137 -0.7334
19578TIP3    H180225   6.681   4.049  12.731  0.2960 -0.7288 -0.7869
19578TIP3    H280226   6.663   4.127  12.602  0.8246 -0.6325 -0.8057
19579TIP3   OH280227   1.178   1.928   5.484 -0.5096 -0.1662 -0.2036
19579TIP3    H180228   1.083   1.918   5.490 -0.3432 -1.3067  0.7221
19579TIP3    H280229   1.207   1.938   5.574  0.2663  0.0676 -0.4769
19580TIP3   OH280230   6.438   0.734  14.788  0.1182 -0.2087 -0.1483
19580TIP3    H180231   6.517   0.788  14.788  0.6844 -1.0009 -0.3230
19580TIP3    H280232   6.436   0.694  14.875 -2.5415  3.1545  1.5587
19581TIP3   OH280233   1.081   0.022   3.338  0.2818 -0.7925 -0.4456
19581TIP3    H180234   0.990   0.039   3.360  0.0797  0.1224 -1.8259
19581TIP3    H280235   1.114   0.107   3.307  1.6729 -1.0548  0.2619
19582TIP3   OH280236   6.396   3.189   0.732 -0.3666 -0.9386  0.4946
19582TIP3    H180237   6.430   3.127   0.668  0.9237 -0.4541  0.6833
19582TIP3    H280238   6.386   3.137   0.812 -1.8876 -1.5210 -0.0295
19583TIP3   OH280239   5.731   1.559   0.004  0.1819  0.1531 -0.2289
19583TIP3    H180240   5.721   1.642  -0.043  0.0066 -0.1124 -0.6584
19583TIP3    H280241   5.814   1.523  -0.027  0.9730  0.8329  0.9980
19584TIP3   OH280242   3.941   6.385  14.497  0.0104  0.3927  0.4401
19584TIP3    H180243   3.868   6.429  14.540 -0.5745 -0.4429  0.3209
19584TIP3    H280244   4.018   6.437  14.522 -0.4075  0.3929  1.8486
19585TIP3   OH280245   0.098   1.592  16.557 -0.1869 -0.2967  0.9705
19585TIP3    H180246   0.061   1.515  16.601 -0.5107  0.0453  1.3041
19585TIP3    H280247   0.024   1.653  16.550  0.6856  1.2085  3.4009
19586TIP3   OH280248   0.130   4.017   4.625 -0.5335  0.0802 -0.1567
19586TIP3    H180249   0.094   3.930   4.609 -0.2775 -0.2076  0.7156
19586TIP3    H280250   0.168   4.010   4.713  2.6682  0.0117 -1.4362
19587TIP3   OH280251   3.479   1.506   3.970  0.1466  0.0895  0.1122
19587TIP3    H180252   3.532   1.583   3.988 -0.1263  0.5962 -1.1574
19587TIP3    H280253   3.539   1.444   3.927  0.5730 -0.7625  1.8460
19588TIP3   OH280254   1.913   5.547   1.556  0.0213 -0.5079 -0.2980
19588TIP3    H180255   1.848   5.548   1.486 -0.4835 -0.9097  0.1632
19588TIP3    H280256   1.925   5.455   1.577  1.2260 -0.4894 -0.8166
19589TIP3   OH280257   2.331   0.160  11.849 -0.1617 -0.4050  0.4002
19589TIP3    H180258   2.247   0.202  11.832  0.4114  0.3148 -0.7846
19589TIP3    H280259   2.394   0.233  11.850  0.7400 -1.1330 -0.8900
19590TIP3   OH280260   6.655   5.394   0.773 -0.1859  0.6615  0.0448
19590TIP3    H180261   6.617   5.390   0.685  1.1006 -0.0898 -0.5114
19590TIP3    H280262   6.737   5.443   0.762  0.2609  0.0856  0.7152
19591TIP3   OH280263   2.872   2.288   1.955  0.1852  0.7220 -0.0654
19591TIP3    H180264   2.867   2.213   1.896 -1.6201  1.1901 -0.5596
19591TIP3    H280265   2.933   2.261   2.023  0.0191 -0.9706 -0.5526
19592TIP3   OH280266   0.177   4.401  12.287 -0.3187  0.0269 -0.5828
19592TIP3    H180267   0.239   4.432  12.353 -1.1067 -1.7503  1.0938
19592TIP3    H280268   0.232   4.360  12.220  0.4023 -0.1106  0.0740
19593TIP3   OH280269   2.694   1.357  16.810  0.1732  0.2793  0.4419
19593TIP3    H180270   2.686   1.362  16.905 -0.4545 -0.1550  0.4195
19593TIP3    H280271   2.626   1.416  16.776  2.1739  2.6323  0.2410
19594TIP3   OH280272   2.417   2.953  12.982  0.2270 -0.4380  0.3235
19594TIP3    H180273   2.479   2.992  13.043 -0.3629  0.4953  0.3374
19594TIP3    H280274   2.425   3.006  12.902 -0.5185 -0.3294  0.3136
19595TIP3   OH280275   4.582   3.984  10.804  0.4844  0.6493 -0.8497
19595TIP3    H180276   4.532   3.904  10.784 -0.1782  0.9505 -0.4348
19595TIP3    H280277   4.661   3.952  10.846  1.1517  0.0961 -2.4312
19596TIP3   OH280278   1.844   3.276   2.074  0.5190  0.2093 -0.0335
19596TIP3    H180279   1.806   3.222   2.004  1.0327  1.0221 -0.9709
19596TIP3    H280280   1.936   3.285   2.050  0.6988  0.4977  0.7572
19597TIP3   OH280281   5.087   5.291   0.276 -0.0327  0.0758 -0.0990
19597TIP3    H180282   5.077   5.213   0.221  0.9269 -1.3197  1.5847
19597TIP3    H280283   5.011   5.345   0.255 -1.1776 -1.6881 -0.7707
19598TIP3   OH280284   3.365   2.977   6.664 -0.3496  0.7557 -0.9599
19598TIP3    H180285   3.363   2.956   6.570 -0.3001  1.2575 -1.0747
19598TIP3    H280286   3.273   2.990   6.688 -0.9271 -3.4665  0.0285
19599TIP3   OH280287   2.339   1.029  12.550  0.5449  0.4515 -0.6160
19599TIP3    H180288   2.379   1.041  12.464  0.5599  0.1717 -0.6488
19599TIP3    H280289   2.393   1.080  12.609 -0.7516  2.4781 -1.0988
19600TIP3   OH280290   5.310   2.279   2.457 -0.2549 -0.2502  0.0900
19600TIP3    H180291   5.361   2.217   2.509  0.4557  0.1372 -0.1436
19600TIP3    H280292   5.322   2.250   2.367 -0.2189  0.0054  0.0116
19601TIP3   OH280293   3.459   2.700   2.729 -0.0550  0.3831  0.0119
19601TIP3    H180294   3.402   2.705   2.652 -2.6451 -2.7346  1.4824
19601TIP3    H280295   3.468   2.790   2.759 -0.1896  1.5120 -3.0216
19602TIP3   OH280296   5.140   5.468  13.894  0.4130 -0.2861  0.3131
19602TIP3    H180297   5.079   5.462  13.820  0.2961 -0.5953  0.4333
19602TIP3    H280298   5.094   5.523  13.958  0.5625  0.0777  0.1094
19603TIP3   OH280299   6.280   0.835   4.636  0.1537 -0.2739  0.0240
19603TIP3    H180300   6.357   0.780   4.618 -0.2740 -0.6788 -0.5870
19603TIP3    H280301   6.230   0.833   4.554  0.3523  1.3990 -0.1731
19604TIP3   OH280302   6.792   2.812   0.162  0.9453 -0.0435  0.1848
19604TIP3    H180303   6.847   2.821   0.240  1.1784 -0.6394  0.0902
19604TIP3    H280304   6.704   2.838   0.192  1.4801  2.2152  0.0187
19605TIP3   OH280305   1.738   4.122  16.296  0.1149  0.0877 -0.3848
19605TIP3    H180306   1.673   4.110  16.365  0.2116  0.2262 -0.2700
19605TIP3    H280307   1.783   4.038  16.291 -1.9699 -1.0037 -2.4420
19606TIP3   OH280308   1.445   3.432   5.935 -0.1870  0.5537  0.1425
19606TIP3    H180309   1.482   3.404   5.851  0.6919  2.4314 -0.1561
19606TIP3    H280310   1.496   3.509   5.959 -1.1932  0.7409  1.8422
19607TIP3   OH280311   3.815   1.482   5.038  0.1615  0.3204  0.0432
19607TIP3    H180312   3.903   1.518   5.047 -0.1054  0.9100  0.2950
19607TIP3    H280313   3.777   1.489   5.125  1.0002 -2.9940  0.8415
19608TIP3   OH280314   1.766   6.171   4.575 -0.0815 -0.2183 -0.1033
19608TIP3    H180315   1.775   6.247   4.632  0.4668  0.1846 -0.7179
19608TIP3    H280316   1.672   6.159   4.565 -0.1679  0.5368 -0.2084
19609TIP3   OH280317   2.477   6.736   3.507 -0.5408  0.1511 -0.0484
19609TIP3    H180318   2.465   6.813   3.562 -1.2706  0.6132 -0.8209
19609TIP3    H280319   2.523   6.673   3.562  0.4978  1.3110  0.4342
19610TIP3   OH280320   1.495   5.427  12.034 -0.2396 -0.0869 -0.0998
19610TIP3    H180321   1.402   5.415  12.052 -0.1242 -0.9542 -0.0416
19610TIP3    H280322   1.531   5.462  12.116 -0.4374 -0.1595  0.0173
19611TIP3   OH280323   5.922   3.428  16.562  0.3526  0.2980  0.0484
19611TIP3    H180324   5.921   3.340  16.601 -0.5131  0.3557  0.1867
19611TIP3    H280325   6.013   3.443  16.539  0.6191 -0.3902  0.5983
19612TIP3   OH280326   4.489   5.987   4.223 -0.1781 -0.6200  0.0909
19612TIP3    H180327   4.481   5.893   4.236 -0.0078 -0.6815 -0.2304
19612TIP3    H280328   4.406   6.013   4.183 -1.4347 -0.1331  2.8258
19613TIP3   OH280329   5.397   4.888   6.489  0.4266  0.4009 -0.0231
19613TIP3    H180330   5.392   4.815   6.551  1.2197  1.2268  1.0707
19613TIP3    H280331   5.370   4.851   6.405  1.4062 -1.2952  0.3608
19614TIP3   OH280332   1.979   2.299   4.328  0.1715 -0.0857 -0.0873
19614TIP3    H180333   2.048   2.327   4.268  0.2657  0.1249  0.1181
19614TIP3    H280334   2.001   2.209   4.351  0.6058  0.1171  0.3029
19615TIP3   OH280335   3.010   2.297  14.137  0.4777 -0.4533  0.3173
19615TIP3    H180336   3.076   2.355  14.175 -0.3839  0.5116  0.4100
19615TIP3    H280337   3.034   2.210  14.168  1.6972 -0.1294  0.3425
19616TIP3   OH280338   6.514   5.485  15.628 -0.0076  0.1148 -0.6003
19616TIP3    H180339   6.425   5.498  15.594  0.3370 -0.2267 -1.6706
19616TIP3    H280340   6.524   5.390  15.633  0.5048  0.1419 -1.0553
19617TIP3   OH280341   6.740   1.358  10.999 -0.2434  0.0797 -0.3206
19617TIP3    H180342   6.785   1.324  10.922 -1.6988 -0.0972 -1.1291
19617TIP3    H280343   6.719   1.281  11.052 -0.4664  0.0542 -0.4431
19618TIP3   OH280344   4.385   4.221  12.183 -0.0555  0.4765 -0.4669
19618TIP3    H180345   4.453   4.284  12.207 -0.3513  0.6173  0.0148
19618TIP3    H280346   4.373   4.167  12.261 -2.7466  2.4731  0.6593
19619TIP3   OH280347   1.258   0.258  16.923 -0.8076  0.4122 -0.0786
19619TIP3    H180348   1.288   0.171  16.898  1.1458  0.8619  0.4549
19619TIP3    H280349   1.254   0.307  16.840  1.5581  0.7411 -0.0814
19620TIP3   OH280350   1.251   4.952   1.681 -0.3524  0.2819 -0.3371
19620TIP3    H180351   1.224   4.951   1.590  0.1857  1.4832 -0.5251
19620TIP3    H280352   1.172   4.975   1.730 -0.1050  2.0387 -0.7272
19621TIP3   OH280353   2.255   1.656   0.018 -0.5198  0.1977  0.2301
19621TIP3    H180354   2.283   1.656  -0.073 -0.0277 -2.7312  0.3022
19621TIP3    H280355   2.299   1.732   0.057 -0.8186  1.5757 -1.9140
19622TIP3   OH280356   5.151   2.194  11.467  0.3152  0.3573  0.3470
19622TIP3    H180357   5.204   2.120  11.496 -0.7339 -1.0677 -1.1949
19622TIP3    H280358   5.069   2.185  11.516 -0.0878  0.0530 -0.3672
19623TIP3   OH280359   4.642   3.351  11.597 -0.4398 -0.7316 -0.2316
19623TIP3    H180360   4.727   3.377  11.634 -0.8316 -0.2647  0.3646
19623TIP3    H280361   4.662   3.326  11.507  0.0396  1.2747 -0.7327
19624TIP3   OH280362   0.784   1.560  13.307  0.0913  0.6513  0.2741
19624TIP3    H180363   0.795   1.495  13.238  1.3834  0.6414  0.4501
19624TIP3    H280364   0.766   1.509  13.386 -0.0622  0.5845  0.1959
19625TIP3   OH280365   4.773   4.528   3.748 -0.8913 -0.0164  0.2788
19625TIP3    H180366   4.737   4.448   3.709 -2.1706  0.2410  0.8829
19625TIP3    H280367   4.742   4.599   3.692  0.3818  0.0685 -0.3518
19626TIP3   OH280368   0.549   1.575   6.452 -0.2259  0.3413  0.2199
19626TIP3    H180369   0.498   1.647   6.415 -0.8318 -1.2609 -2.4040
19626TIP3    H280370   0.486   1.527   6.506  0.0012  1.3461  1.4167
19627TIP3   OH280371   5.067   3.118  13.689 -0.1630  0.3149  0.2546
19627TIP3    H180372   5.078   3.097  13.782  0.2096 -1.6040 -0.1599
19627TIP3    H280373   5.011   3.047  13.655  0.8233  0.1948 -1.2296
19628TIP3   OH280374   6.001   2.697  15.319 -0.2794 -0.4479 -0.5550
19628TIP3    H180375   6.038   2.684  15.406 -0.4265 -2.1429 -0.7004
19628TIP3    H280376   5.906   2.696  15.333 -0.3033 -0.6930 -0.7245
19629TIP3   OH280377   3.023   4.286   4.379  0.4933  0.0609  0.1727
19629TIP3    H180378   3.118   4.281   4.371  0.5321  0.1270  0.5944
19629TIP3    H280379   2.998   4.355   4.318  0.6614 -0.2902 -0.3078
19630TIP3   OH280380   2.752   0.539  13.551 -0.3319 -0.0865  0.2622
19630TIP3    H180381   2.703   0.610  13.592  0.0072 -0.0429  0.6018
19630TIP3    H280382   2.792   0.579  13.473  0.9412  0.4697  1.1482
19631TIP3   OH280383   3.406   6.751   0.039 -0.0433 -0.0518  0.3501
19631TIP3    H180384   3.394   6.844   0.021 -1.8939  0.0855  2.0155
19631TIP3    H280385   3.449   6.717  -0.040  1.5980  2.3662  0.1050
19632TIP3   OH280386   3.705   3.616  16.245  0.1478  0.1176  0.1864
19632TIP3    H180387   3.657   3.698  16.253 -0.4807 -0.3208  0.9928
19632TIP3    H280388   3.698   3.593  16.153 -0.7348  0.3393  0.1882
19633TIP3   OH280389   0.606   4.731   0.957  0.2126  0.1330 -0.4453
19633TIP3    H180390   0.554   4.745   1.036  0.1512  0.0382 -0.4689
19633TIP3    H280391   0.686   4.689   0.988 -0.5455 -1.5562 -0.6200
19634TIP3   OH280392   3.118   1.241   5.319  0.0764 -0.5410 -0.3740
19634TIP3    H180393   3.039   1.288   5.291  0.4059  0.2697  0.0142
19634TIP3    H280394   3.171   1.234   5.240  0.0541 -0.1948 -0.4202
19635TIP3   OH280395   0.306   2.579  15.851  0.4139  0.1240 -0.0490
19635TIP3    H180396   0.290   2.509  15.915 -0.6719  0.5019  0.1189
19635TIP3    H280397   0.219   2.616  15.834  0.7557  0.4012 -1.3209
19636TIP3   OH280398   4.585   5.301   2.438  0.3376  0.1359 -0.0887
19636TIP3    H180399   4.584   5.382   2.387 -2.2946  0.0070 -0.3706
19636TIP3    H280400   4.654   5.315   2.503  0.6367  2.1802 -0.7700
19637TIP3   OH280401   0.624   5.607  11.782  0.4781 -0.1864  0.5980
19637TIP3    H180402   0.682   5.599  11.706  1.6895  0.7833  1.3702
19637TIP3    H280403   0.543   5.565  11.755  0.9335 -0.0220 -1.1679
19638TIP3   OH280404   2.357   1.938  11.553 -0.2075 -0.0640 -0.2898
19638TIP3    H180405   2.284   1.960  11.496  0.5207  0.2600 -1.1277
19638TIP3    H280406   2.393   1.857  11.516 -1.4756 -1.4659  1.4270
19639TIP3   OH280407   1.616   0.180   2.102  0.1049  0.2615 -0.7169
19639TIP3    H180408   1.544   0.128   2.065 -0.3373  0.2571  0.1249
19639TIP3    H280409   1.670   0.115   2.148  0.3506  0.3475 -0.8815
19640TIP3   OH280410   2.780   0.755   0.023  0.7368  0.0593 -0.0833
19640TIP3    H180411   2.841   0.826   0.042  1.0296 -0.1007 -0.4100
19640TIP3    H280412   2.824   0.703  -0.044 -0.2021  0.5148 -1.0778
19641TIP3   OH280413   2.953   0.507   4.547  0.0861  0.4699  0.1930
19641TIP3    H180414   3.028   0.477   4.597 -0.8072 -1.4445  0.4675
19641TIP3    H280415   2.981   0.500   4.456  0.4506  0.3812  0.3100
19642TIP3   OH280416   4.991   0.462   3.152  0.0278 -0.5129 -0.2231
19642TIP3    H180417   4.938   0.397   3.105  2.0692 -1.5902 -1.1497
19642TIP3    H280418   5.074   0.417   3.169  0.8168  1.2533  0.8064
19643TIP3   OH280419   0.704   1.152   4.119 -0.0386  0.1182  0.3232
19643TIP3    H180420   0.653   1.105   4.184  1.8510  0.2938  2.0466
19643TIP3    H280421   0.767   1.086   4.087  0.7774  0.7016  0.6850
19644TIP3   OH280422   0.717   1.930  12.282 -0.2829 -0.1021  0.2373
19644TIP3    H180423   0.749   2.014  12.247 -1.6240  0.6987  0.8603
19644TIP3    H280424   0.729   1.938  12.377  0.2916 -0.9372  0.2395
19645TIP3   OH280425   4.652   5.157   2.711  0.4897 -0.1115  0.0400
19645TIP3    H180426   4.588   5.119   2.650 -0.3265  0.1040  0.7457
19645TIP3    H280427   4.712   5.085   2.729 -2.0722 -1.7983  2.8073
19646TIP3   OH280428   0.587   4.228   5.048  0.1217 -0.5721 -0.1509
19646TIP3    H180429   0.675   4.260   5.026  0.3306  0.3556  1.7920
19646TIP3    H280430   0.555   4.290   5.113 -2.0602 -0.8192 -0.9297
19647TIP3   OH280431   5.525   3.182   4.824  0.3709 -0.3737  0.0067
19647TIP3    H180432   5.598   3.120   4.829  0.0361 -0.8178 -0.5806
19647TIP3    H280433   5.479   3.171   4.908 -0.4705 -1.9011 -0.6122
19648TIP3   OH280434   2.971   3.538   3.569 -0.2276 -0.7970  0.6979
19648TIP3    H180435   3.042   3.555   3.508 -0.4175  0.9372  0.9008
19648TIP3    H280436   2.894   3.577   3.528 -0.5027 -0.2327  1.6931
19649TIP3   OH280437   5.523   1.469  15.175 -0.4303 -0.3081 -0.7502
19649TIP3    H180438   5.480   1.465  15.090 -1.8133  0.6675 -0.1419
19649TIP3    H280439   5.599   1.526  15.162 -1.6367  1.3322 -0.9796
19650TIP3   OH280440   4.740   1.238  11.198 -0.4878  1.1184  0.3419
19650TIP3    H180441   4.666   1.178  11.205  0.8957 -0.5851  0.9322
19650TIP3    H280442   4.806   1.190  11.147  1.3917  1.3147  2.4505
19651TIP3   OH280443   2.903   2.547   5.102  0.5368  0.3974 -0.0160
19651TIP3    H180444   2.995   2.522   5.092  0.3490 -0.4598  0.4051
19651TIP3    H280445   2.905   2.621   5.163  1.1323  1.7852 -1.6481
19652TIP3   OH280446   3.999   3.806   6.409 -0.2511 -0.5520  0.1403
19652TIP3    H180447   3.987   3.847   6.494 -0.1958 -1.7192  0.7247
19652TIP3    H280448   3.979   3.875   6.346  1.5113  0.8836  1.0627
19653TIP3   OH280449   0.748   1.823   2.624 -0.2266  0.2588  0.0812
19653TIP3    H180450   0.826   1.874   2.603 -0.7553  1.1101  0.1397
19653TIP3    H280451   0.677   1.867   2.576 -0.6287 -0.6722 -0.2004
19654TIP3   OH280452   1.219   1.117   3.585 -0.5557 -0.4569 -1.1837
19654TIP3    H180453   1.297   1.070   3.555  0.8886  0.1896  1.2025
19654TIP3    H280454   1.250   1.206   3.602 -1.7406 -0.2417  0.0453
19655TIP3   OH280455   6.083   6.177   4.214 -0.2834  0.1388 -0.2444
19655TIP3    H180456   6.139   6.180   4.136  0.7649 -2.2707  0.3367
19655TIP3    H280457   6.136   6.217   4.283  0.0221 -0.5616 -0.0758
19656TIP3   OH280458   0.607   2.963   3.443 -0.1787 -0.1881 -0.2399
19656TIP3    H180459   0.643   2.897   3.383  0.9405  0.5329 -0.3790
19656TIP3    H280460   0.574   2.912   3.517  2.0657 -0.8639  0.3865
19657TIP3   OH280461   6.424   2.504  11.487  0.0244  1.0628  0.0698
19657TIP3    H180462   6.502   2.558  11.477 -0.6116  1.8305 -0.9448
19657TIP3    H280463   6.356   2.550  11.438 -0.2428 -1.2832 -2.0211
19658TIP3   OH280464   1.938   3.339  13.193 -0.7488 -0.6139  0.8324
19658TIP3    H180465   1.982   3.300  13.268  1.2359 -0.1876 -0.0490
19658TIP3    H280466   1.848   3.307  13.199 -0.0671 -2.4787  2.0760
19659TIP3   OH280467   1.581   6.372  16.362 -0.4724  0.3285  0.6671
19659TIP3    H180468   1.536   6.345  16.442  0.5669 -0.1844  1.0952
19659TIP3    H280469   1.646   6.304  16.346 -0.6694  0.4273 -0.6265
19660TIP3   OH280470   5.502   2.318  12.593  0.2571 -0.0923  0.8813
19660TIP3    H180471   5.544   2.239  12.561  1.5997  0.5464  0.9667
19660TIP3    H280472   5.461   2.292  12.675 -0.2290 -0.9315  0.3861
19661TIP3   OH280473   3.451   3.286   2.352 -0.3752  0.1999  0.0428
19661TIP3    H180474   3.526   3.299   2.294  0.8586 -0.9633  1.3024
19661TIP3    H280475   3.420   3.198   2.332 -0.7436  0.2755  0.2731
19662TIP3   OH280476   0.507   2.117   1.781  0.0885  0.3965  0.0286
19662TIP3    H180477   0.448   2.192   1.793  1.3075  1.4532 -0.2877
19662TIP3    H280478   0.579   2.152   1.727 -0.0178 -1.3956 -1.3839
19663TIP3   OH280479   3.827   5.064  13.449 -0.6972 -0.0287 -0.0815
19663TIP3    H180480   3.745   5.019  13.469 -0.3001 -1.2417 -1.0637
19663TIP3    H280481   3.805   5.157  13.452 -1.6842 -0.2719  1.4045
19664TIP3   OH280482   6.436   0.254   3.887 -0.2888 -0.3600 -0.5056
19664TIP3    H180483   6.371   0.278   3.821 -0.8773 -0.9090 -0.1372
19664TIP3    H280484   6.419   0.314   3.960 -1.1727 -1.2652  0.0587
19665TIP3   OH280485   1.302   5.635  13.880 -0.5306 -0.0016 -0.2489
19665TIP3    H180486   1.317   5.544  13.906 -3.2517 -0.6863 -0.8079
19665TIP3    H280487   1.297   5.633  13.785 -0.4320  0.7869 -0.2821
19666TIP3   OH280488   4.594   6.576  12.651  0.1559  0.1688 -0.1096
19666TIP3    H180489   4.645   6.648  12.614  1.6993  0.1646  1.8874
19666TIP3    H280490   4.583   6.599  12.743  1.3049 -2.4430  0.7658
19667TIP3   OH280491   6.017   2.067  15.755 -0.3977 -0.2694 -0.0174
19667TIP3    H180492   6.081   2.091  15.688 -1.8870 -0.5944 -1.6618
19667TIP3    H280493   6.023   1.972  15.760  1.1551 -0.1180  1.9022
19668TIP3   OH280494   1.137   5.706   5.972  0.0812 -0.8829  0.2122
19668TIP3    H180495   1.101   5.703   6.061  2.3123 -0.7427  1.1923
19668TIP3    H280496   1.197   5.781   5.974  1.1109 -1.6412 -1.0200
19669TIP3   OH280497   3.856   6.440   4.545 -0.6070 -0.1389  0.1472
19669TIP3    H180498   3.864   6.405   4.634 -2.2389 -0.4883  0.1849
19669TIP3    H280499   3.776   6.493   4.547 -0.4075  0.2351 -0.9897
19670TIP3   OH280500   4.638   6.585  15.200  0.3930 -0.0935 -0.4508
19670TIP3    H180501   4.545   6.608  15.203  0.4405 -0.0081  1.5965
19670TIP3    H280502   4.648   6.515  15.264  1.8409  0.2580 -0.2619
19671TIP3   OH280503   2.356   5.580   2.549 -0.1284 -0.6201 -0.1591
19671TIP3    H180504   2.380   5.579   2.642  1.7203 -0.6795 -0.6164
19671TIP3    H280505   2.410   5.648   2.510  0.1089 -1.5001 -1.4337
19672TIP3   OH280506   0.088   2.260   0.206  0.0712  0.0601  0.1232
19672TIP3    H180507   0.161   2.305   0.249  2.0938 -0.7877 -2.1646
19672TIP3    H280508   0.061   2.192   0.268  0.9858  0.6466  1.1890
19673TIP3   OH280509   3.560   0.160   1.901  0.1725  0.7455 -0.4687
19673TIP3    H180510   3.595   0.187   1.816  1.6072  0.4460  0.0017
19673TIP3    H280511   3.574   0.065   1.904  0.9110  0.8760  0.4450
19674TIP3   OH280512   1.733   1.739  11.381 -0.7196 -0.2015  0.0970
19674TIP3    H180513   1.752   1.829  11.409 -0.8000  0.0786 -0.7288
19674TIP3    H280514   1.702   1.695  11.460  0.5917  0.1264  0.8270
19675TIP3   OH280515   2.690   5.917  16.575  0.2243 -0.0124  0.2204
19675TIP3    H180516   2.689   6.012  16.586  1.0699  0.2413 -1.5669
19675TIP3    H280517   2.637   5.884  16.647 -0.5873  1.8490  0.5247
19676TIP3   OH280518   6.544   1.629  14.346 -0.5743 -0.0835  0.5148
19676TIP3    H180519   6.516   1.603  14.434  1.9090 -1.7744  0.8903
19676TIP3    H280520   6.603   1.703  14.361 -1.8501  1.0806  0.0286
19677TIP3   OH280521   2.211   0.849   0.059  0.5257 -0.3621 -0.1887
19677TIP3    H180522   2.226   0.812  -0.028  3.8885 -0.4254  0.2854
19677TIP3    H280523   2.185   0.774   0.113  2.3446 -1.1243 -0.3264
19678TIP3   OH280524   2.626   0.913  14.431  0.1463  0.0266 -0.4354
19678TIP3    H180525   2.622   0.977  14.502  2.0177 -0.8449  0.5087
19678TIP3    H280526   2.712   0.925  14.392 -0.8121  0.4608 -2.6016
19679TIP3   OH280527   5.827   5.613   2.232  0.2563 -0.0303 -0.5577
19679TIP3    H180528   5.875   5.681   2.184 -0.2364  0.8281  0.1395
19679TIP3    H280529   5.795   5.657   2.310  0.2291 -1.1645  0.0969
19680TIP3   OH280530   2.581   2.532  15.516  0.4619 -0.3675 -0.4322
19680TIP3    H180531   2.619   2.449  15.543 -1.1694 -1.0512 -0.1065
19680TIP3    H280532   2.650   2.596  15.530  0.6307 -1.0974  2.8927
19681TIP3   OH280533   6.210   4.149  14.941 -0.1850  0.2153  0.7552
19681TIP3    H180534   6.181   4.068  14.982 -0.3257  0.9945  2.2645
19681TIP3    H280535   6.130   4.201  14.931 -0.4372 -0.5066 -1.9914
19682TIP3   OH280536   0.182   5.333  14.622 -0.3725 -0.4047 -0.1890
19682TIP3    H180537   0.111   5.344  14.685 -1.0917  0.9742 -1.2072
19682TIP3    H280538   0.247   5.399  14.647 -1.3005  1.1424 -1.7206
19683TIP3   OH280539   2.802   5.711  14.689 -0.6817 -0.2406 -0.0081
19683TIP3    H180540   2.783   5.734  14.598 -0.0193  0.0157 -0.0922
19683TIP3    H280541   2.719   5.723  14.735 -1.2066 -1.1143 -0.7154
19684TIP3   OH280542   2.647   3.462   2.897  0.3844  0.5156 -0.4911
19684TIP3    H180543   2.731   3.467   2.851  0.0426 -1.1403 -1.3950
19684TIP3    H280544   2.586   3.509   2.840  0.1022 -0.9476 -1.4628
19685TIP3   OH280545   5.907   1.925  16.144  0.1951  0.6400 -0.2716
19685TIP3    H180546   5.834   1.941  16.084 -0.4967 -2.8439 -0.5798
19685TIP3    H280547   5.962   1.861  16.099  0.2854 -1.2357  2.2766
19686TIP3   OH280548   6.606   2.922   1.999  0.0621 -0.1971 -0.1528
19686TIP3    H180549   6.524   2.877   2.023  0.0313  0.5680  1.2795
19686TIP3    H280550   6.582   3.014   1.992  0.7507  0.0035  0.0396
19687TIP3   OH280551   2.350   6.276  14.763  0.0030  0.3277  0.4276
19687TIP3    H180552   2.413   6.328  14.812  0.6043  0.7693 -0.7766
19687TIP3    H280553   2.402   6.210  14.718 -0.6026 -0.4413  0.8281
19688TIP3   OH280554   0.259   3.890   5.616  0.0833  0.0668  0.3074
19688TIP3    H180555   0.315   3.820   5.581 -0.2882 -0.1581  0.1543
19688TIP3    H280556   0.254   3.872   5.710  2.3985  1.5887  0.8144
19689TIP3   OH280557   1.395   3.144   4.709  0.0405 -0.0858 -0.5286
19689TIP3    H180558   1.445   3.218   4.674 -1.3298 -0.1288 -2.7085
19689TIP3    H280559   1.401   3.155   4.804  2.7531  0.8362 -0.6976
19690TIP3   OH280560   2.524   2.730   1.115  0.7963  0.0288 -0.0403
19690TIP3    H180561   2.543   2.652   1.167 -1.3893 -1.0866 -0.7659
19690TIP3    H280562   2.444   2.766   1.154 -0.9259 -0.8610 -2.5128
19691TIP3   OH280563   6.693   3.715   2.606 -0.1821  0.1019  0.3789
19691TIP3    H180564   6.612   3.669   2.628 -0.7927  1.3692  0.8861
19691TIP3    H280565   6.666   3.805   2.591  0.8784  0.1767 -1.3517
19692TIP3   OH280566   2.886   3.278   2.112 -0.0660 -0.0206 -0.2503
19692TIP3    H180567   2.810   3.263   2.168  0.4367  1.8276  0.9971
19692TIP3    H280568   2.953   3.218   2.145  0.3945  1.4097  1.5341
19693TIP3   OH280569   1.794   2.504  16.521  0.0861 -0.8856  0.1651
19693TIP3    H180570   1.716   2.506  16.466  0.7063  0.1408 -0.7351
19693TIP3    H280571   1.861   2.546  16.467  0.1666  2.3840  2.4980
19694TIP3   OH280572   2.852   2.741   2.441 -0.2705  0.0448 -0.2890
19694TIP3    H180573   2.880   2.677   2.376 -0.1986  0.4193 -0.6298
19694TIP3    H280574   2.758   2.727   2.450 -0.1746 -0.4285 -0.0065
19695TIP3   OH280575   2.938   3.201   1.299 -0.0469 -0.4354  0.5075
19695TIP3    H180576   2.999   3.129   1.285  0.2638 -0.3665  1.4377
19695TIP3    H280577   2.935   3.211   1.394  0.8073  1.5549  0.3617
19696TIP3   OH280578   1.042   5.557   5.100  0.5514 -0.0518  0.2071
19696TIP3    H180579   0.970   5.573   5.162 -0.2123  2.5507 -1.2352
19696TIP3    H280580   1.106   5.506   5.150 -1.0822 -0.1194  2.3607
19697TIP3   OH280581   0.350   6.463  14.229  0.3376  0.1790 -0.6180
19697TIP3    H180582   0.407   6.411  14.286  0.1590  2.1714  1.5315
19697TIP3    H280583   0.410   6.505  14.168  1.0163  0.8613  0.4831
19698TIP3   OH280584   3.584   1.635  13.177 -0.1652  0.3191 -0.6184
19698TIP3    H180585   3.558   1.721  13.145 -0.6596  0.3225 -0.2226
19698TIP3    H280586   3.594   1.646  13.271  1.4150  0.3398 -0.7710
19699TIP3   OH280587   6.666   1.408   2.127  0.1776 -0.1129 -0.2619
19699TIP3    H180588   6.670   1.500   2.101 -0.9993 -0.0036 -0.1150
19699TIP3    H280589   6.681   1.360   2.046  1.5033  0.1942 -0.2141
19700TIP3   OH280590   2.567   1.822   1.339  0.3848 -0.1611 -0.6042
19700TIP3    H180591   2.621   1.886   1.386  1.1259  0.0083 -1.6641
19700TIP3    H280592   2.619   1.741   1.341 -0.4868 -0.7217  0.6127
19701TIP3   OH280593   4.104   5.784   4.318 -0.0044 -0.2161  0.0914
19701TIP3    H180594   4.080   5.833   4.397 -1.2221 -0.5554 -0.0506
19701TIP3    H280595   4.021   5.766   4.274  0.6958  0.5290 -1.6293
19702TIP3   OH280596   5.838   0.407  13.597  0.1348 -0.6005  0.3592
19702TIP3    H180597   5.804   0.320  13.578  0.7535 -0.4722 -1.6183
19702TIP3    H280598   5.905   0.393  13.663 -0.6631 -1.4296  1.0171
19703TIP3   OH280599   4.375   1.891   3.231 -0.2903 -0.3905 -0.5352
19703TIP3    H180600   4.444   1.901   3.165 -0.2861  0.3533 -0.4212
19703TIP3    H280601   4.417   1.840   3.301 -0.9090 -3.0923 -1.9851
19704TIP3   OH280602   2.463   3.303  16.661 -0.0420 -0.4866 -0.0916
19704TIP3    H180603   2.520   3.307  16.584  0.9520  0.9267  0.6703
19704TIP3    H280604   2.384   3.260  16.630 -0.0461  0.8765 -2.1433
19705TIP3   OH280605   6.370   3.108   3.833  0.2514  0.2764 -0.3795
19705TIP3    H180606   6.394   3.129   3.743 -0.6481  0.2998 -0.6184
19705TIP3    H280607   6.387   3.014   3.842  2.4244  0.6531  0.1070
19706TIP3   OH280608   0.748   6.268  13.347 -0.0236  0.4343 -0.5263
19706TIP3    H180609   0.733   6.307  13.433 -0.2866 -0.9077  0.0671
19706TIP3    H280610   0.721   6.177  13.358  0.9472 -0.0183 -1.7408
19707TIP3   OH280611   6.213   4.320  16.317  0.0317  0.0117 -0.5580
19707TIP3    H180612   6.143   4.380  16.289 -1.3264 -0.9980  0.4990
19707TIP3    H280613   6.276   4.323  16.245 -1.8830 -0.2490 -2.3861
19708TIP3   OH280614   6.343   5.988  16.144 -0.0206 -0.0209 -0.3005
19708TIP3    H180615   6.248   5.976  16.151 -0.5810  3.1606 -0.6012
19708TIP3    H280616   6.357   6.009  16.051  0.3781  2.8246  0.3144
19709TIP3   OH280617   0.295   0.990   5.991 -0.1556  0.8628 -0.2441
19709TIP3    H180618   0.301   0.977   6.086 -0.8144  2.6489  0.0800
19709TIP3    H280619   0.378   0.957   5.957 -0.5943 -1.4123  0.7186
19710TIP3   OH280620   3.750   0.580  15.099 -0.4856  0.2193  0.3849
19710TIP3    H180621   3.831   0.609  15.140 -0.1549  0.2964 -0.3174
19710TIP3    H280622   3.768   0.491  15.069 -1.0552 -0.2196  1.3045
19711TIP3   OH280623   2.087   5.724   3.210 -0.1108 -0.4522 -0.1448
19711TIP3    H180624   2.103   5.630   3.201  0.5142 -0.4241  0.6056
19711TIP3    H280625   2.099   5.759   3.121  1.0445 -0.8837 -0.1768
19712TIP3   OH280626   4.461   1.975   6.009  0.0563  0.3307  0.4176
19712TIP3    H180627   4.520   2.047   6.030  0.3603  0.5120 -0.9719
19712TIP3    H280628   4.500   1.932   5.934 -1.2498  0.0594 -0.1406
19713TIP3   OH280629   1.110   1.145   1.357 -0.3278  0.3492  0.3203
19713TIP3    H180630   1.162   1.219   1.390  1.1213 -2.2238  4.5905
19713TIP3    H280631   1.021   1.179   1.351  0.1564  2.3231  2.7858
19714TIP3   OH280632   2.567   4.596  11.824  0.2936 -0.3375  0.0926
19714TIP3    H180633   2.540   4.677  11.783 -1.0871 -1.0075 -0.3689
19714TIP3    H280634   2.570   4.616  11.918 -1.0481 -0.0184  0.0823
19715TIP3   OH280635   0.314   3.319  17.222  0.4728  0.2583 -0.2202
19715TIP3    H180636   0.320   3.413  17.205  0.8024  0.0961 -1.0341
19715TIP3    H280637   0.318   3.278  17.136  0.5288 -0.5180  0.1381
19716TIP3   OH280638   4.508   1.382   1.616 -0.0909  0.1021  0.2198
19716TIP3    H180639   4.488   1.321   1.687 -0.2186  0.5047  0.5305
19716TIP3    H280640   4.450   1.355   1.545 -0.3571  0.0432  0.4563
19717TIP3   OH280641   0.371   6.799   5.274 -0.1787 -0.4768  0.3849
19717TIP3    H180642   0.461   6.806   5.243  0.3386  0.1479  1.9522
19717TIP3    H280643   0.319   6.784   5.194  1.4029 -1.9959 -0.4338
19718TIP3   OH280644   6.507   4.428  14.340 -0.1886 -0.1586  0.0801
19718TIP3    H180645   6.520   4.456  14.431  1.0879  0.0607 -0.1518
19718TIP3    H280646   6.522   4.333  14.342 -0.8987 -0.2803  0.2095
19719TIP3   OH280647   5.801   3.163  13.270 -0.1961  0.4236 -0.0726
19719TIP3    H180648   5.761   3.221  13.335 -1.3317  1.1357 -1.3353
19719TIP3    H280649   5.864   3.110  13.319 -2.1000 -0.1639  1.8793
19720TIP3   OH280650   6.768   0.595  14.048  0.6332 -0.9751 -0.6099
19720TIP3    H180651   6.812   0.638  13.975  0.4184  0.0191 -0.1813
19720TIP3    H280652   6.742   0.668  14.105 -2.5989 -1.3498 -1.4077
19721TIP3   OH280653   2.139   4.875  12.423  0.2398 -0.7826  0.5871
19721TIP3    H180654   2.057   4.825  12.417 -0.1894  0.0420 -1.0599
19721TIP3    H280655   2.137   4.914  12.510 -0.4962 -1.7925  1.0463
19722TIP3   OH280656   5.417   3.078   5.568 -0.1710  0.0393  0.0158
19722TIP3    H180657   5.332   3.101   5.605 -0.7165 -0.4586 -0.8924
19722TIP3    H280658   5.436   3.149   5.507 -0.1749 -0.1078 -0.1564
19723TIP3   OH280659   5.539   6.385   5.035  0.1639  0.0208 -0.2634
19723TIP3    H180660   5.604   6.334   5.083 -2.8260 -1.4867  2.6454
19723TIP3    H280661   5.515   6.330   4.961  0.3105 -0.6808  0.1991
19724TIP3   OH280662   2.681   2.876  14.471  0.3287  0.2031 -0.5284
19724TIP3    H180663   2.743   2.820  14.517 -1.8278 -0.8728  1.2831
19724TIP3    H280664   2.639   2.927  14.540 -1.3771  0.2534 -1.5386
19725TIP3   OH280665   3.117   3.497   2.370 -0.4674 -0.4420 -0.0815
19725TIP3    H180666   3.021   3.498   2.379 -0.4885 -2.2459  0.3301
19725TIP3    H280667   3.147   3.568   2.427 -1.5940  1.3731 -1.6075
19726TIP3   OH280668   3.697   2.124  13.119  0.1379 -0.0194 -0.6399
19726TIP3    H180669   3.657   2.187  13.179  0.2284 -1.2928  0.8163
19726TIP3    H280670   3.790   2.144  13.121  0.2549 -0.6241  0.3655
19727TIP3   OH280671   3.474   1.619  12.169  0.0725 -0.3139  0.2113
19727TIP3    H180672   3.450   1.574  12.088 -1.5656 -0.8894  0.9666
19727TIP3    H280673   3.460   1.553  12.238 -0.8787  0.8582  1.1876
19728TIP3   OH280674   4.051   2.979  14.756  0.4559 -0.0120 -0.4863
19728TIP3    H180675   4.045   3.021  14.842 -2.7471 -0.3557 -0.4246
19728TIP3    H280676   4.135   3.010  14.720  0.4147  2.7198  1.4413
19729TIP3   OH280677   0.213   4.546   0.450  0.0494  0.3759 -0.0924
19729TIP3    H180678   0.148   4.490   0.408  1.3567  0.7552 -2.8729
19729TIP3    H280679   0.244   4.496   0.525 -1.5757 -0.9153 -0.2410
19730TIP3   OH280680   5.145   3.218  11.323 -0.0545 -0.2255 -0.2677
19730TIP3    H180681   5.206   3.145  11.333  2.1131  1.4981 -0.1500
19730TIP3    H280682   5.091   3.215  11.402  1.4364 -0.4764  0.7812
19731TIP3   OH280683   2.699   4.551  15.707 -0.3661 -0.2034  0.3871
19731TIP3    H180684   2.650   4.633  15.707 -2.7690 -1.5264  1.4977
19731TIP3    H280685   2.739   4.547  15.793 -1.3989 -0.7769  0.8625
19732TIP3   OH280686   4.656   0.602   5.583 -0.2351 -0.0287  0.4182
19732TIP3    H180687   4.722   0.634   5.522 -0.9523 -0.0706 -0.4064
19732TIP3    H280688   4.643   0.674   5.644  0.5670 -0.0245  0.5926
19733TIP3   OH280689   2.288   4.579  12.313 -0.4133  0.1495  0.3964
19733TIP3    H180690   2.225   4.647  12.289  0.7808  0.3510 -2.5275
19733TIP3    H280691   2.255   4.499  12.272  1.2701  0.3079 -1.3824
19734TIP3   OH280692   5.015   4.814   4.243 -0.1194 -0.2225 -0.1229
19734TIP3    H180693   4.956   4.741   4.223  0.1098 -0.1196 -1.2945
19734TIP3    H280694   5.021   4.862   4.160 -1.5551  2.0763  0.9936
19735TIP3   OH280695   4.863   5.352  17.006  0.5831  0.4084 -0.0266
19735TIP3    H180696   4.873   5.267  16.965 -1.9871 -0.3034  0.6393
19735TIP3    H280697   4.923   5.410  16.958 -0.0474 -1.0340 -2.6859
19736TIP3   OH280698   3.901   4.688  11.796 -0.2365 -0.0732 -0.7177
19736TIP3    H180699   3.830   4.748  11.775 -0.2234  0.1331 -0.1908
19736TIP3    H280700   3.860   4.620  11.849  0.3708  1.3058  1.6552
19737TIP3   OH280701   2.873   3.982  17.050  0.3790  0.4300  0.1254
19737TIP3    H180702   2.841   3.892  17.060 -1.0403  0.8734 -0.2429
19737TIP3    H280703   2.967   3.972  17.034  0.1015 -1.0535 -0.8254
19738TIP3   OH280704   6.468   1.462   4.156 -0.4249  0.2722 -0.0493
19738TIP3    H180705   6.440   1.470   4.065 -0.5889  1.3199  0.0833
19738TIP3    H280706   6.500   1.549   4.180  0.6447 -0.2616  0.5704
19739TIP3   OH280707   2.449   3.677  13.060 -0.2970 -0.2938 -0.3250
19739TIP3    H180708   2.425   3.648  13.148  0.1598 -2.2171 -0.7973
19739TIP3    H280709   2.525   3.623  13.037 -0.0647  0.5759 -1.6828
19740TIP3   OH280710   3.111   5.402  17.108 -0.0079 -0.0590 -0.0609
19740TIP3    H180711   3.121   5.490  17.072  0.3184  0.3028  0.8821
19740TIP3    H280712   3.094   5.347  17.032 -0.1723  0.8083 -0.6720
19741TIP3   OH280713   2.285   4.853   4.786 -0.2848 -0.2623 -0.0826
19741TIP3    H180714   2.244   4.788   4.843 -2.3675 -2.0965 -3.3089
19741TIP3    H280715   2.217   4.919   4.772  0.2349  0.2274 -0.3240
19742TIP3   OH280716   2.043   4.302   4.457  0.3584  0.4978  0.1934
19742TIP3    H180717   2.115   4.270   4.511  0.9300  0.5434 -0.5312
19742TIP3    H280718   2.062   4.268   4.370 -0.8536 -0.0475  0.1265
19743TIP3   OH280719   3.081   3.878   0.512 -0.2523 -0.0901  0.2176
19743TIP3    H180720   3.078   3.831   0.429 -2.3446  0.4948 -0.0774
19743TIP3    H280721   3.160   3.932   0.506 -0.7126  0.4198 -1.6629
19744TIP3   OH280722   6.234   3.922  12.024 -0.4707 -0.1236 -0.1928
19744TIP3    H180723   6.149   3.877  12.018 -0.7199  0.4127 -0.9328
19744TIP3    H280724   6.295   3.855  12.055 -1.0429 -0.6917 -0.2719
19745TIP3   OH280725   3.866   3.657  14.085 -0.0715 -0.1391  0.2723
19745TIP3    H180726   3.815   3.729  14.048 -0.5821 -1.4248 -1.6737
19745TIP3    H280727   3.947   3.657  14.033  0.4211 -0.2925  1.0212
19746TIP3   OH280728   1.974   4.191   0.336 -0.4556  0.5006  0.0891
19746TIP3    H180729   1.913   4.118   0.346  1.1792 -0.8860  0.2829
19746TIP3    H280730   1.921   4.261   0.296 -2.5159 -0.1142  1.6069
19747TIP3   OH280731   6.255   0.387  13.278 -0.1182  0.4308  0.2677
19747TIP3    H180732   6.195   0.347  13.340  1.6626 -1.2799  0.9878
19747TIP3    H280733   6.230   0.349  13.193 -1.0040  0.9051  0.3103
19748TIP3   OH280734   0.701   1.437   2.126 -0.2706 -0.7876 -0.0384
19748TIP3    H180735   0.623   1.486   2.149 -1.0623 -0.9498 -2.1370
19748TIP3    H280736   0.686   1.349   2.160 -0.4877 -0.5192  0.5609
19749TIP3   OH280737   4.588   3.352   5.000  0.1868  0.3906 -0.1896
19749TIP3    H180738   4.669   3.363   5.050 -0.4273 -2.9452  1.8441
19749TIP3    H280739   4.608   3.284   4.936 -1.0608 -0.8963  0.7205
19750TIP3   OH280740   5.870   5.656  14.465  0.0802 -0.5721 -0.3159
19750TIP3    H180741   5.925   5.718  14.416  1.2565 -1.7345 -0.5417
19750TIP3    H280742   5.800   5.633  14.404  0.2168 -0.2490 -0.6029
19751TIP3   OH280743   2.561   4.309   2.510 -0.1643  0.0706  0.3393
19751TIP3    H180744   2.478   4.275   2.477 -0.2120 -0.9948  1.4643
19751TIP3    H280745   2.562   4.285   2.603  1.7237 -0.6361  0.1873
19752TIP3   OH280746   0.017   3.581  14.285 -0.4766  0.3632 -0.0278
19752TIP3    H180747  -0.068   3.569  14.241 -1.1252  0.9586  1.0242
19752TIP3    H280748   0.034   3.496  14.326 -1.3021  0.6755  0.9955
19753TIP3   OH280749   5.168   2.077  15.006 -0.3655  0.4680 -0.1955
19753TIP3    H180750   5.247   2.042  15.048 -0.7573 -0.4292 -0.1720
19753TIP3    H280751   5.131   2.136  15.071  1.2302  2.3260 -0.8870
19754TIP3   OH280752   1.144   5.666  15.895 -0.1608 -0.4528  0.5928
19754TIP3    H180753   1.071   5.727  15.887  0.6318  0.7507  2.0891
19754TIP3    H280754   1.218   5.711  15.854 -0.0470 -1.3277 -0.1970
19755TIP3   OH280755   1.961   3.828   0.858 -0.4263 -0.0508  0.5274
19755TIP3    H180756   2.014   3.762   0.813  1.6017  2.0267 -0.2982
19755TIP3    H280757   1.982   3.910   0.814 -2.0317  1.3358  2.2128
19756TIP3   OH280758   2.902   5.657  13.889  0.5761  0.8561 -0.0357
19756TIP3    H180759   2.905   5.605  13.809  1.9297 -0.5235  0.8584
19756TIP3    H280760   2.994   5.680  13.905  0.4123  0.5263  1.4692
19757TIP3   OH280761   5.801   2.031  12.950  0.4385 -0.6527 -0.0958
19757TIP3    H180762   5.722   2.030  12.895 -0.7931  1.5295  1.4795
19757TIP3    H280763   5.873   2.026  12.888 -0.9129 -0.0670 -1.8018
19758TIP3   OH280764   1.143   1.209  11.980 -0.1177  0.2679  0.0407
19758TIP3    H180765   1.164   1.135  11.922  1.6175  0.0472  0.8971
19758TIP3    H280766   1.203   1.278  11.953  0.1883  0.4177  1.0818
19759TIP3   OH280767   3.230   0.210  13.015  0.4800  0.6027  0.5247
19759TIP3    H180768   3.207   0.170  12.932 -0.1928  1.3564  0.3371
19759TIP3    H280769   3.326   0.209  13.017  0.5966  2.5369 -1.2568
19760TIP3   OH280770   1.686   5.775  11.849 -0.3317  0.2915 -0.1177
19760TIP3    H180771   1.656   5.778  11.940  1.8156  3.0572  0.6525
19760TIP3    H280772   1.760   5.714  11.850 -1.9127 -1.7616 -0.6994
19761TIP3   OH280773   1.006   0.402   0.988  0.0055 -0.1026  0.0442
19761TIP3    H180774   1.068   0.440   0.926 -0.1230  0.5446  0.3008
19761TIP3    H280775   1.056   0.333   1.032  1.1571  1.5759  1.5231
19762TIP3   OH280776   4.211   4.317   2.301  0.0988  0.4826 -0.1002
19762TIP3    H180777   4.124   4.326   2.340  0.2026  1.2575 -0.0375
19762TIP3    H280778   4.199   4.341   2.210  0.1273 -0.0358 -0.2474
19763TIP3   OH280779   4.523   0.459   0.765  0.2431 -0.2001  0.2579
19763TIP3    H180780   4.607   0.415   0.751 -0.0950 -0.9055  0.3887
19763TIP3    H280781   4.485   0.466   0.678 -1.0203 -2.8921  0.4736
19764TIP3   OH280782   2.441   2.645   3.203 -0.0174 -0.0063 -0.4488
19764TIP3    H180783   2.364   2.661   3.258  1.3432  0.9777  1.2849
19764TIP3    H280784   2.497   2.720   3.219  1.1021 -0.4493 -2.0805
19765TIP3   OH280785   3.465   1.342  10.608 -0.4550 -0.1028 -0.2742
19765TIP3    H180786   3.469   1.428  10.566  1.6919  1.2640  2.4104
19765TIP3    H280787   3.550   1.303  10.589  0.3136  0.2856  2.0727
19766TIP3   OH280788   2.847   0.918  16.992  0.0513 -0.1342 -0.7268
19766TIP3    H180789   2.858   0.975  16.916  1.5079  0.2841 -0.2301
19766TIP3    H280790   2.871   0.831  16.961  1.0310  0.1032 -0.6640
19767TIP3   OH280791   0.018   1.579   0.835 -0.0084 -0.2283  0.3487
19767TIP3    H180792  -0.047   1.510   0.827 -0.4557  0.3152 -0.9450
19767TIP3    H280793   0.089   1.553   0.776 -0.1323  0.3509 -0.0664
19768TIP3   OH280794   6.147   4.353  13.199 -0.2038 -0.5436  0.2255
19768TIP3    H180795   6.223   4.305  13.231 -0.2456 -1.7039 -1.3045
19768TIP3    H280796   6.136   4.323  13.109 -0.2168  2.3799 -0.8471
19769TIP3   OH280797   5.354   5.710   2.675  0.2173 -0.0750  0.0021
19769TIP3    H180798   5.427   5.650   2.657  0.5000  0.1790  0.2994
19769TIP3    H280799   5.281   5.653   2.699 -0.0592 -0.4180 -1.5210
19770TIP3   OH280800   3.563   2.319   5.985 -0.4136 -0.6612 -0.4564
19770TIP3    H180801   3.496   2.376   6.025 -0.4414  0.2282 -1.7165
19770TIP3    H280802   3.600   2.272   6.059  0.0819  1.4806  0.7632
19771TIP3   OH280803   6.150   1.225   1.141 -0.5991  0.6978 -0.0869
19771TIP3    H180804   6.139   1.134   1.113 -2.8443  0.7603  0.4106
19771TIP3    H280805   6.119   1.277   1.067  0.6387  1.0944 -0.3541
19772TIP3   OH280806   0.098   1.612   1.970  0.1669  0.3248  0.2170
19772TIP3    H180807   0.149   1.625   2.050  0.1244  0.4230  0.2286
19772TIP3    H280808   0.025   1.673   1.978  0.4696  0.7388 -0.1520
19773TIP3   OH280809   6.038   3.648   3.485 -0.3774 -0.6527 -0.2191
19773TIP3    H180810   6.069   3.718   3.428 -3.7101  2.9713  1.9505
19773TIP3    H280811   5.958   3.617   3.444 -0.6336 -0.8916  0.4485
19774TIP3   OH280812   4.690   2.682   2.594 -0.2231 -0.3920  0.1065
19774TIP3    H180813   4.729   2.604   2.554  0.1316 -0.2640  0.2048
19774TIP3    H280814   4.717   2.678   2.686 -0.1301 -0.1032  0.0925
19775TIP3   OH280815   3.039   2.072  13.917 -0.0922  0.1258  0.4915
19775TIP3    H180816   3.068   1.982  13.897 -1.8351 -0.1594 -1.0976
19775TIP3    H280817   3.119   2.125  13.909  0.5532 -0.9793 -0.8672
19776TIP3   OH280818   1.589   6.196   1.780 -0.2592  0.2015 -0.0449
19776TIP3    H180819   1.605   6.221   1.689 -0.8675  0.8952  0.0342
19776TIP3    H280820   1.545   6.111   1.773  0.4219 -0.1385 -0.3631
19777TIP3   OH280821   5.488   2.645  14.678 -0.5900  0.2821 -0.1618
19777TIP3    H180822   5.518   2.639  14.768  1.2220  0.8235 -0.6846
19777TIP3    H280823   5.479   2.739  14.662  0.9304  0.2996 -1.0730
19778TIP3   OH280824   6.181   2.970   3.421 -0.6016 -0.6056  0.4734
19778TIP3    H180825   6.178   2.935   3.510 -0.9918  0.9558  1.1099
19778TIP3    H280826   6.240   3.045   3.426  0.5341 -1.3472 -0.9325
19779TIP3   OH280827   1.496   1.869   3.127 -0.8534 -0.0327  0.2925
19779TIP3    H180828   1.519   1.778   3.147  1.2770  0.2371 -0.6636
19779TIP3    H280829   1.401   1.871   3.134 -1.0429 -2.5301 -0.3775
19780TIP3   OH280830   5.274   0.982  12.860  0.1355 -0.0610 -0.0737
19780TIP3    H180831   5.353   1.036  12.857  1.1076 -1.3170  1.0675
19780TIP3    H280832   5.266   0.946  12.772  2.1126 -1.5514  0.2627
19781TIP3   OH280833   3.189   5.302   4.447  0.6434 -0.3251 -0.1446
19781TIP3    H180834   3.192   5.218   4.492  1.8274  0.1807  0.7840
19781TIP3    H280835   3.280   5.317   4.418  0.0522 -0.3249 -2.1593
19782TIP3   OH280836   4.167   0.495   0.377 -0.5683 -0.0957 -0.0241
19782TIP3    H180837   4.203   0.471   0.291 -0.4875  1.6559 -0.5141
19782TIP3    H280838   4.093   0.435   0.389  0.2780 -1.3136 -0.6510
19783TIP3   OH280839   5.180   5.480  11.349 -0.1773 -0.2521 -0.3137
19783TIP3    H180840   5.114   5.527  11.299  0.2758  1.3924  0.5532
19783TIP3    H280841   5.131   5.433  11.416 -0.7174 -1.8363 -1.7610
19784TIP3   OH280842   4.961   0.544   5.166  0.5745  0.5972  0.1498
19784TIP3    H180843   4.985   0.573   5.078  0.8456  1.9350  0.6510
19784TIP3    H280844   5.042   0.552   5.216  0.6459 -0.9805  0.3443
19785TIP3   OH280845   1.758   0.838  13.922 -0.2525  1.1967 -0.1521
19785TIP3    H180846   1.820   0.769  13.898 -2.2163 -2.2555  3.5650
19785TIP3    H280847   1.695   0.840  13.850  0.9071  0.5966 -1.2334
19786TIP3   OH280848   3.537   6.329  14.595  0.3337  0.5453 -0.2843
19786TIP3    H180849   3.442   6.334  14.587  0.3706  0.0113 -1.1212
19786TIP3    H280850   3.567   6.297  14.510  1.1720 -0.4303  0.3538
19787TIP3   OH280851   3.625   2.444  14.333  0.5359  0.4585 -0.1923
19787TIP3    H180852   3.662   2.433  14.420  0.7924  2.1624 -0.0619
19787TIP3    H280853   3.687   2.501  14.287 -0.3163  0.7447 -1.0226
19788TIP3   OH280854   1.832   0.856  10.867  0.4658  0.4370  0.0343
19788TIP3    H180855   1.927   0.850  10.874  0.5192  0.4651 -0.6128
19788TIP3    H280856   1.816   0.879  10.776 -0.1625  0.4179  0.1358
19789TIP3   OH280857   2.597   6.450   4.201 -0.3186  0.2936 -0.0277
19789TIP3    H180858   2.669   6.513   4.208 -0.2858  0.0959  2.3216
19789TIP3    H280859   2.568   6.456   4.110  0.1795  3.1445 -0.0903
19790TIP3   OH280860   2.560   1.578  12.587  0.3659  0.3450 -0.3322
19790TIP3    H180861   2.506   1.513  12.542 -0.0664 -0.5288  1.3703
19790TIP3    H280862   2.497   1.633  12.634  0.8804 -0.2799  1.1552
19791TIP3   OH280863   1.305   3.653   2.591  0.3340 -0.1979  0.7888
19791TIP3    H180864   1.273   3.567   2.618  0.1204 -0.3435  0.1113
19791TIP3    H280865   1.373   3.634   2.526 -0.6630  0.1363 -0.4031
19792TIP3   OH280866   6.701   0.048   4.854 -0.3268  0.1135  0.1121
19792TIP3    H180867   6.767   0.106   4.891  0.5961  0.1257 -1.4489
19792TIP3    H280868   6.653   0.014   4.929  1.3329  0.2567  1.2754
19793TIP3   OH280869   4.734   1.542   3.856  0.0757 -0.6461 -0.2282
19793TIP3    H180870   4.719   1.447   3.858 -1.6228 -0.3941  0.6983
19793TIP3    H280871   4.655   1.577   3.815  0.7461  0.3760 -0.6698
19794TIP3   OH280872   5.863   3.708   1.382 -0.4140  0.4171 -0.2614
19794TIP3    H180873   5.837   3.628   1.427  0.0295  0.2644 -0.2748
19794TIP3    H280874   5.835   3.695   1.291 -1.8115  0.9482  0.0530
19795TIP3   OH280875   1.792   5.305   3.301 -0.4213  0.2011 -0.0131
19795TIP3    H180876   1.758   5.394   3.293  1.7818  1.1123 -0.0479
19795TIP3    H280877   1.830   5.301   3.389  2.3879  0.4888 -1.0910
19796TIP3   OH280878   5.125   1.860   4.077  0.6005 -0.8087 -0.4127
19796TIP3    H180879   5.058   1.849   4.009  1.5521  0.5629 -1.6398
19796TIP3    H280880   5.206   1.831   4.035  1.3190  0.6832 -0.1482
19797TIP3   OH280881   3.469   5.644  16.751 -0.6050 -0.4241  0.3994
19797TIP3    H180882   3.476   5.569  16.692  1.0478 -0.0388  0.0390
19797TIP3    H280883   3.376   5.667  16.751 -1.0615 -2.1160  0.0992
19798TIP3   OH280884   1.541   6.627  11.474  0.0300  0.0875 -0.5050
19798TIP3    H180885   1.484   6.563  11.432  0.1037 -0.8109  0.6715
19798TIP3    H280886   1.575   6.580  11.551  0.6181  1.3335  0.0171
19799TIP3   OH280887   0.966   1.466  13.053  0.3281 -0.4519  0.2796
19799TIP3    H180888   0.904   1.404  13.090  1.4897 -1.2081  1.0186
19799TIP3    H280889   1.042   1.414  13.030 -0.4817 -0.1814 -3.8588
19800TIP3   OH280890   0.509   4.634   4.465 -0.8676 -0.6227  0.3679
19800TIP3    H180891   0.499   4.539   4.476 -2.1815 -0.4890  0.5185
19800TIP3    H280892   0.596   4.653   4.499 -0.5300 -1.7916  0.2166
19801TIP3   OH280893   2.275   2.744  11.895  0.9273 -0.0874  0.1879
19801TIP3    H180894   2.331   2.728  11.819 -0.3394  1.4527 -1.1536
19801TIP3    H280895   2.292   2.835  11.918 -0.2008  0.0833  0.4186
19802TIP3   OH280896   2.308   5.925   6.632 -0.1676 -0.1910 -0.1522
19802TIP3    H180897   2.378   5.907   6.695  0.4846  0.9460 -0.5348
19802TIP3    H280898   2.330   5.871   6.556 -2.5958 -4.0465  1.5594
19803TIP3   OH280899   0.418   1.788  13.717  0.2608 -0.3730  0.4827
19803TIP3    H180900   0.339   1.769  13.667 -0.1150 -2.0490  1.6282
19803TIP3    H280901   0.386   1.816  13.803  0.9147  1.0854  0.2986
19804TIP3   OH280902   1.328   6.534   1.353 -1.1413  0.5736  0.7027
19804TIP3    H180903   1.403   6.512   1.297 -1.5502 -1.0564  0.7371
19804TIP3    H280904   1.291   6.612   1.313 -0.3422  0.5042 -0.2319
19805TIP3   OH280905   1.602   0.987   0.136 -0.3123  0.4031  0.0250
19805TIP3    H180906   1.524   0.969   0.188 -0.3809  1.3002  0.2454
19805TIP3    H280907   1.591   1.078   0.107  0.2243  0.2499 -0.6842
19806TIP3   OH280908   5.268   5.014   0.387 -0.0683 -0.1566 -0.5926
19806TIP3    H180909   5.204   4.946   0.408 -0.6263 -0.1516 -2.1507
19806TIP3    H280910   5.303   5.041   0.472 -0.5646 -1.6729  0.1199
19807TIP3   OH280911   3.573   4.252   2.467 -0.0948  0.2422  0.2791
19807TIP3    H180912   3.644   4.197   2.433  0.7198 -0.0583  2.2727
19807TIP3    H280913   3.583   4.246   2.562 -1.7636  1.5864  0.5801
19808TIP3   OH280914   6.468   6.705  14.148 -0.3485 -0.1546  0.3682
19808TIP3    H180915   6.443   6.645  14.218  2.6833 -1.5445  0.4506
19808TIP3    H280916   6.542   6.754  14.185  1.3004 -0.8890 -1.7193
19809TIP3   OH280917   0.546   3.583  11.550 -0.3596  0.6374  1.0284
19809TIP3    H180918   0.472   3.578  11.489 -0.4117  0.9053  1.0695
19809TIP3    H280919   0.518   3.532  11.626 -0.1057 -0.1041  0.6369
19810TIP3   OH280920   6.437   5.258  12.663  0.0022 -0.5240  0.3544
19810TIP3    H180921   6.394   5.307  12.732  0.1011 -0.8751  0.6678
19810TIP3    H280922   6.380   5.183  12.646 -0.5247  0.0782 -0.6380
19811TIP3   OH280923   5.129   1.938  12.428 -0.4804  0.0552 -0.7474
19811TIP3    H180924   5.109   1.995  12.502 -0.6290 -1.6825  0.6292
19811TIP3    H280925   5.080   1.975  12.355 -1.7863  0.8218  0.4675
19812TIP3   OH280926   1.438   1.784   4.824 -0.2904  0.3508 -0.0336
19812TIP3    H180927   1.417   1.733   4.746 -2.3870 -0.0404  0.7345
19812TIP3    H280928   1.445   1.874   4.792 -1.4586  0.2419 -0.6387
19813TIP3   OH280929   3.698   3.923   4.813  0.5726  0.1015 -0.7385
19813TIP3    H180930   3.733   4.010   4.831 -0.5871  0.1600  1.6410
19813TIP3    H280931   3.682   3.923   4.718  1.2069  2.2099 -0.9106
19814TIP3   OH280932   6.393   2.202   0.478  0.3078 -0.2121  0.4270
19814TIP3    H180933   6.336   2.276   0.498  0.1453 -0.4342  0.7954
19814TIP3    H280934   6.466   2.212   0.540  0.3495 -0.2918  0.3901
19815TIP3   OH280935   6.644   0.113   4.022 -0.6620  0.0529  0.2831
19815TIP3    H180936   6.561   0.140   3.982  0.3095 -0.5303 -2.3470
19815TIP3    H280937   6.675   0.191   4.068 -2.7032  0.2362  1.4292
19816TIP3   OH280938   5.066   3.286   2.222  0.9946  0.0410 -0.2716
19816TIP3    H180939   5.003   3.275   2.151  2.5917  3.7208 -2.5814
19816TIP3    H280940   5.028   3.353   2.279  0.1212 -2.2646  2.0222
19817TIP3   OH280941   4.637   2.442  11.482 -0.2482  0.2072 -0.1121
19817TIP3    H180942   4.593   2.505  11.540 -0.3345  0.3095 -0.2855
19817TIP3    H280943   4.703   2.494  11.436 -0.9371  0.3837 -0.9352
19818TIP3   OH280944   3.207   0.517  13.237  0.0987 -0.3583  0.1954
19818TIP3    H180945   3.122   0.491  13.274  0.0056 -1.2326 -0.5857
19818TIP3    H280946   3.205   0.482  13.148  1.0673  0.0932 -0.0114
19819TIP3   OH280947   1.237   3.494   2.885 -0.0468 -0.5983  0.7697
19819TIP3    H180948   1.191   3.485   2.801  0.0482  1.4000  0.4392
19819TIP3    H280949   1.318   3.445   2.873 -0.8326 -1.8394  0.3559
19820TIP3   OH280950   0.202   2.041  14.197 -0.0437  0.3061  0.0170
19820TIP3    H180951   0.146   2.110  14.161  1.1922  1.4217  0.1664
19820TIP3    H280952   0.244   2.081  14.273  2.1649  0.0293 -1.0095
19821TIP3   OH280953   3.598   2.311  13.772  0.0977 -0.5570 -0.4850
19821TIP3    H180954   3.693   2.320  13.780  1.0059 -4.6012 -3.3722
19821TIP3    H280955   3.574   2.368  13.700 -0.0772  1.6237  1.1979
19822TIP3   OH280956   2.101   3.644  14.753  0.3753  0.3908  0.3986
19822TIP3    H180957   2.125   3.707  14.820  1.5655  0.7816 -0.3666
19822TIP3    H280958   2.169   3.577  14.757 -0.4768 -0.4735  0.7106
19823TIP3   OH280959   1.181   5.700   4.606 -0.9608 -0.2356 -0.1201
19823TIP3    H180960   1.170   5.711   4.700 -2.4089 -0.0813 -0.2943
19823TIP3    H280961   1.094   5.677   4.573 -0.3804 -0.8007 -1.3576
19824TIP3   OH280962   2.768   4.829  13.585  0.4462 -0.0247 -0.4906
19824TIP3    H180963   2.719   4.769  13.529  0.1761  1.2043 -1.6271
19824TIP3    H280964   2.728   4.914  13.570  1.0308  0.5069  0.8321
19825TIP3   OH280965   0.594   3.068  14.471 -0.5299 -0.2157  0.0336
19825TIP3    H180966   0.558   3.050  14.384 -0.6287 -1.0995  0.2479
19825TIP3    H280967   0.573   3.160  14.487  0.4494  0.2802 -1.3364
19826TIP3   OH280968   2.752   2.594   1.507 -0.2053  0.4147  0.2538
19826TIP3    H180969   2.713   2.509   1.487  1.0073  0.3131 -1.9581
19826TIP3    H280970   2.784   2.585   1.597  0.1559 -1.5704 -0.0227
19827TIP3   OH280971   3.159   3.182  15.364 -0.2011 -0.3720 -0.1207
19827TIP3    H180972   3.089   3.183  15.297 -1.3380 -1.4693  1.0021
19827TIP3    H280973   3.226   3.124  15.328 -0.8893 -1.1105 -0.2398
19828TIP3   OH280974   4.896   1.636   1.146  0.0436 -0.0501 -0.2320
19828TIP3    H180975   4.864   1.561   1.096 -0.1301  1.0483 -1.8184
19828TIP3    H280976   4.819   1.670   1.192  0.0810 -0.6864  0.3223
19829TIP3   OH280977   6.476   0.469  14.255 -0.2891 -0.5386  0.2279
19829TIP3    H180978   6.405   0.409  14.230  0.2852 -1.5707  1.0313
19829TIP3    H280979   6.468   0.477  14.350  0.6079 -0.5710  0.3072
19830TIP3   OH280980   3.736   0.475   0.968 -0.3246 -0.2356  0.1473
19830TIP3    H180981   3.694   0.560   0.979 -0.0409  0.1428 -1.5040
19830TIP3    H280982   3.753   0.468   0.875  2.0457 -0.9855  0.5741
19831TIP3   OH280983   3.018   0.898   2.732 -0.4567  0.3219  0.1975
19831TIP3    H180984   3.105   0.883   2.695 -0.3202  1.9831 -0.2580
19831TIP3    H280985   2.967   0.821   2.707  0.0732  0.6480 -2.1578
19832TIP3   OH280986   3.674   2.915  12.934  0.1144 -0.1035  0.3199
19832TIP3    H180987   3.586   2.898  12.901  0.3819 -0.3071 -0.3040
19832TIP3    H280988   3.731   2.908  12.857  0.6861 -0.0458  0.7268
19833TIP3   OH280989   5.443   1.098   5.455 -0.1921  0.0121  0.0751
19833TIP3    H180990   5.360   1.093   5.503 -1.2687  0.6189 -1.6124
19833TIP3    H280991   5.475   1.187   5.473 -0.2052 -0.0179  0.2510
19834TIP3   OH280992   3.588   5.898  10.500 -0.5054 -0.2329 -0.6716
19834TIP3    H180993   3.623   5.810  10.485 -0.4515 -0.0323 -1.8199
19834TIP3    H280994   3.642   5.955  10.446  0.3662  0.7316  1.1322
19835TIP3   OH280995   5.162   2.333  17.001 -0.3021  0.5589  0.3688
19835TIP3    H180996   5.135   2.424  17.013 -1.1815  0.2979  0.4284
19835TIP3    H280997   5.082   2.287  16.978 -0.0160 -0.3445  1.1343
19836TIP3   OH280998   5.112   5.960   4.882 -0.3618  0.3708 -0.6599
19836TIP3    H180999   5.087   6.037   4.933 -0.2730 -0.8292  1.3226
19836TIP3    H281000   5.203   5.944   4.905  0.1671  0.6346 -2.4063
19837TIP3   OH281001   6.703   1.877  12.565  0.1375 -0.2612 -0.3259
19837TIP3    H181002   6.741   1.924  12.639 -1.1921 -0.9921  0.8434
19837TIP3    H281003   6.752   1.910  12.489  2.1296 -0.1536  0.9454
19838TIP3   OH281004   3.624   3.359   1.563  0.2863  0.2552 -0.5367
19838TIP3    H181005   3.560   3.407   1.615  1.1606  0.2674  0.5738
19838TIP3    H281006   3.709   3.392   1.594  0.8487 -0.4724 -1.2708
19839TIP3   OH281007   6.555   1.365  16.039 -0.7700 -0.2044 -0.0773
19839TIP3    H181008   6.481   1.330  15.990 -0.4174 -0.3667 -0.5087
19839TIP3    H281009   6.602   1.288  16.070 -0.3109 -0.1192 -0.5371
19840TIP3   OH281010   6.115   3.206   6.017 -0.1729 -0.5580  0.0382
19840TIP3    H181011   6.142   3.194   6.108  1.4848 -0.6469 -0.4353
19840TIP3    H281012   6.029   3.165   6.012  0.4643 -2.1406  1.1560
19841TIP3   OH281013   4.639   1.006   4.096  0.0678 -0.1242 -0.1734
19841TIP3    H181014   4.551   0.999   4.060  0.7383 -2.6742 -1.5634
19841TIP3    H281015   4.632   0.974   4.185 -0.8422  2.3326  0.7280
19842TIP3   OH281016   3.088   0.809   6.338  0.2248 -0.1417 -0.3568
19842TIP3    H181017   3.002   0.850   6.335  0.6052  0.8434  1.1656
19842TIP3    H281018   3.079   0.736   6.399 -0.1151 -1.5789 -2.0597
19843TIP3   OH281019   5.830   2.191  12.671  0.5135 -0.3057 -0.1835
19843TIP3    H181020   5.896   2.176  12.738  1.6577 -0.9150 -1.3904
19843TIP3    H281021   5.868   2.259  12.615  0.0456 -0.5445 -0.8003
19844TIP3   OH281022   2.862   0.797   1.292  0.1129 -0.0337  0.1323
19844TIP3    H181023   2.769   0.809   1.271 -0.4143 -2.1270  1.0194
19844TIP3    H281024   2.862   0.736   1.366  2.1849  0.6965  0.7930
19845TIP3   OH281025   5.003   0.231   3.442  0.1570 -0.0790  0.1103
19845TIP3    H181026   5.041   0.143   3.440 -0.1904 -0.2240 -0.1588
19845TIP3    H281027   5.073   0.287   3.477 -0.0190 -0.6496  1.4401
19846TIP3   OH281028   2.401   1.603  11.926 -0.1036 -0.4686  0.0894
19846TIP3    H181029   2.386   1.660  11.851 -1.0908  0.1057  0.7119
19846TIP3    H281030   2.496   1.608  11.941 -0.2732  1.7198  0.6742
19847TIP3   OH281031   5.783   1.235   1.353  0.4372  0.3388  0.3275
19847TIP3    H181032   5.830   1.270   1.429  0.8089 -1.4149  0.9546
19847TIP3    H281033   5.802   1.297   1.283  1.2437  1.2510  1.3092
19848TIP3   OH281034   5.629   1.997  13.889 -0.0113  0.0580  0.0735
19848TIP3    H181035   5.724   2.002  13.898 -0.0770  1.2623  0.1758
19848TIP3    H281036   5.596   1.999  13.978 -0.1600  0.0970  0.0172
19849TIP3   OH281037   4.551   4.717   4.273 -0.0869 -0.3095 -0.4781
19849TIP3    H181038   4.559   4.729   4.367 -1.0872 -0.0588 -0.4059
19849TIP3    H281039   4.565   4.624   4.259  0.7392 -0.2404 -0.1723
19850TIP3   OH281040   5.825   0.211  11.517 -0.4156  0.0362  0.2955
19850TIP3    H181041   5.904   0.174  11.476 -0.2845  0.3810  0.2321
19850TIP3    H281042   5.786   0.138  11.564  0.3332  0.0270  0.9202
19851TIP3   OH281043   1.093   0.269  15.693 -0.1197  0.6615 -0.2650
19851TIP3    H181044   1.031   0.336  15.666 -0.8406 -0.0447 -0.3935
19851TIP3    H281045   1.136   0.307  15.770  0.3959  1.7769 -1.0639
19852TIP3   OH281046   4.922   3.462  10.197 -0.3396 -0.3118 -0.4746
19852TIP3    H181047   4.843   3.508  10.224  0.1363  0.1992  0.0643
19852TIP3    H281048   4.978   3.531  10.160  0.4053 -0.4341  0.3975
19853TIP3   OH281049   3.128   6.735  11.139  0.2296 -0.4564  0.4388
19853TIP3    H181050   3.170   6.778  11.064  2.8304  1.4217  2.7607
19853TIP3    H281051   3.035   6.749  11.125  0.7238  1.7419 -1.3699
19854TIP3   OH281052   5.074   0.586  16.082 -0.0032  0.0561  0.1676
19854TIP3    H181053   5.051   0.675  16.107 -1.2578 -0.3290  0.4613
19854TIP3    H281054   5.035   0.531  16.150  0.3420 -0.7486 -0.2682
19855TIP3   OH281055   4.029   5.577  16.187  0.1947  0.4900 -0.2013
19855TIP3    H181056   4.015   5.590  16.093 -0.9516 -1.2182 -0.3047
19855TIP3    H281057   4.124   5.577  16.197  0.3380  0.6029 -1.3743
19856TIP3   OH281058   5.128   5.423   1.234  0.0427 -0.2444  0.1513
19856TIP3    H181059   5.072   5.410   1.158 -1.4083 -0.9703  1.2837
19856TIP3    H281060   5.189   5.492   1.208  0.6059 -1.5131 -2.1617
19857TIP3   OH281061   0.843   0.845  15.181 -0.5499  0.0483 -0.4145
19857TIP3    H181062   0.769   0.904  15.193 -0.3507  0.4949 -1.3057
19857TIP3    H281063   0.908   0.897  15.135 -0.4496 -0.9120 -1.3894
19858TIP3   OH281064   1.962   1.134   1.105 -0.0832  0.1018 -0.0216
19858TIP3    H181065   1.866   1.135   1.108 -0.1231  3.1072  2.1824
19858TIP3    H281066   1.989   1.162   1.192  2.8685 -1.0498 -0.4442
19859TIP3   OH281067   1.009   4.704   5.286 -0.1073 -0.2019 -0.2242
19859TIP3    H181068   1.065   4.702   5.363 -1.2273 -0.2477  0.6304
19859TIP3    H281069   0.920   4.711   5.322 -0.5385  2.5485 -1.5545
19860TIP3   OH281070   5.628   6.703   2.036  0.4618  0.2787 -0.5141
19860TIP3    H181071   5.558   6.752   2.079  0.9119  1.7201 -1.3778
19860TIP3    H281072   5.700   6.706   2.098  0.2638  0.0871 -0.2692
19861TIP3   OH281073   6.320   3.026   5.455  0.3859  0.6392  0.2268
19861TIP3    H181074   6.295   2.941   5.491  0.9222  0.2551 -0.2812
19861TIP3    H281075   6.370   3.005   5.376  0.9198  1.4100  0.3425
19862TIP3   OH281076   0.525   4.554   2.003 -0.3351 -0.3325 -0.0068
19862TIP3    H181077   0.453   4.599   2.046 -0.9876 -0.0281 -1.3709
19862TIP3    H281078   0.483   4.484   1.953  0.2820 -0.0178 -0.9887
19863TIP3   OH281079   2.925   2.541   2.191 -0.3272 -0.3202  0.1129
19863TIP3    H181080   3.016   2.549   2.163 -0.0871 -2.2192  0.2026
19863TIP3    H281081   2.874   2.548   2.110 -0.2522  1.9850  0.1948
19864TIP3   OH281082   0.285   3.191  15.542  0.4954  0.1113  0.1075
19864TIP3    H181083   0.191   3.186  15.522  0.3657  0.3983  0.6187
19864TIP3    H281084   0.323   3.115  15.499  0.7374  2.2082 -3.9283
19865TIP3   OH281085   0.916   4.303   0.296  0.6453 -0.1676  0.0032
19865TIP3    H181086   0.900   4.215   0.264  2.7559 -1.1121  1.3684
19865TIP3    H281087   0.942   4.353   0.218 -2.2011 -0.1902 -1.0994
19866TIP3   OH281088   1.601   6.611  10.953 -0.3572  0.0123  0.2428
19866TIP3    H181089   1.540   6.538  10.949  0.5102 -0.7792  0.9671
19866TIP3    H281090   1.687   6.573  10.933 -0.3263  1.4911 -2.9273
19867TIP3   OH281091   6.477   5.533   6.902  0.9621 -0.1966 -0.7783
19867TIP3    H181092   6.401   5.554   6.848 -0.1789 -0.3067  0.7177
19867TIP3    H281093   6.552   5.540   6.842 -0.3696 -2.0023 -2.7978
19868TIP3   OH281094   0.691   4.572  10.618 -0.4216 -0.2591 -0.3608
19868TIP3    H181095   0.758   4.505  10.607 -0.4292 -0.2368 -0.5510
19868TIP3    H281096   0.726   4.629  10.687 -0.8897 -1.0432  0.5548
19869TIP3   OH281097   6.587   6.445  13.207 -0.1304  0.3344 -0.0865
19869TIP3    H181098   6.611   6.414  13.294  2.3782 -0.2060 -0.8930
19869TIP3    H281099   6.633   6.529  13.198 -0.5211  0.4835 -0.8330
19870TIP3   OH281100   1.050   2.305  15.262 -0.2850  0.4896 -0.2143
19870TIP3    H181101   0.970   2.340  15.303 -1.4993 -1.0858 -1.1521
19870TIP3    H281102   1.035   2.211  15.255  1.6459  0.1560 -0.5091
19871TIP3   OH281103   5.175   2.255  14.114  0.1714  0.2378  0.3311
19871TIP3    H181104   5.201   2.215  14.197 -0.4634 -0.6631  0.1067
19871TIP3    H281105   5.249   2.239  14.056 -0.1175 -0.7147  0.2140
19872TIP3   OH281106   0.447   4.190  11.878  0.0148  0.1452 -0.4052
19872TIP3    H181107   0.373   4.185  11.937  1.3615  0.2292  1.3722
19872TIP3    H281108   0.515   4.235  11.928  0.5320  2.2328 -2.7829
19873TIP3   OH281109   6.310   3.062  15.516  0.1311  0.1877 -0.0608
19873TIP3    H181110   6.270   3.116  15.584  0.3746  0.0698  0.1743
19873TIP3    H281111   6.404   3.071  15.528  0.2959 -2.8811  2.1496
19874TIP3   OH281112   5.617   2.430  13.535 -0.2579  0.3210 -0.5271
19874TIP3    H181113   5.564   2.507  13.556 -0.6002 -0.2036  0.6587
19874TIP3    H281114   5.591   2.365  13.601  1.5911 -0.0813 -0.1309
19875TIP3   OH281115   0.337   5.857   2.044  0.3142  0.7712  0.4853
19875TIP3    H181116   0.255   5.905   2.054  0.2325  0.3407  2.2051
19875TIP3    H281117   0.356   5.861   1.950 -3.3355 -1.8591 -0.6101
19876TIP3   OH281118   4.076   5.327  13.362  0.0439  0.4408  0.2754
19876TIP3    H181119   4.078   5.320  13.267 -0.9233  1.7880  0.1295
19876TIP3    H281120   3.984   5.340  13.384  0.1909 -0.3414  1.4425
19877TIP3   OH281121   6.776   3.463   0.805 -0.5724  0.2040  0.1616
19877TIP3    H181122   6.812   3.480   0.892 -1.6674 -0.5898  0.7988
19877TIP3    H281123   6.816   3.380   0.778 -0.6252  0.1854  0.1398
19878TIP3   OH281124   2.675   1.047   3.588  0.9346  1.0528 -0.3500
19878TIP3    H181125   2.638   1.089   3.665 -0.5940  0.9182 -0.9763
19878TIP3    H281126   2.627   1.086   3.514  0.1027 -1.0797 -1.0122
19879TIP3   OH281127   2.049   1.335  16.593 -0.1764 -0.2045 -0.2800
19879TIP3    H181128   1.979   1.399  16.606 -0.4173 -0.5990  0.4882
19879TIP3    H281129   2.063   1.298  16.680  3.1318  1.9939  0.3004
19880TIP3   OH281130   2.736   1.635  13.945 -0.4784 -0.6775 -0.2060
19880TIP3    H181131   2.726   1.558  13.890 -0.6170 -0.6756 -0.1835
19880TIP3    H281132   2.689   1.704  13.899 -0.2220 -0.5662 -0.3042
19881TIP3   OH281133   1.850   5.886   3.978 -0.2322  0.0619 -0.0931
19881TIP3    H181134   1.896   5.861   4.058  1.1574  2.9718  0.1387
19881TIP3    H281135   1.910   5.863   3.907 -0.6296 -0.7304 -0.1842
19882TIP3   OH281136   1.524   5.446  16.446  0.3148  0.3804  0.1481
19882TIP3    H181137   1.517   5.472  16.537  0.7487  2.4243 -0.3586
19882TIP3    H281138   1.584   5.509  16.407  1.0768 -1.1481 -1.3061
19883TIP3   OH281139   4.238   0.242  12.293 -0.0852 -0.5568  0.3992
19883TIP3    H181140   4.267   0.246  12.384 -0.1311 -0.3629  0.4054
19883TIP3    H281141   4.188   0.160  12.287 -2.0989  0.5583  1.1394
19884TIP3   OH281142   1.012   1.730  10.881 -0.6901 -0.2078  0.0870
19884TIP3    H181143   1.057   1.720  10.965 -0.9105  0.9419  0.3510
19884TIP3    H281144   1.028   1.821  10.856 -1.0762 -0.3928 -0.8619
19885TIP3   OH281145   5.974   4.067  15.402  0.4632 -0.7529 -0.3969
19885TIP3    H181146   5.891   4.027  15.426  0.2916 -0.1162  0.1077
19885TIP3    H281147   6.040   4.006  15.435  0.2229 -0.1917  1.2326
19886TIP3   OH281148   3.785   5.804  11.439 -0.4118  0.1285 -0.3129
19886TIP3    H181149   3.769   5.836  11.528  0.9426  2.1842 -0.7613
19886TIP3    H281150   3.702   5.818  11.393 -1.1010 -0.8936  0.5694
19887TIP3   OH281151   1.280   1.871   2.051 -0.2660  0.5223  0.4291
19887TIP3    H181152   1.207   1.933   2.052 -0.5475  0.1966  0.9325
19887TIP3    H281153   1.241   1.788   2.080  0.7750  0.8973  3.2223
19888TIP3   OH281154   5.202   2.323  11.979 -0.2464  0.1204  0.1670
19888TIP3    H181155   5.175   2.405  12.020 -0.8575  0.3709 -0.6910
19888TIP3    H281156   5.145   2.315  11.902  0.7092 -0.4340 -0.5116
19889TIP3   OH281157   2.353   6.645  11.938 -0.2179  0.0619  0.2772
19889TIP3    H181158   2.297   6.571  11.961 -0.2789 -0.1730 -0.6143
19889TIP3    H281159   2.442   6.611  11.950 -0.2122 -0.6531 -1.5695
19890TIP3   OH281160   2.981   0.856   2.192  0.1756  0.1448  0.2225
19890TIP3    H181161   2.921   0.870   2.118  0.4344  0.5961  0.0945
19890TIP3    H281162   2.923   0.832   2.264 -0.0755 -0.3682 -0.1363
19891TIP3   OH281163   1.557   4.231  14.840  0.0528 -0.2685  0.2095
19891TIP3    H181164   1.521   4.309  14.798 -0.6321 -0.8343 -0.2711
19891TIP3    H281165   1.612   4.190  14.774 -1.3517 -1.3854 -0.3425
19892TIP3   OH281166   5.638   0.828  13.805  0.2188 -0.4263  0.1363
19892TIP3    H181167   5.564   0.784  13.763 -1.7617  0.6944  2.1802
19892TIP3    H281168   5.700   0.757  13.824  0.0026 -1.3184 -2.1495
19893TIP3   OH281169   1.731   5.617  14.303  0.2289  0.0138  0.5790
19893TIP3    H181170   1.772   5.567  14.232  0.7363  1.5372 -0.2537
19893TIP3    H281171   1.653   5.567  14.326  0.5735 -1.0088 -0.4098
19894TIP3   OH281172   4.469   1.705   0.818  0.4217  0.0594 -0.2608
19894TIP3    H181173   4.481   1.610   0.826 -0.8975 -0.2055 -0.9880
19894TIP3    H281174   4.460   1.719   0.723 -2.5239  0.4187 -0.0244
19895TIP3   OH281175   5.141   3.921   0.829 -0.4140  0.1978  1.0283
19895TIP3    H181176   5.133   3.910   0.923  0.8393  0.7000  1.2157
19895TIP3    H281177   5.235   3.929   0.813 -0.5883 -0.0425 -0.2832
19896TIP3   OH281178   3.067   0.825   4.276  0.0087  0.2122  0.0606
19896TIP3    H181179   2.986   0.774   4.267 -1.0759  2.0331 -1.3382
19896TIP3    H281180   3.118   0.803   4.198 -1.1347  2.2297 -1.3682
19897TIP3   OH281181   1.740   2.310  14.015  0.1466 -0.3255  0.3822
19897TIP3    H181182   1.752   2.387  13.960  0.5120  0.2077  1.1855
19897TIP3    H281183   1.669   2.334  14.075  0.4658 -0.4985  0.8315
19898TIP3   OH281184   3.187   2.782   0.124  0.4546 -0.3731  0.3991
19898TIP3    H181185   3.194   2.692   0.156 -3.1724 -1.3379 -1.1190
19898TIP3    H281186   3.186   2.774   0.029 -0.8432  1.1592  0.2453
19899TIP3   OH281187   2.184   0.716  11.976  0.4847  0.6761  0.1262
19899TIP3    H181188   2.205   0.671  11.895  1.1037 -1.9205  1.6134
19899TIP3    H281189   2.109   0.771  11.954 -0.5254 -1.3196 -1.7968
19900TIP3   OH281190   2.352   2.272   1.654  0.1273  0.0711 -0.4333
19900TIP3    H181191   2.305   2.278   1.737  0.9816  0.3487  0.0471
19900TIP3    H281192   2.292   2.226   1.595 -1.0064  0.9843 -0.0486
19901TIP3   OH281193   1.228   5.489  15.690  0.3852  0.0164 -0.0255
19901TIP3    H181194   1.281   5.426  15.740 -0.0054 -0.4261 -0.1679
19901TIP3    H281195   1.182   5.540  15.757 -0.2618 -0.6841  0.0633
19902TIP3   OH281196   3.570   2.712   0.622 -0.0435 -0.0620 -0.0643
19902TIP3    H181197   3.631   2.639   0.634  0.1888 -0.0294 -0.9423
19902TIP3    H281198   3.588   2.743   0.533 -0.5402  0.6963  0.0917
19903TIP3   OH281199   1.765   2.836   3.191  0.2401 -0.1914 -0.3376
19903TIP3    H181200   1.731   2.747   3.189  1.4542 -0.6982  0.4260
19903TIP3    H281201   1.781   2.853   3.284 -1.6448  1.5098 -0.2492
19904TIP3   OH281202   3.321   0.734   3.136 -0.5914  0.0948 -0.3168
19904TIP3    H181203   3.410   0.701   3.145 -0.6176  0.3649  1.2388
19904TIP3    H281204   3.323   0.790   3.059  0.9067  1.0873  0.4104
19905TIP3   OH281205   3.197   4.898   6.634  0.0483 -0.1667  0.6299
19905TIP3    H181206   3.241   4.940   6.560  0.6826 -0.4585  0.8308
19905TIP3    H281207   3.151   4.824   6.596 -0.0151 -0.0410  0.4585
19906TIP3   OH281208   3.271   5.927   1.745  0.5831 -0.8204 -0.2057
19906TIP3    H181209   3.221   5.862   1.795  0.5654 -1.7473 -1.3859
19906TIP3    H281210   3.218   5.945   1.668 -0.3576  2.1096  0.9733
19907TIP3   OH281211   0.288   5.809   4.871  0.1886 -0.3579 -1.0228
19907TIP3    H181212   0.318   5.893   4.905  0.6893 -0.7522 -0.4625
19907TIP3    H281213   0.342   5.744   4.916  0.0640 -0.9616 -1.7211
19908TIP3   OH281214   5.573   2.307  13.025  0.3121  0.5414  0.1061
19908TIP3    H181215   5.665   2.329  13.014  0.4801  0.3114  0.9495
19908TIP3    H281216   5.525   2.372  12.974  0.9507  0.4517 -0.6195
19909TIP3   OH281217   0.573   0.898   4.658  0.8318  0.3888 -0.2976
19909TIP3    H181218   0.562   0.849   4.740  1.1191 -0.5398 -0.8005
19909TIP3    H281219   0.527   0.846   4.592  1.9531  0.2771 -1.0253
19910TIP3   OH281220   1.300   0.217  13.663 -0.2497 -0.0868 -0.4182
19910TIP3    H181221   1.279   0.152  13.729  1.6060  0.1320  0.4477
19910TIP3    H281222   1.316   0.298  13.712  1.2039  0.0677 -1.0851
19911TIP3   OH281223   3.939   4.124   0.624 -0.0723 -0.2119  0.0448
19911TIP3    H181224   4.020   4.171   0.644  0.1752 -1.4835  2.3854
19911TIP3    H281225   3.960   4.032   0.640 -1.5547 -0.7468 -0.8794
19912TIP3   OH281226   1.488   3.768  16.525  0.1347  0.3152 -0.0559
19912TIP3    H181227   1.562   3.724  16.484  0.3763 -0.6844  1.3737
19912TIP3    H281228   1.484   3.731  16.613 -0.9844  1.6366  0.4880
19913TIP3   OH281229   3.231   3.008  16.470 -0.2776  0.1360  0.2576
19913TIP3    H181230   3.248   2.963  16.552 -0.9295  0.0852  0.3683
19913TIP3    H281231   3.309   3.062  16.456  0.2674 -0.5914  0.4080
19914TIP3   OH281232   2.591   4.347  12.375  0.0056  0.2781  0.3428
19914TIP3    H181233   2.515   4.298  12.406  0.6358  0.0489  1.5843
19914TIP3    H281234   2.583   4.432  12.419  0.9132 -0.0495  1.1597
19915TIP3   OH281235   6.013   6.148  12.411  0.1595 -0.5375 -0.2546
19915TIP3    H181236   6.011   6.212  12.483 -1.8912 -0.0781 -0.6487
19915TIP3    H281237   5.981   6.067  12.451  0.4261 -0.6702 -0.3124
19916TIP3   OH281238   4.074   5.158  11.189  0.6333  0.4500  0.5943
19916TIP3    H181239   3.986   5.126  11.168  0.1728  1.9373  0.0846
19916TIP3    H281240   4.133   5.097  11.144  0.0022 -1.8162  2.6531
19917TIP3   OH281241   6.376   5.623   4.369 -0.1239 -0.2411 -0.3226
19917TIP3    H181242   6.335   5.547   4.327 -0.0715 -0.7856  0.5845
19917TIP3    H281243   6.336   5.628   4.455  0.8927 -0.0960  0.1627
19918TIP3   OH281244   0.458   4.614   1.270  0.0287 -0.1735  0.4665
19918TIP3    H181245   0.393   4.557   1.310 -0.9642  1.2094  0.9233
19918TIP3    H281246   0.536   4.559   1.260 -0.4450 -1.2300  2.1240
19919TIP3   OH281247   3.346   2.211  11.912 -0.4023 -0.0421 -0.1125
19919TIP3    H181248   3.279   2.274  11.938 -1.3196 -1.1419  0.2703
19919TIP3    H281249   3.357   2.226  11.818 -0.9880  0.3415 -0.1254
19920TIP3   OH281250   2.004   0.897   6.380 -0.3627 -0.1661  0.5831
19920TIP3    H181251   2.029   0.974   6.432 -0.5911 -0.6913  1.5082
19920TIP3    H281252   1.920   0.920   6.342  1.3454  1.6148 -2.5396
19921TIP3   OH281253   1.374   1.960  15.336 -0.4363  0.0485  0.0810
19921TIP3    H181254   1.455   1.910  15.325 -0.3847  0.1126  0.1702
19921TIP3    H281255   1.385   2.037  15.281 -0.4005  0.1015  0.1631
19922TIP3   OH281256   4.549   6.144  12.781 -0.2120  0.3610 -0.0052
19922TIP3    H181257   4.588   6.178  12.861  1.7470 -0.0424 -0.7334
19922TIP3    H281258   4.494   6.071  12.811 -0.2786  0.8249  1.0476
19923TIP3   OH281259   3.026   1.762  10.922  0.3263 -0.5461  0.6096
19923TIP3    H181260   3.045   1.673  10.892  1.0178  0.2605 -1.4805
19923TIP3    H281261   3.102   1.814  10.896 -0.7554  0.9691  0.3266
19924TIP3   OH281262   0.649   5.451   2.564 -0.0631  0.6354  0.6990
19924TIP3    H181263   0.738   5.484   2.563 -0.5721  2.1263 -0.5486
19924TIP3    H281264   0.595   5.529   2.581 -1.1761 -0.0145  0.2527
19925TIP3   OH281265   2.654   0.212   3.175 -0.3094  0.0787  0.4462
19925TIP3    H181266   2.647   0.267   3.253 -2.1696  0.1190  0.2819
19925TIP3    H281267   2.638   0.123   3.207 -1.0129  0.0876  0.1424
19926TIP3   OH281268   6.599   6.157  15.125  0.7976  0.5196  0.0300
19926TIP3    H181269   6.648   6.085  15.084  0.1002  1.1736 -2.0991
19926TIP3    H281270   6.646   6.236  15.098  0.0613  1.0060  0.1462
19927TIP3   OH281271   2.949   1.822  14.022  0.2811 -0.1683 -0.1174
19927TIP3    H181272   2.900   1.891  13.978  1.3146  0.8934  0.3297
19927TIP3    H281273   2.906   1.741  13.996 -0.5173  0.5902 -1.2439
19928TIP3   OH281274   0.022   1.018  12.245 -0.4411  0.4980 -0.0264
19928TIP3    H181275   0.111   1.031  12.211 -0.5273 -0.4445 -0.6523
19928TIP3    H281276   0.009   1.090  12.306  1.2827 -0.1292  1.1554
19929TIP3   OH281277   3.637   3.895  11.023 -0.1915 -0.5878  0.4437
19929TIP3    H181278   3.726   3.926  11.007 -0.8143  1.8511  1.2686
19929TIP3    H281279   3.628   3.894  11.119 -1.2132 -0.2101  0.3719
19930TIP3   OH281280   0.752   2.658  14.708 -0.2473  0.0504  0.1328
19930TIP3    H181281   0.821   2.721  14.731 -0.3728  1.3798 -2.6648
19930TIP3    H281282   0.671   2.708  14.718 -0.7631 -1.0856  2.0643
19931TIP3   OH281283   4.763   5.013  16.068 -0.1863  0.5476  0.5055
19931TIP3    H181284   4.677   5.003  16.025 -0.3237  2.4389  0.2431
19931TIP3    H281285   4.743   5.056  16.151  0.6481  3.7951 -0.8043
19932TIP3   OH281286   3.351   4.841  16.095 -0.0473  0.2030 -0.2718
19932TIP3    H181287   3.330   4.825  16.187  1.5013 -0.4859 -0.0044
19932TIP3    H281288   3.381   4.932  16.093  0.3112  0.0932 -0.0081
19933TIP3   OH281289   3.638   1.423  13.732  0.3249  0.0581 -0.5423
19933TIP3    H181290   3.603   1.504  13.770 -0.5623 -0.8901  0.7120
19933TIP3    H281291   3.568   1.392  13.674 -0.7807 -1.4998  1.4824
19934TIP3   OH281292   3.687   1.780   4.554 -0.0001 -0.1169 -0.2197
19934TIP3    H181293   3.674   1.833   4.632 -1.2347  1.5689 -1.4858
19934TIP3    H281294   3.605   1.731   4.545 -0.6238  1.0774 -1.4054
19935TIP3   OH281295   5.598   4.439  14.608 -0.4360  0.8424 -0.3333
19935TIP3    H181296   5.687   4.472  14.602 -1.3029  3.9730  1.6490
19935TIP3    H281297   5.571   4.425  14.517  2.5135 -1.9340 -0.9450
19936TIP3   OH281298   4.162   1.489   3.928 -0.3580  0.2016 -0.0585
19936TIP3    H181299   4.219   1.461   3.857 -1.0593  0.4847 -0.7420
19936TIP3    H281300   4.202   1.570   3.960 -0.5574  0.5844 -0.7605
19937TIP3   OH281301   3.751   0.317  16.101  0.4826  0.7673 -0.1798
19937TIP3    H181302   3.802   0.242  16.134  1.7667  1.2900 -0.9043
19937TIP3    H281303   3.804   0.393  16.124  0.2043  1.3060 -1.2783
19938TIP3   OH281304   2.040   2.109  16.499  0.4561 -0.1622 -0.5094
19938TIP3    H181305   2.131   2.089  16.519  0.8107  2.0887  0.4126
19938TIP3    H281306   1.995   2.106  16.584 -0.0869 -0.1861 -0.7933
19939TIP3   OH281307   5.561   1.397   6.231  0.1901 -0.6966  0.1037
19939TIP3    H181308   5.474   1.357   6.228 -0.5631  0.7070  1.5151
19939TIP3    H281309   5.574   1.431   6.143 -1.2313  0.1229  0.1767
19940TIP3   OH281310   0.542   6.524  14.031  0.5644  0.3623 -0.1015
19940TIP3    H181311   0.538   6.450  13.970 -0.0022 -0.3229  0.7314
19940TIP3    H281312   0.573   6.597  13.978  3.9711 -1.0886 -0.3233
19941TIP3   OH281313   1.808   0.159  13.327 -0.2953  0.0503  0.3027
19941TIP3    H181314   1.772   0.077  13.362 -3.3379  0.6795 -1.0944
19941TIP3    H281315   1.750   0.227  13.359  0.1284  1.2662 -1.3844
19942TIP3   OH281316   4.664   3.189   4.789 -0.3066 -0.3811 -0.0811
19942TIP3    H181317   4.759   3.183   4.795 -0.1486  2.3257  2.3990
19942TIP3    H281318   4.647   3.254   4.722 -0.4366 -0.8200 -0.4813
19943TIP3   OH281319   6.764   3.312   4.668 -0.2317  0.0168  0.4873
19943TIP3    H181320   6.809   3.249   4.724  1.3404  0.9609  0.3608
19943TIP3    H281321   6.739   3.383   4.726 -0.0294  0.2688  0.2696
19944TIP3   OH281322   3.787   6.130   4.120  0.6284 -0.0926  0.1726
19944TIP3    H181323   3.731   6.066   4.076  2.3019 -1.6474  0.1525
19944TIP3    H281324   3.768   6.213   4.077 -0.5603 -0.8508 -0.8233
19945TIP3   OH281325   6.514   5.902   0.633  0.0466  0.2568  0.2321
19945TIP3    H181326   6.436   5.853   0.606 -0.5513  2.1804 -1.9339
19945TIP3    H281327   6.587   5.850   0.601 -0.5045 -0.0439 -0.5903
19946TIP3   OH281328   2.921   1.332   4.090 -0.0534  0.2552  0.3183
19946TIP3    H181329   2.925   1.241   4.121  2.4962  1.0755  2.7314
19946TIP3    H281330   3.006   1.369   4.113 -0.1845  2.7058 -2.5965
19947TIP3   OH281331   0.579   1.187   3.553 -0.3710  0.2153 -0.1241
19947TIP3    H181332   0.651   1.200   3.615 -1.8587 -0.1361  1.7664
19947TIP3    H281333   0.594   1.252   3.485  1.5846  0.3093  0.3543
19948TIP3   OH281334   3.660   0.585   2.683  0.0745  0.4041 -0.0794
19948TIP3    H181335   3.589   0.588   2.619 -0.2805  0.0782  0.3023
19948TIP3    H281336   3.669   0.676   2.713 -0.3979  0.3884  0.1114
19949TIP3   OH281337   0.991   1.233   2.731  0.8603 -0.5811  0.0942
19949TIP3    H181338   0.953   1.293   2.666  2.9493  1.5596  0.6925
19949TIP3    H281339   1.059   1.187   2.684  1.3416 -0.1687  0.3802
19950TIP3   OH281340   1.631   0.264   4.784 -0.5548 -0.1418 -0.1328
19950TIP3    H181341   1.609   0.175   4.812 -1.3691  0.4723  1.3081
19950TIP3    H281342   1.593   0.272   4.697 -1.9457 -0.6615  0.4060
19951TIP3   OH281343   5.788   2.502   6.116 -0.2882 -0.1512 -0.1042
19951TIP3    H181344   5.819   2.553   6.041  1.0623  0.2162  0.6782
19951TIP3    H281345   5.693   2.517   6.117 -0.1415  1.0023 -0.8952
19952TIP3   OH281346   0.221   3.136  16.033  0.3109  0.6161  0.0403
19952TIP3    H181347   0.160   3.185  16.088 -2.3008 -1.8860 -0.3706
19952TIP3    H281348   0.206   3.170  15.945  0.6112  0.9961  0.1321
19953TIP3   OH281349   5.895   0.127   5.067 -0.0495  0.2463 -0.1426
19953TIP3    H181350   5.842   0.195   5.027 -0.8713 -1.2079 -1.6573
19953TIP3    H281351   5.964   0.109   5.003  0.9869  0.5892  0.8447
19954TIP3   OH281352   1.567   5.861   3.615 -0.4191  0.5539  0.5105
19954TIP3    H181353   1.571   5.877   3.709 -0.1563  2.5416  0.1968
19954TIP3    H281354   1.516   5.780   3.607  0.3301 -0.1501  2.3846
19955TIP3   OH281355   5.096   6.808   1.388  0.8979 -0.2274  0.0531
19955TIP3    H181356   5.174   6.856   1.362  0.0963 -0.0807 -2.3367
19955TIP3    H281357   5.025   6.872   1.379 -0.0489 -1.4703 -2.1506
19956TIP3   OH281358   0.245   6.254   3.219  0.6118  0.2799 -0.0491
19956TIP3    H181359   0.268   6.283   3.130 -0.1247  0.6892 -0.1119
19956TIP3    H281360   0.328   6.256   3.267  1.0142  0.0608 -0.7256
19957TIP3   OH281361   5.713   3.833   5.428  0.2565  0.1995  0.1747
19957TIP3    H181362   5.681   3.900   5.488  0.6834 -0.9128  1.7077
19957TIP3    H281363   5.808   3.842   5.430  0.3091 -0.3363  0.2610
19958TIP3   OH281364   0.359   6.743   0.875  0.2199  0.8599 -0.0851
19958TIP3    H181365   0.434   6.720   0.819 -0.3025 -1.0716 -0.0456
19958TIP3    H281366   0.387   6.721   0.963 -0.1083  0.9012  0.0306
19959TIP3   OH281367   2.712   0.701  15.661  0.7356  0.2842  0.3305
19959TIP3    H181368   2.720   0.796  15.650  0.4128  0.6726  2.9707
19959TIP3    H281369   2.704   0.688  15.755  0.0206 -2.3301 -0.0202
19960TIP3   OH281370   5.358   4.411  15.044  0.5964  0.8631  0.1621
19960TIP3    H181371   5.287   4.452  14.995  0.4967  0.1331 -0.3266
19960TIP3    H281372   5.438   4.443  15.001  0.5590  1.4822  0.5501
19961TIP3   OH281373   3.700   0.214   2.381 -0.3554  0.1746 -0.1230
19961TIP3    H181374   3.669   0.216   2.472  0.0835  0.3017  0.0279
19961TIP3    H281375   3.735   0.302   2.366 -1.3648  0.4825 -0.7525
19962TIP3   OH281376   4.544   2.650   3.929  0.1551  0.3765 -0.1892
19962TIP3    H181377   4.586   2.575   3.972  0.6393 -0.4818 -2.0452
19962TIP3    H281378   4.536   2.716   3.997  0.7314 -0.9680  1.2336
19963TIP3   OH281379   0.296   3.534   3.626 -0.0959  0.2334  0.4111
19963TIP3    H181380   0.304   3.587   3.546 -0.1445  1.3779  1.1459
19963TIP3    H281381   0.274   3.597   3.694  0.1007 -0.7109  1.3667
19964TIP3   OH281382   5.003   2.771  12.202 -0.0559  0.7671 -0.2348
19964TIP3    H181383   5.065   2.817  12.258 -0.2363 -0.2890  0.8657
19964TIP3    H281384   4.996   2.684  12.240  1.3021 -0.6845 -3.0443
19965TIP3   OH281385   4.181   3.512  17.136 -0.3910 -0.2362  0.3873
19965TIP3    H181386   4.165   3.571  17.062 -1.5748 -1.2740 -0.2293
19965TIP3    H281387   4.244   3.448  17.102  0.4179  0.3001  0.8555
19966TIP3   OH281388   1.739   4.494   3.698 -0.2801  0.3153 -0.8360
19966TIP3    H181389   1.747   4.566   3.761  1.0118 -2.5628  2.6312
19966TIP3    H281390   1.646   4.472   3.698 -0.1248 -0.5733  1.3654
19967TIP3   OH281391   5.645   3.069  10.760  0.1923  0.2762 -0.2247
19967TIP3    H181392   5.609   3.157  10.762  1.0515  0.6851  2.7790
19967TIP3    H281393   5.740   3.081  10.754  0.2838 -0.4489 -0.3728
19968TIP3   OH281394   2.368   2.639   6.878 -0.4282  0.2241 -0.1711
19968TIP3    H181395   2.344   2.647   6.785  0.6352  2.2536 -0.3136
19968TIP3    H281396   2.293   2.596   6.918 -0.9320 -0.6754 -1.9434
19969TIP3   OH281397   0.612   5.609   3.437 -0.1489  0.0056  0.0585
19969TIP3    H181398   0.523   5.644   3.441 -0.1379  0.0017  0.3663
19969TIP3    H281399   0.658   5.653   3.508 -0.1536 -0.6718  0.4940
19970TIP3   OH281400   1.051   3.366  12.821 -0.2519  0.6176 -0.7845
19970TIP3    H181401   1.025   3.365  12.729  0.1604  0.2771 -0.8998
19970TIP3    H281402   1.130   3.312  12.825  0.5425  1.7773 -0.4654
19971TIP3   OH281403   2.337   2.870   4.576 -0.1132 -0.1610  0.2068
19971TIP3    H181404   2.368   2.782   4.554 -1.5075 -0.5637 -0.2650
19971TIP3    H281405   2.406   2.908   4.630  2.7059  0.1838 -3.3028
19972TIP3   OH281406   1.579   3.637  11.044  0.3174  0.2458 -0.0001
19972TIP3    H181407   1.531   3.604  10.968  2.1578 -3.8868  0.3812
19972TIP3    H281408   1.640   3.701  11.008 -0.5897  0.2750 -1.5714
19973TIP3   OH281409   0.037   5.038  12.124 -0.0206 -0.0066  0.5685
19973TIP3    H181410   0.072   4.988  12.050 -0.5756 -0.0095  0.2951
19973TIP3    H281411  -0.040   4.988  12.151 -0.4613  0.5852  0.4323
19974TIP3   OH281412   4.593   3.913  12.158  0.1416  0.3324  0.7797
19974TIP3    H181413   4.573   3.996  12.202 -1.9014  1.0562 -1.3115
19974TIP3    H281414   4.607   3.851  12.229 -0.5418  1.9679  2.4230
19975TIP3   OH281415   2.345   0.609  12.820  1.0359  0.0280 -0.4495
19975TIP3    H181416   2.315   0.666  12.750 -0.6186 -1.2810 -0.8746
19975TIP3    H281417   2.354   0.667  12.896 -0.5529  0.8721 -0.8614
19976TIP3   OH281418   1.968   4.820  12.976  0.4156  0.3215 -0.0935
19976TIP3    H181419   2.032   4.832  13.046 -2.1129  0.5128  2.3487
19976TIP3    H281420   1.982   4.895  12.918  3.1596 -0.3163 -0.3737
19977TIP3   OH281421   2.835   3.539   4.609 -0.1279  0.2185 -0.1015
19977TIP3    H181422   2.822   3.453   4.648 -0.3843 -0.3055 -1.3188
19977TIP3    H281423   2.849   3.522   4.516  2.1187  1.2927 -0.0385
19978TIP3   OH281424   5.135   3.470   1.311  0.8317 -0.5316 -0.3922
19978TIP3    H181425   5.112   3.550   1.358  0.4447 -0.3335 -0.9144
19978TIP3    H281426   5.064   3.409   1.331 -0.8096  0.4355 -2.8893
19979TIP3   OH281427   0.646   6.461   0.493  0.2707  0.3152 -0.0897
19979TIP3    H181428   0.718   6.403   0.470 -0.2252 -0.0841 -0.6647
19979TIP3    H281429   0.604   6.420   0.568 -0.5991 -0.5358 -1.0173
19980TIP3   OH281430   3.230   0.097  16.995 -0.1286 -0.3848 -0.0555
19980TIP3    H181431   3.210   0.004  16.985 -2.5266 -0.1030  1.4298
19980TIP3    H281432   3.223   0.114  17.089  2.9183  0.8222  0.0904
19981TIP3   OH281433   6.105   0.773   2.180  0.5614  0.2824  0.3667
19981TIP3    H181434   6.156   0.754   2.259  1.1871  1.9917  0.4204
19981TIP3    H281435   6.151   0.727   2.110 -0.2133 -1.5664  1.0101
19982TIP3   OH281436   2.267   6.347  15.236 -0.2031  0.2848  0.0214
19982TIP3    H181437   2.334   6.378  15.175  0.3479 -0.5137  0.2003
19982TIP3    H281438   2.184   6.369  15.194  0.1721  0.6929 -0.5174
19983TIP3   OH281439   0.226   0.837   3.644 -0.4286  0.2149  0.3588
19983TIP3    H181440   0.305   0.787   3.622 -0.7086  0.5571 -1.5785
19983TIP3    H281441   0.248   0.928   3.621 -1.8930  0.0943 -1.7835
19984TIP3   OH281442   5.618   3.743   5.175 -0.3811  0.2967 -0.4519
19984TIP3    H181443   5.680   3.670   5.182 -0.0094  0.4933 -1.5990
19984TIP3    H281444   5.640   3.800   5.248  0.7335  0.3174 -0.7896
19985TIP3   OH281445   0.757   4.578  13.888 -0.5601  0.1905  0.5969
19985TIP3    H181446   0.825   4.558  13.824  0.1508 -2.2727  1.9606
19985TIP3    H281447   0.805   4.609  13.965 -0.9213 -1.3004  1.4744
19986TIP3   OH281448   4.847   6.411  11.511  0.3022 -0.3177  0.0777
19986TIP3    H181449   4.783   6.480  11.496 -1.3418 -1.8085 -0.1692
19986TIP3    H281450   4.819   6.369  11.593  1.4461 -0.4958  0.3957
19987TIP3   OH281451   5.749   4.274   2.026 -0.0057  0.7222 -0.1746
19987TIP3    H181452   5.685   4.212   1.993  0.4326  0.0989  0.1328
19987TIP3    H281453   5.726   4.286   2.119  0.8606 -0.2196  0.1844
19988TIP3   OH281454   5.012   4.983  11.654 -0.4243  0.5296  0.1036
19988TIP3    H181455   5.023   4.976  11.749 -0.3091 -0.8044  0.0088
19988TIP3    H281456   4.975   5.071  11.641  1.0405  1.3643  1.2349
19989TIP3   OH281457   4.499   3.737   5.650  0.0958  0.0586  0.5377
19989TIP3    H181458   4.576   3.680   5.654  0.8487  0.8069 -1.6210
19989TIP3    H281459   4.508   3.795   5.726  2.0418  0.5150  0.0258
19990TIP3   OH281460   2.672   0.166   3.502 -0.6072 -0.3829 -0.2867
19990TIP3    H181461   2.603   0.139   3.563 -0.4898  2.4112  1.2276
19990TIP3    H281462   2.634   0.240   3.454  1.3074  1.2773  0.6407
19991TIP3   OH281463   0.645   0.336   4.050 -0.3675  0.1075  0.2089
19991TIP3    H181464   0.601   0.255   4.076 -0.8773  0.5580  0.7948
19991TIP3    H281465   0.581   0.405   4.069  0.7622  0.8382  1.6146
19992TIP3   OH281466   3.092   4.503   5.353  0.0381 -0.3906  0.2198
19992TIP3    H181467   3.126   4.449   5.282  1.0814  1.1920 -0.5634
19992TIP3    H281468   3.114   4.455   5.433 -0.2438 -1.7201 -0.4727
19993TIP3   OH281469   2.401   1.896   4.916  0.2110  0.1426  0.8531
19993TIP3    H181470   2.357   1.904   5.001 -0.6843 -0.5193  0.4758
19993TIP3    H281471   2.396   1.802   4.896 -0.0320  0.3573 -0.1480
19994TIP3   OH281472   5.275   2.111   4.349  0.6426  0.1545  0.4455
19994TIP3    H181473   5.357   2.159   4.363  1.1071 -0.0187 -1.3277
19994TIP3    H281474   5.296   2.049   4.279 -0.9381 -0.0525  0.1214
19995TIP3   OH281475   3.318   5.987  15.706 -0.1742  0.4230  0.1541
19995TIP3    H181476   3.295   6.061  15.762 -0.3648 -0.0369  0.6913
19995TIP3    H281477   3.293   6.015  15.617  0.7821  1.4347  0.1795
19996TIP3   OH281478   0.886   5.595   1.073 -0.6019 -0.0459 -0.4168
19996TIP3    H181479   0.963   5.539   1.069  0.0803  0.6541  1.6238
19996TIP3    H281480   0.814   5.539   1.044  0.4530 -1.1326 -0.9964
19997TIP3   OH281481   6.400   6.327   4.969 -0.0894 -0.1285 -0.2132
19997TIP3    H181482   6.367   6.335   4.880 -0.1117 -0.3907 -0.2298
19997TIP3    H281483   6.322   6.318   5.024 -0.1738  1.6749  0.0323
19998TIP3   OH281484   0.648   4.051   0.429 -0.4689  0.5270 -0.2100
19998TIP3    H181485   0.725   4.017   0.384 -0.6570  1.3906 -1.2328
19998TIP3    H281486   0.624   3.983   0.491 -0.8915 -1.2364 -2.2160
19999TIP3   OH281487   0.825   5.812  13.198 -0.1190 -0.5225  0.3245
19999TIP3    H181488   0.780   5.733  13.227 -2.3523  0.7592  0.5612
19999TIP3    H281489   0.887   5.832  13.269  0.1554 -1.7757  0.4608
20000TIP3   OH281490   1.661   1.913   3.830  0.0809 -0.0550 -0.6896
20000TIP3    H181491   1.666   1.919   3.734 -0.9480 -0.5585 -0.7929
20000TIP3    H281492   1.568   1.900   3.848  0.4786 -2.0243  0.2385
20001TIP3   OH281493   4.959   6.577  14.766  0.6854  0.6807  0.1336
20001TIP3    H181494   5.032   6.639  14.768  0.6619  0.7127  2.0463
20001TIP3    H281495   4.939   6.561  14.858  0.5916 -2.0743 -0.2862
20002TIP3   OH281496   3.648   4.849   1.833 -0.4380 -0.9052 -0.0083
20002TIP3    H181497   3.616   4.774   1.884 -1.5593 -0.9944 -0.8103
20002TIP3    H281498   3.632   4.924   1.890 -0.5380 -1.1348  0.2721
20003TIP3   OH281499   4.446   5.455  12.684 -0.0224  0.6552 -0.1242
20003TIP3    H181500   4.475   5.414  12.766 -1.3015  1.9108  1.0316
20003TIP3    H281501   4.469   5.547  12.694  1.6328  0.5139 -2.1017
20004TIP3   OH281502   5.177   3.995   1.298  0.4493  0.1403  0.0462
20004TIP3    H181503   5.129   4.062   1.347 -0.2790 -0.5396  0.2743
20004TIP3    H281504   5.207   3.934   1.364 -0.2785 -0.6176 -0.3072
20005TIP3   OH281505   5.375   0.403  16.782 -0.0686  0.3244  0.0341
20005TIP3    H181506   5.468   0.406  16.808 -0.2280  0.1935  0.6471
20005TIP3    H281507   5.352   0.311  16.788  0.0659  0.1942 -1.2696
20006TIP3   OH281508   0.925   2.695   4.533  0.2322  0.0976  0.0408
20006TIP3    H181509   0.879   2.764   4.580 -0.1388  0.2783 -0.5710
20006TIP3    H281510   0.881   2.691   4.448  1.2061  0.1317 -0.4809
20007TIP3   OH281511   5.406   3.617   2.839  0.4593 -0.4755  0.2353
20007TIP3    H181512   5.401   3.547   2.774  1.2704 -2.3293  2.0895
20007TIP3    H281513   5.475   3.590   2.899 -1.0972  0.4970  2.6155
20008TIP3   OH281514   4.129   6.774  17.026 -0.1189 -0.4963  0.4795
20008TIP3    H181515   4.207   6.825  17.048  0.3854 -1.3672  0.7469
20008TIP3    H281516   4.162   6.698  16.979 -0.9993  0.2730 -1.5278
20009TIP3   OH281517   1.843   0.767   1.120  0.1140  0.5799 -0.3099
20009TIP3    H181518   1.925   0.811   1.141  0.4714  0.0230 -0.4997
20009TIP3    H281519   1.863   0.718   1.040 -0.0842 -0.3968  0.2214
20010TIP3   OH281520   2.861   4.298   2.578 -0.6515  0.5898  0.4850
20010TIP3    H181521   2.887   4.221   2.629  2.0268  0.2336 -1.2418
20010TIP3    H281522   2.799   4.264   2.513  0.3646 -0.0931 -0.1400
20011TIP3   OH281523   2.072   4.854  16.061  0.1980 -0.4004 -0.0114
20011TIP3    H181524   2.004   4.814  16.006 -0.5729  1.1145 -0.2125
20011TIP3    H281525   2.053   4.820  16.149  0.7231 -1.9163 -0.4470
20012TIP3   OH281526   2.522   0.360  13.441  0.3444 -0.3299 -0.2398
20012TIP3    H181527   2.529   0.370  13.346  0.3662 -0.4752 -0.2535
20012TIP3    H281528   2.597   0.306  13.465  0.5751  0.0549 -0.0854
20013TIP3   OH281529   5.610   3.824  12.724 -0.0341 -0.2215 -0.5573
20013TIP3    H181530   5.526   3.792  12.756 -0.9399  3.0654  0.8331
20013TIP3    H281531   5.586   3.885  12.654  0.6735  3.4284  2.0749
20014TIP3   OH281532   4.385   0.195  15.967 -0.0520 -0.6505  0.1832
20014TIP3    H181533   4.463   0.243  15.937 -0.6888  0.2581 -0.0668
20014TIP3    H281534   4.420   0.116  16.008  1.1583  0.6646  1.8663
20015TIP3   OH281535   1.696   0.921  14.664 -0.1047 -0.2699  0.2468
20015TIP3    H181536   1.653   1.005  14.647  0.4035 -0.0463  0.0403
20015TIP3    H281537   1.775   0.944  14.712 -0.7739 -0.7767  1.6258
20016TIP3   OH281538   5.633   4.883   0.518  0.7025 -0.4513  0.4900
20016TIP3    H181539   5.622   4.943   0.592  0.7546 -0.9978  0.9524
20016TIP3    H281540   5.698   4.819   0.549  1.3307 -0.2270 -0.3253
20017TIP3   OH281541   2.849   5.703  15.294  0.0719  0.4163  0.4276
20017TIP3    H181542   2.825   5.653  15.372 -0.9313  0.2293  0.0134
20017TIP3    H281543   2.789   5.672  15.226 -0.3798  1.9536  0.0796
20018TIP3   OH281544   3.803   1.371   2.628 -0.3042 -0.0477  0.3542
20018TIP3    H181545   3.859   1.416   2.566 -0.0809 -0.7060  0.0677
20018TIP3    H281546   3.727   1.429   2.638 -0.0935  0.3161 -0.1143
20019TIP3   OH281547   6.035   5.961  13.335  0.5885 -0.1348 -0.0848
20019TIP3    H181548   6.111   5.906  13.354  1.5175  0.5226 -1.6346
20019TIP3    H281549   6.057   6.045  13.375  1.3003  0.4231 -1.5336
20020TIP3   OH281550   2.849   5.726   5.650 -0.6758  0.0289 -0.0424
20020TIP3    H181551   2.759   5.759   5.647  0.2319  2.7540 -1.2172
20020TIP3    H281552   2.894   5.775   5.581  1.2249 -2.9527 -1.1294
20021TIP3   OH281553   4.079   2.992   4.538 -0.3628  0.0823  0.4197
20021TIP3    H181554   3.987   2.990   4.513  0.1889 -2.7869 -2.0235
20021TIP3    H281555   4.090   2.919   4.599  0.5596 -0.7404 -0.6859
20022TIP3   OH281556   1.299   4.484   3.914 -0.2742 -0.2160 -0.0840
20022TIP3    H181557   1.345   4.448   3.839  1.7287 -1.0916  1.4849
20022TIP3    H281558   1.330   4.574   3.921 -2.8921  1.0005 -2.1006
20023TIP3   OH281559   4.751   1.500   5.068  0.1665  0.5370  0.1061
20023TIP3    H181560   4.744   1.459   4.982  0.1918 -0.1972  0.4461
20023TIP3    H281561   4.687   1.571   5.066 -1.1022 -0.5787  0.0937
20024TIP3   OH281562   1.880   3.742   2.268 -0.0079  0.4638 -0.1031
20024TIP3    H181563   1.800   3.791   2.287 -1.7494 -1.4199 -2.0359
20024TIP3    H281564   1.882   3.734   2.173  1.8418 -0.6157 -0.0390
20025TIP3   OH281565   6.119   0.648  14.130 -0.4875 -0.0777 -0.4275
20025TIP3    H181566   6.177   0.599  14.071  1.5220  0.1941  1.1821
20025TIP3    H281567   6.113   0.735  14.091 -0.3506 -0.3120 -0.9760
20026TIP3   OH281568   5.575   5.885   2.027  0.5773 -0.1456  0.2797
20026TIP3    H181569   5.544   5.805   1.985 -3.1193  2.1923 -2.0437
20026TIP3    H281570   5.518   5.897   2.102  0.3299  0.8107 -0.0455
20027TIP3   OH281571   1.186   3.838   0.477 -0.3743  0.1437 -0.5691
20027TIP3    H181572   1.257   3.774   0.472  1.3285  1.6179  2.1090
20027TIP3    H281573   1.212   3.907   0.416 -0.1362  0.0943 -0.5268
20028TIP3   OH281574   5.850   5.469  16.232 -0.0828  0.3986 -0.1182
20028TIP3    H181575   5.922   5.445  16.173 -1.0159 -1.2328 -0.6704
20028TIP3    H281576   5.882   5.443  16.319 -0.4108 -1.4984 -0.5030
20029TIP3   OH281577   3.940   2.919  11.426 -0.0832 -0.2674  0.2106
20029TIP3    H181578   3.892   2.896  11.347 -0.9857 -2.3385  1.2716
20029TIP3    H281579   3.937   3.015  11.429  0.3414 -0.0995 -2.4208
20030TIP3   OH281580   0.069   5.954  16.644  0.5196  0.2622  0.1736
20030TIP3    H181581   0.159   5.986  16.655  0.8544 -0.7113  0.3337
20030TIP3    H281582   0.077   5.859  16.646 -0.4997  0.1647  0.0040
20031TIP3   OH281583   4.543   0.414  10.616 -0.3187  0.2140  0.8891
20031TIP3    H181584   4.585   0.329  10.605  0.5247  0.6439  0.6990
20031TIP3    H281585   4.453   0.393  10.639 -0.2592 -0.7336  0.3413
20032TIP3   OH281586   3.048   1.965   3.229 -0.4307 -0.7637  0.5037
20032TIP3    H181587   2.968   1.989   3.275  0.0879  0.4074  0.8345
20032TIP3    H281588   3.117   1.976   3.294  0.2244  0.1868 -0.3323
20033TIP3   OH281589   4.652   0.912  14.549  0.6080  0.1840 -0.6037
20033TIP3    H181590   4.718   0.868  14.496  1.4870  2.5204 -1.6056
20033TIP3    H281591   4.700   0.985  14.590 -0.8950  0.6672  0.3670
20034TIP3   OH281592   3.648   5.655   3.612  0.2054 -0.4715  0.8914
20034TIP3    H181593   3.730   5.608   3.619  1.6183  1.7799  0.5307
20034TIP3    H281594   3.615   5.632   3.525  1.2230 -0.2464  0.4353
20035TIP3   OH281595   6.686   2.254   4.827  0.1618 -0.0600 -0.4057
20035TIP3    H181596   6.627   2.214   4.762 -0.0969  0.5191 -0.5337
20035TIP3    H281597   6.773   2.229   4.798 -0.0232 -1.1906 -0.0389
20036TIP3   OH281598   5.696   3.991   3.789  0.3575  0.0095 -0.4729
20036TIP3    H181599   5.701   4.020   3.880  2.5276 -1.9268  0.0911
20036TIP3    H281600   5.720   3.899   3.791 -1.7026 -0.6861 -2.7847
20037TIP3   OH281601   5.812   4.971  13.718 -0.7469 -0.4975  0.5019
20037TIP3    H181602   5.834   4.889  13.762  1.0545 -0.8585 -0.9757
20037TIP3    H281603   5.853   5.039  13.771 -0.1914 -0.7626  0.4170
20038TIP3   OH281604   1.430   2.644  11.881  0.4431 -0.0103 -0.1541
20038TIP3    H181605   1.525   2.647  11.891  0.6081 -1.7748 -0.9259
20038TIP3    H281606   1.411   2.711  11.815  1.3701 -0.9116 -1.3561
20039TIP3   OH281607   2.544   1.727  11.725 -0.3775 -0.9106 -0.4576
20039TIP3    H181608   2.537   1.675  11.644  0.6018 -2.1654  0.2314
20039TIP3    H281609   2.629   1.770  11.718 -0.9808  0.2795 -0.8023
20040TIP3   OH281610   0.962   2.359  11.599 -0.0580  0.7102 -0.3831
20040TIP3    H181611   1.006   2.425  11.654 -0.3888  0.5980  0.0171
20040TIP3    H281612   1.033   2.301  11.571  0.1713  0.9913 -0.3964
20041TIP3   OH281613   1.386   2.050  16.984 -0.1636 -0.0137 -0.0535
20041TIP3    H181614   1.328   2.107  16.934  1.5698 -0.3312 -2.5723
20041TIP3    H281615   1.335   1.969  16.995 -1.2624  0.7052  0.3968
20042TIP3   OH281616   3.652   5.536   4.070  0.9671 -0.2540 -0.0232
20042TIP3    H181617   3.619   5.466   4.014  0.6208 -0.3988  0.3683
20042TIP3    H281618   3.726   5.497   4.117  1.3381 -0.0966 -0.4621
20043TIP3   OH281619   3.433   4.286  14.025  0.2373 -0.3679  0.0713
20043TIP3    H181620   3.346   4.283  14.066  0.0452  4.1048  0.4193
20043TIP3    H281621   3.494   4.269  14.097 -0.2836  1.6303  1.0458
20044TIP3   OH281622   2.299   4.825   2.284 -0.3135 -0.1908 -0.2119
20044TIP3    H181623   2.267   4.908   2.319  1.7047  0.5264  0.0291
20044TIP3    H281624   2.275   4.828   2.191 -3.5519 -1.0461  0.4686
20045TIP3   OH281625   4.561   1.204   3.397  0.1863 -0.1173 -0.2175
20045TIP3    H181626   4.583   1.120   3.358  1.6393  0.4953 -0.7857
20045TIP3    H281627   4.601   1.201   3.485 -1.2648 -0.6713  0.4558
20046TIP3   OH281628   4.077   0.415  15.714 -0.2290 -0.4468  0.1354
20046TIP3    H181629   4.099   0.496  15.669 -1.2435 -1.2172 -1.8544
20046TIP3    H281630   4.108   0.428  15.804  1.3974  1.3659 -0.6228
20047TIP3   OH281631   5.594   1.897   2.819  0.5670  0.0365  0.3712
20047TIP3    H181632   5.639   1.819   2.852  0.4776  0.2641  1.0455
20047TIP3    H281633   5.618   1.901   2.727  0.1489 -1.0909  0.1947
20048TIP3   OH281634   4.818   4.314   2.195  0.6627 -0.0635 -0.0187
20048TIP3    H181635   4.798   4.383   2.258 -0.6755 -1.2165  0.8642
20048TIP3    H281636   4.909   4.291   2.212 -0.0705 -1.4001  2.6108
20049TIP3   OH281637   2.601   2.579  10.958 -0.2295  0.2044  0.2220
20049TIP3    H181638   2.612   2.491  10.922 -0.9793  0.8227 -1.6441
20049TIP3    H281639   2.678   2.591  11.014  0.4384 -1.2348 -0.3216
20050TIP3   OH281640   1.512   6.162  16.863  0.0964  0.1049 -0.4356
20050TIP3    H181641   1.473   6.216  16.794  0.3815  0.6638 -0.1606
20050TIP3    H281642   1.499   6.212  16.943  0.9141  0.0467 -0.2664
20051TIP3   OH281643   6.700   1.164  13.309 -0.2469  0.7104  0.1925
20051TIP3    H181644   6.719   1.099  13.241  0.8358  0.4544  0.7110
20051TIP3    H281645   6.620   1.206  13.281 -0.7875 -0.6250 -0.3367
20052TIP3   OH281646   5.988   0.245  10.759 -0.0588  0.8051 -0.0163
20052TIP3    H181647   6.021   0.297  10.686 -1.8507  1.6491 -0.2818
20052TIP3    H281648   5.952   0.309  10.820  1.6765  0.1503  1.8288
20053TIP3   OH281649   6.223   3.683  13.108 -0.0121 -0.5155  0.2248
20053TIP3    H181650   6.187   3.655  13.191 -2.3027 -1.5919 -1.0557
20053TIP3    H281651   6.180   3.767  13.090 -1.5755 -1.5294 -1.0359
20054TIP3   OH281652   2.665   6.441  16.854  0.0778 -0.0809  0.0178
20054TIP3    H181653   2.664   6.505  16.925  2.1294  2.2765 -1.8825
20054TIP3    H281654   2.585   6.459  16.804 -0.7309 -0.9030  0.9779
20055TIP3   OH281655   6.360   3.891   3.542 -0.7294  0.4194 -0.1032
20055TIP3    H181656   6.381   3.811   3.589  1.8787 -0.4844 -2.5479
20055TIP3    H281657   6.289   3.867   3.483 -0.4319  0.1168 -0.3348
20056TIP3   OH281658   2.394   6.668   3.044 -0.3761  0.1857  0.6691
20056TIP3    H181659   2.305   6.701   3.044 -0.3884  0.1535  0.7062
20056TIP3    H281660   2.420   6.665   2.952 -1.4341 -2.5530  0.3605
20057TIP3   OH281661   2.955   3.108  15.173 -0.4551 -0.4731  0.1245
20057TIP3    H181662   3.004   3.068  15.101 -0.1563 -1.7574  1.0146
20057TIP3    H281663   2.869   3.128  15.136 -0.1321 -0.6240 -0.7229
20058TIP3   OH281664   5.528   6.023   3.972  0.2509 -0.3082  0.0142
20058TIP3    H181665   5.559   6.091   3.912 -1.5334  1.0113  0.5248
20058TIP3    H281666   5.510   6.068   4.054  0.9121 -1.7715  1.0220
20059TIP3   OH281667   1.788   2.821  13.895 -0.2474  0.2787  0.0249
20059TIP3    H181668   1.720   2.787  13.836  0.7132  0.3946 -1.1932
20059TIP3    H281669   1.785   2.763  13.971 -0.1435 -1.1733 -1.0410
20060TIP3   OH281670   6.099   3.774   2.443 -0.2368  0.0288  0.2520
20060TIP3    H181671   6.015   3.819   2.453 -0.6610 -0.4177 -0.9979
20060TIP3    H281672   6.158   3.841   2.407 -0.3635  0.0628  0.1059
20061TIP3   OH281673   3.280   0.546  13.955 -0.5042  0.3729  0.2797
20061TIP3    H181674   3.361   0.588  13.982 -0.1045 -1.0032  1.3535
20061TIP3    H281675   3.300   0.452  13.957 -1.3238  0.0926 -2.1198
20062TIP3   OH281676   2.027   6.276  12.253 -0.1575 -0.2328  0.5025
20062TIP3    H181677   1.996   6.358  12.213 -0.4035 -0.5678 -0.0056
20062TIP3    H281678   1.970   6.208  12.216  1.3902 -0.9224 -0.7763
20063TIP3   OH281679   1.309   1.565   6.176  0.7058  0.6125  0.3706
20063TIP3    H181680   1.223   1.585   6.139 -0.1760 -0.9664  1.4667
20063TIP3    H281681   1.306   1.601   6.265  1.3682  0.9374  0.2709
20064TIP3   OH281682   1.848   2.884  16.638 -0.0011  0.2299  0.0493
20064TIP3    H181683   1.869   2.940  16.713 -0.9883 -1.7434  1.9211
20064TIP3    H281684   1.854   2.795  16.672  0.1424 -0.7905 -2.4346
20065TIP3   OH281685   3.752   3.134   1.703  0.2566  0.0194  0.3024
20065TIP3    H181686   3.722   3.199   1.640  1.3240  2.2353  1.9315
20065TIP3    H281687   3.834   3.101   1.665  0.0288  0.0854 -0.2584
20066TIP3   OH281688   5.642   5.181  13.189 -0.1773 -0.0437 -0.7721
20066TIP3    H181689   5.673   5.270  13.205  0.2754 -0.0490 -1.5985
20066TIP3    H281690   5.598   5.156  13.271  0.5116  0.5881 -0.1934
20067TIP3   OH281691   6.493   2.038   0.284 -0.2793  0.0217 -0.0595
20067TIP3    H181692   6.449   1.955   0.300  1.5708 -1.0893 -0.3783
20067TIP3    H281693   6.457   2.098   0.349 -0.2652 -1.5719  1.4845
20068TIP3   OH281694   6.238   0.276  11.957 -0.1586 -0.3848 -0.3339
20068TIP3    H181695   6.312   0.239  12.005 -0.6759 -1.0407 -0.0231
20068TIP3    H281696   6.184   0.319  12.023  1.3347  2.5940 -0.8984
20069TIP3   OH281697   6.125   5.007   1.083  0.1301  0.2706 -0.9338
20069TIP3    H181698   6.103   4.995   0.991  2.4765  0.0629 -1.5313
20069TIP3    H281699   6.060   4.955   1.131  0.1351 -1.3612 -2.6038
20070TIP3   OH281700   0.777   1.189   3.741  0.6832  0.1164  0.1128
20070TIP3    H181701   0.842   1.140   3.792 -0.2574 -0.7689  0.5029
20070TIP3    H281702   0.734   1.246   3.805  0.2423 -0.2066  0.1127
20071TIP3   OH281703   4.653   4.319  12.234 -0.2153 -0.1215 -0.3428
20071TIP3    H181704   4.695   4.236  12.257  2.7846  0.4234 -3.2029
20071TIP3    H281705   4.723   4.371  12.195 -2.3373  3.2402 -0.0378
20072TIP3   OH281706   2.014   1.639   4.300  0.6047 -0.7620  0.5201
20072TIP3    H181707   1.968   1.689   4.233 -0.2949 -2.3678 -0.1133
20072TIP3    H281708   1.951   1.573   4.329  1.3573 -0.8312  2.1417
20073TIP3   OH281709   4.361   0.456   1.109 -0.1567 -0.3493  0.6206
20073TIP3    H181710   4.301   0.405   1.053 -0.1014 -0.8666  1.0264
20073TIP3    H281711   4.376   0.537   1.060 -1.0303 -0.2998  0.4175
20074TIP3   OH281712   0.052   0.613   0.165  0.1375 -0.2076  0.9083
20074TIP3    H181713  -0.039   0.588   0.177  0.3384 -0.7086  1.4256
20074TIP3    H281714   0.078   0.574   0.081 -0.6659  1.5474 -0.2149
20075TIP3   OH281715   6.205   6.265   5.378  0.4155 -0.1031  0.2846
20075TIP3    H181716   6.149   6.308   5.442  1.6423  3.0252 -0.5465
20075TIP3    H281717   6.275   6.226   5.430 -1.4463 -2.4903  1.1714
20076TIP3   OH281718   6.791   0.562  16.577  0.0335 -0.7222  0.3030
20076TIP3    H181719   6.846   0.635  16.606 -0.5784  0.7530 -1.9313
20076TIP3    H281720   6.846   0.484  16.586  2.7153  0.6994 -2.0973
20077TIP3   OH281721   0.233   3.144   4.464  0.5995  0.1390  0.4182
20077TIP3    H181722   0.232   3.197   4.543 -1.4759 -0.5960  0.9397
20077TIP3    H281723   0.212   3.055   4.494  3.1202 -0.8909 -0.5370
20078TIP3   OH281724   4.503   2.592   4.312  0.6768  0.4050 -0.4210
20078TIP3    H181725   4.493   2.665   4.252 -0.1927  0.9231  0.3216
20078TIP3    H281726   4.497   2.514   4.257 -2.4094  0.7896 -0.7963
20079TIP3   OH281727   4.520   5.746   5.072 -0.1828  0.2964 -0.4222
20079TIP3    H181728   4.576   5.677   5.108  1.2326  2.2680  1.3384
20079TIP3    H281729   4.566   5.777   4.994  0.5383  1.0263  0.2843
20080TIP3   OH281730   5.729   4.231  12.605 -0.2098  0.3498  0.0496
20080TIP3    H181731   5.691   4.203  12.522  0.9290  0.4167 -0.5115
20080TIP3    H281732   5.822   4.211  12.597 -0.1223  0.0865  1.4258
20081TIP3   OH281733   2.948   4.798  16.512 -0.2190  0.3229  0.7266
20081TIP3    H181734   2.936   4.716  16.560  1.3435 -3.1374 -4.0717
20081TIP3    H281735   2.878   4.799  16.448  0.4005  2.2539  0.0209
20082TIP3   OH281736   4.413   1.102   1.682 -0.3650 -0.1052  0.5299
20082TIP3    H181737   4.420   1.007   1.691 -0.5338 -0.0650  1.1089
20082TIP3    H281738   4.325   1.116   1.646 -0.4934 -0.1445  0.8290
20083TIP3   OH281739   0.236   1.887   1.902 -0.3540 -0.8648 -0.3352
20083TIP3    H181740   0.193   1.851   1.980 -0.1789 -0.3481  0.0021
20083TIP3    H281741   0.327   1.899   1.929 -0.7080  1.2296  0.0404
20084TIP3   OH281742   3.060   5.495  12.129  0.2965 -0.0670  0.4396
20084TIP3    H181743   3.091   5.515  12.217  1.6715 -2.7071  0.6564
20084TIP3    H281744   3.083   5.573  12.078  1.2637  0.7380  2.0030
20085TIP3   OH281745   2.391   0.866   1.817 -0.5502  0.1670 -0.0286
20085TIP3    H181746   2.444   0.923   1.873  0.2710 -0.6890  0.0912
20085TIP3    H281747   2.300   0.889   1.839 -0.2608 -0.3614  1.9031
20086TIP3   OH281748   1.118   2.783   3.375  0.2492 -0.5189 -0.3994
20086TIP3    H181749   1.139   2.726   3.449  1.2581 -1.2398 -1.2040
20086TIP3    H281750   1.195   2.840   3.365 -0.4935  0.5983  0.0134
20087TIP3   OH281751   3.393   0.298  12.591  0.2164 -0.6684 -0.6135
20087TIP3    H181752   3.468   0.248  12.624  0.0906 -0.4021  0.1041
20087TIP3    H281753   3.335   0.232  12.552  0.9084 -0.8482 -1.3440
20088TIP3   OH281754   4.204   5.828  11.496  0.0326 -0.5885 -0.2349
20088TIP3    H181755   4.275   5.798  11.438 -0.1650  1.3564 -1.5844
20088TIP3    H281756   4.167   5.748  11.532  2.0816 -1.7276 -0.4931
20089TIP3   OH281757   6.056   0.169   3.538  0.3572  0.1239 -0.6135
20089TIP3    H181758   6.071   0.135   3.626 -0.2792 -1.5990 -1.1350
20089TIP3    H281759   6.088   0.259   3.541 -0.1858  0.2952  1.5350
20090TIP3   OH281760   3.572   0.112   2.856  0.8450  0.1801  0.2519
20090TIP3    H181761   3.661   0.093   2.885  0.8050  0.0003  0.2569
20090TIP3    H281762   3.516   0.067   2.920  0.7377  1.2147  0.9014
20091TIP3   OH281763   2.238   5.940   2.904  0.7019  0.2494  0.3347
20091TIP3    H181764   2.165   5.954   2.843  0.1038 -0.0685  0.9675
20091TIP3    H281765   2.304   5.895   2.852  0.1398 -0.1551 -0.0418
20092TIP3   OH281766   0.034   5.721   3.400  0.4025 -0.1954 -0.0870
20092TIP3    H181767  -0.036   5.658   3.384  0.8192 -0.8155  0.4990
20092TIP3    H281768   0.002   5.803   3.361 -0.7946 -0.3854  0.4600
20093TIP3   OH281769   4.279   2.333   0.209 -0.2581  0.9478  0.2113
20093TIP3    H181770   4.222   2.321   0.285 -1.9750  4.4524 -0.3485
20093TIP3    H281771   4.333   2.408   0.231 -0.7520  2.0078 -1.9347
20094TIP3   OH281772   5.180   1.933   3.490 -0.4781  0.2017 -0.3489
20094TIP3    H181773   5.207   2.002   3.549  0.1701 -1.3489  1.2491
20094TIP3    H281774   5.153   1.861   3.547  1.2956 -1.8160 -1.8836
20095TIP3   OH281775   5.807   5.206  16.924  0.1917 -0.2119  0.2673
20095TIP3    H181776   5.759   5.150  16.863 -1.7409  1.4314  0.1862
20095TIP3    H281777   5.752   5.209  17.002  1.5090 -0.4241  1.2466
20096TIP3   OH281778   1.750   2.423   5.954  0.1533 -0.0808  0.3905
20096TIP3    H181779   1.690   2.385   5.890 -0.1159 -0.2469  0.7349
20096TIP3    H281780   1.746   2.517   5.939  2.9889 -0.2431 -2.4172
20097TIP3   OH281781   1.010   2.625   1.167 -0.5355  0.2018  0.1016
20097TIP3    H181782   1.048   2.568   1.100  0.2238  1.1686 -0.3174
20097TIP3    H281783   0.950   2.682   1.118 -2.0460 -0.8376  0.6566
20098TIP3   OH281784   3.270   2.014  12.692  0.5131  0.0292 -0.0397
20098TIP3    H181785   3.245   1.922  12.696  0.1054  0.1883  1.4095
20098TIP3    H281786   3.273   2.043  12.783  3.4631  0.7025 -0.2321
20099TIP3   OH281787   6.246   0.478  14.603  0.1025 -0.2304 -0.1400
20099TIP3    H181788   6.180   0.453  14.537 -0.7629 -2.5470  1.4772
20099TIP3    H281789   6.200   0.470  14.687  2.2033 -1.1506  1.0049
20100TIP3   OH281790   0.888   2.395   5.634  0.0803  0.2390 -0.0156
20100TIP3    H181791   0.925   2.429   5.715  0.8763  1.1598 -0.7430
20100TIP3    H281792   0.948   2.425   5.566 -0.7879 -0.1757 -0.9850
20101TIP3   OH281793   2.845   3.104   5.403  0.5036 -0.6134  0.3804
20101TIP3    H181794   2.937   3.098   5.427  1.5775  1.5713 -2.5574
20101TIP3    H281795   2.816   3.188   5.437 -0.3421 -1.1282  0.9771
20102TIP3   OH281796   3.173   0.779  14.505 -0.3893 -0.3480  0.2547
20102TIP3    H181797   3.206   0.690  14.515 -1.3398 -0.5927  1.5501
20102TIP3    H281798   3.152   0.807  14.595 -2.1799  0.3453 -0.3365
20103TIP3   OH281799   4.998   0.261  15.127 -0.4249 -0.1918  0.2085
20103TIP3    H181800   5.043   0.177  15.131  3.2059  1.3748 -2.7254
20103TIP3    H281801   4.993   0.290  15.219  0.0716 -2.6180  1.0717
20104TIP3   OH281802   0.748   3.278  15.985 -0.1326  0.3160 -0.5848
20104TIP3    H181803   0.745   3.272  15.889  0.7041  0.1669 -0.6142
20104TIP3    H281804   0.777   3.368  16.002 -0.3048  0.3502 -0.4700
20105TIP3   OH281805   0.485   0.542  12.816  0.1542  0.0892  0.2921
20105TIP3    H181806   0.495   0.599  12.740  1.0666 -0.4479 -0.0099
20105TIP3    H281807   0.532   0.587  12.886  1.8821 -0.7896 -0.2394
20106TIP3   OH281808   5.767   6.349   1.943  0.5303  0.2115 -0.3962
20106TIP3    H181809   5.696   6.285   1.949 -0.4017  1.1676 -1.0772
20106TIP3    H281810   5.786   6.372   2.034  0.5853 -0.7064 -0.1650
20107TIP3   OH281811   3.801   0.356  13.295 -0.7637  0.1147 -0.3423
20107TIP3    H181812   3.706   0.362  13.309 -0.9116  1.5714 -1.6653
20107TIP3    H281813   3.819   0.421  13.227  1.2923  0.3520  0.3610
20108TIP3   OH281814   1.306   1.242  15.048 -0.0960 -0.6391 -0.3467
20108TIP3    H181815   1.357   1.173  15.006  0.0501  0.4173 -1.9644
20108TIP3    H281816   1.350   1.255  15.132  1.6677 -0.5011 -1.2454
20109TIP3   OH281817   5.016   4.578   3.529 -0.2109  0.2886 -0.4142
20109TIP3    H181818   5.062   4.495   3.538  0.8906  1.0702  2.2115
20109TIP3    H281819   4.924   4.553   3.518 -0.3099 -1.3999  2.9469
20110TIP3   OH281820   3.910   1.806   0.381  0.1950 -0.0234  0.6817
20110TIP3    H181821   4.000   1.802   0.350  0.1315  1.1904  0.2902
20110TIP3    H281822   3.867   1.731   0.340  0.1197  1.4641 -2.2151
20111TIP3   OH281823   5.560   2.660  14.420 -0.1973  0.4624 -0.0137
20111TIP3    H181824   5.573   2.754  14.408  0.9666  0.3582  0.2491
20111TIP3    H281825   5.546   2.649  14.514 -1.2374  0.4506 -0.1563
20112TIP3   OH281826   1.704   2.156   0.282  0.2976  0.0819 -1.0782
20112TIP3    H181827   1.654   2.146   0.200 -3.7475 -1.3145  1.2668
20112TIP3    H281828   1.702   2.068   0.321  1.5555  0.8509  0.8324
20113TIP3   OH281829   6.197   1.828   0.934  0.0968  0.9729 -0.0199
20113TIP3    H181830   6.228   1.860   0.850 -1.1116  0.0443 -0.8537
20113TIP3    H281831   6.261   1.760   0.958 -0.5514 -0.0720 -1.1241
20114TIP3   OH281832   2.300   6.153   0.600  0.0029 -0.4174  0.2306
20114TIP3    H181833   2.362   6.172   0.529  0.8925  1.4715  1.4239
20114TIP3    H281834   2.356   6.141   0.678 -1.0605  0.0752  1.0924
20115TIP3   OH281835   1.352   1.912  15.607 -0.3237 -0.7691  0.2524
20115TIP3    H181836   1.346   1.948  15.518 -1.5163 -1.7659 -0.0953
20115TIP3    H281837   1.352   1.989  15.664 -1.4754 -0.1657 -0.5371
20116TIP3   OH281838   5.573   5.145   4.898 -0.0597  0.5734 -0.9149
20116TIP3    H181839   5.551   5.060   4.861 -1.3017  0.9023 -0.9494
20116TIP3    H281840   5.489   5.189   4.911  0.2104  0.2295  2.9611
20117TIP3   OH281841   3.805   6.262   3.021  0.5352 -0.1455 -0.9330
20117TIP3    H181842   3.714   6.266   2.991  0.4467 -0.2213 -0.6792
20117TIP3    H281843   3.798   6.241   3.115  0.8420 -1.8380 -1.2580
20118TIP3   OH281844   4.211   3.953  12.126  0.0776 -0.2422  0.2131
20118TIP3    H181845   4.208   3.865  12.162  0.8853 -0.6322 -0.6353
20118TIP3    H281846   4.260   3.944  12.044  0.4157  1.0440  0.2555
20119TIP3   OH281847   0.958   2.781  13.594 -0.1161  0.4053 -0.5079
20119TIP3    H181848   0.963   2.870  13.629 -0.3544  0.5883 -0.9369
20119TIP3    H281849   0.907   2.789  13.514 -1.0438 -0.2894  0.0009
20120TIP3   OH281850   1.263   6.093  15.753 -0.3054 -0.4435  0.1031
20120TIP3    H181851   1.300   6.181  15.758  0.7963 -0.8849 -0.0636
20120TIP3    H281852   1.235   6.074  15.843 -2.0635  0.6850 -0.1592
20121TIP3   OH281853   4.750   0.406  17.064 -0.2713 -0.0635  0.7021
20121TIP3    H181854   4.680   0.458  17.024 -0.7700  0.2667  1.9497
20121TIP3    H281855   4.756   0.328  17.010  1.0325  1.5628 -1.7380
20122TIP3   OH281856   5.086   5.406   3.097 -0.0302  0.2548 -0.1785
20122TIP3    H181857   5.056   5.446   3.015  1.3614 -0.5842 -1.1339
20122TIP3    H281858   5.096   5.480   3.157 -2.3316  0.7433 -0.3175
20123TIP3   OH281859   2.138   5.773  13.356  0.2192  0.0228  0.3690
20123TIP3    H181860   2.158   5.716  13.282  0.0804  0.2378  0.1649
20123TIP3    H281861   2.095   5.849  13.317 -1.1381 -0.4862  0.7862
20124TIP3   OH281862   5.718   2.932   5.214 -0.1693  0.4459 -0.2834
20124TIP3    H181863   5.765   2.855   5.182  1.7408  1.5893 -0.3870
20124TIP3    H281864   5.727   2.997   5.145 -1.0403  1.0497  0.1456
20125TIP3   OH281865   4.112   2.192  13.880 -0.0098  0.1841  0.4318
20125TIP3    H181866   4.170   2.116  13.879  0.2905  0.4105 -0.1584
20125TIP3    H281867   4.104   2.215  13.972  1.2584  0.4615  0.4898
20126TIP3   OH281868   4.893   5.159  15.832 -0.3802  0.2839 -0.2345
20126TIP3    H181869   4.947   5.231  15.865 -0.6356  0.5006 -0.2798
20126TIP3    H281870   4.890   5.096  15.904 -2.0413  1.3585  0.7079
20127TIP3   OH281871   5.691   0.896  17.126 -0.0911  0.2519  0.4341
20127TIP3    H181872   5.618   0.900  17.189 -0.0466 -0.8299  0.5706
20127TIP3    H281873   5.768   0.880  17.181 -0.2905 -2.6096  0.0156
20128TIP3   OH281874   2.616   3.566   6.595 -0.2149  0.1878 -0.3960
20128TIP3    H181875   2.524   3.591   6.581  0.1832  1.6038 -0.6133
20128TIP3    H281876   2.652   3.559   6.507 -0.6841 -2.8819 -0.4664
20129TIP3   OH281877   5.400   1.255  16.886  0.4422  0.7871  0.5674
20129TIP3    H181878   5.466   1.295  16.942  0.0060  0.4283  1.3486
20129TIP3    H281879   5.396   1.164  16.915  1.6660  0.0290 -1.4006
20130TIP3   OH281880   1.115   6.568  16.968 -0.2074 -0.2337  0.0301
20130TIP3    H181881   1.173   6.628  17.015  0.3258 -1.1102  0.5097
20130TIP3    H281882   1.027   6.595  16.994 -0.1455  1.7807 -1.4925
20131TIP3   OH281883   0.748   2.333  14.371  0.0407 -0.9495  1.2679
20131TIP3    H181884   0.799   2.290  14.303 -0.1626  0.2363  0.3295
20131TIP3    H281885   0.707   2.261  14.419 -0.0192 -1.8186 -0.0196
20132TIP3   OH281886   3.465   1.823  13.585 -0.3961 -0.3482  0.0354
20132TIP3    H181887   3.414   1.830  13.505  0.7518 -1.5145 -0.8257
20132TIP3    H281888   3.490   1.914  13.605  0.0689 -0.1214 -1.4450
20133TIP3   OH281889   0.247   1.218  11.543 -0.1895 -0.2146  0.0021
20133TIP3    H181890   0.253   1.234  11.449 -0.1723 -0.7412 -0.0882
20133TIP3    H281891   0.181   1.149  11.551 -0.0208 -0.3369  0.3585
20134TIP3   OH281892   0.539   6.734   0.690  0.3804  0.3674 -0.6438
20134TIP3    H181893   0.616   6.677   0.691  0.4262  0.4323 -0.5507
20134TIP3    H281894   0.568   6.813   0.646  0.1943  0.1433 -1.1780
20135TIP3   OH281895   4.552   5.879  16.375 -0.2544  0.2427  0.0685
20135TIP3    H181896   4.507   5.794  16.381 -1.2957  0.7668 -0.1750
20135TIP3    H281897   4.527   5.914  16.290  0.5741  0.5848 -0.0461
20136TIP3   OH281898   5.153   4.233  15.310  0.1442 -0.6822  0.3867
20136TIP3    H181899   5.225   4.293  15.327  0.2767 -0.6696 -0.2062
20136TIP3    H281900   5.095   4.281  15.251 -0.3281 -0.7122  0.8165
20137TIP3   OH281901   6.808   2.473  14.715 -0.1840 -0.2418  0.5964
20137TIP3    H181902   6.866   2.548  14.726 -0.8522  0.4252 -0.3322
20137TIP3    H281903   6.748   2.498  14.645 -1.5845 -0.9286  1.4932
20138TIP3   OH281904   0.985   2.810  13.948 -0.1545 -1.2644 -0.0037
20138TIP3    H181905   0.971   2.880  13.884 -1.3087 -0.9304  0.5833
20138TIP3    H281906   1.080   2.806  13.959 -0.0650  0.2156 -0.0498
20139TIP3   OH281907   2.474   0.863   0.642  0.3050 -0.3122  0.0418
20139TIP3    H181908   2.450   0.830   0.556 -0.5983  0.6883 -0.1097
20139TIP3    H281909   2.532   0.937   0.624  1.8042 -1.3561  0.3647
20140TIP3   OH281910   6.528   0.257  15.972 -0.2079 -0.3573  0.8214
20140TIP3    H181911   6.480   0.265  16.054  0.0108 -0.6379  0.9771
20140TIP3    H281912   6.461   0.232  15.908 -0.6293  1.1684  0.6305
20141TIP3   OH281913   4.534   0.617   4.087 -0.5653 -0.2740 -0.1967
20141TIP3    H181914   4.506   0.528   4.107 -0.1879  0.0536  2.0373
20141TIP3    H281915   4.626   0.620   4.113 -0.0290  0.2842 -1.9977
20142TIP3   OH281916   3.204   5.352  13.440  0.2399 -0.4247  0.0930
20142TIP3    H181917   3.221   5.260  13.457  2.8507  0.0055  0.1107
20142TIP3    H281918   3.111   5.363  13.461 -0.0464 -2.9345  0.4625
20143TIP3   OH281919   2.203   4.456  12.694  0.6186 -0.3377 -0.0783
20143TIP3    H181920   2.221   4.453  12.788  1.0893 -0.2461 -0.1635
20143TIP3    H281921   2.134   4.520  12.685 -1.2658 -2.1793  0.4819
20144TIP3   OH281922   2.447   3.252   6.661 -0.4196 -0.5089  0.2349
20144TIP3    H181923   2.531   3.277   6.701 -0.2029  1.2376 -1.1544
20144TIP3    H281924   2.381   3.288   6.721 -0.1109  0.9680 -0.2568
20145TIP3   OH281925   6.721   1.757   5.933 -0.2604  0.7628 -0.1055
20145TIP3    H181926   6.721   1.783   5.841 -1.1058 -0.3276 -0.4362
20145TIP3    H281927   6.814   1.744   5.954 -0.1217 -0.1200 -1.1552
20146TIP3   OH281928   6.819   4.522   0.757 -0.2018  0.9705 -0.0830
20146TIP3    H181929   6.860   4.442   0.723  2.5117  2.7953 -1.4814
20146TIP3    H281930   6.746   4.539   0.697 -1.0406 -0.5938  0.4529
20147TIP3   OH281931   4.255   0.863  15.057  0.0871  0.2601  0.4166
20147TIP3    H181932   4.227   0.940  15.009 -0.3141 -0.3798 -0.4051
20147TIP3    H281933   4.334   0.833  15.012  0.1982  0.1489  0.6824
20148TIP3   OH281934   1.862   5.856  14.209 -0.7612  0.6548 -0.1380
20148TIP3    H181935   1.834   5.774  14.251  0.3647 -0.1527 -0.8959
20148TIP3    H281936   1.803   5.922  14.244 -0.3254 -0.0837  2.1924
20149TIP3   OH281937   5.233   4.421   2.937  0.4356  0.0672 -0.3628
20149TIP3    H181938   5.155   4.398   2.988 -1.0988  1.6655 -1.8341
20149TIP3    H281939   5.307   4.404   2.996 -1.0989 -0.1618  1.5886
20150TIP3   OH281940   4.541   4.752   2.463  0.1289  0.0472  0.1848
20150TIP3    H181941   4.609   4.738   2.529  0.5297 -0.2505 -0.2822
20150TIP3    H281942   4.588   4.750   2.380 -0.6096 -1.3921 -0.2318
20151TIP3   OH281943   0.030   3.519   4.485 -0.5072  0.1588  0.2729
20151TIP3    H181944   0.000   3.436   4.522  1.2208 -0.9428 -0.7092
20151TIP3    H281945  -0.001   3.585   4.547 -0.3248 -1.3731  2.0767
20152TIP3   OH281946   2.324   0.065   0.670  0.1689 -0.3507 -0.1969
20152TIP3    H181947   2.295   0.156   0.685 -1.3979 -0.6959 -0.9644
20152TIP3    H281948   2.333   0.029   0.758  0.8264  0.5406  0.1198
20153TIP3   OH281949   4.320   6.233  15.509 -0.1012  0.5731 -0.0640
20153TIP3    H181950   4.300   6.294  15.580 -0.8406 -0.6220  0.7924
20153TIP3    H281951   4.244   6.174  15.506  1.7959 -2.0973  1.0924
20154TIP3   OH281952   3.289   1.743   4.839  0.9219  0.0951  0.6736
20154TIP3    H181953   3.288   1.821   4.894 -0.0540 -0.2447  1.1727
20154TIP3    H281954   3.207   1.697   4.862  1.4791 -1.0674  0.4025
20155TIP3   OH281955   1.619   2.244  12.775 -0.4574  0.0685  0.4933
20155TIP3    H181956   1.672   2.164  12.773 -0.5937 -0.0061 -0.1699
20155TIP3    H281957   1.682   2.315  12.784 -0.4269 -0.2132  3.3553
20156TIP3   OH281958   1.841   3.777  13.579 -0.2686 -0.3080  0.2571
20156TIP3    H181959   1.850   3.712  13.649 -0.7528 -1.3979 -0.6546
20156TIP3    H281960   1.840   3.725  13.498 -0.9582  0.8131 -0.4851
20157TIP3   OH281961   5.974   2.976   5.712 -0.0674  0.0932  0.9252
20157TIP3    H181962   6.053   2.997   5.761  0.4679 -0.9160  0.5209
20157TIP3    H281963   5.948   3.059   5.673  1.7884  0.1466 -0.3535
20158TIP3   OH281964   3.090   6.362   2.742  0.3472 -0.3974  0.2442
20158TIP3    H181965   3.113   6.451   2.715  0.0362 -1.0273 -2.3437
20158TIP3    H281966   2.998   6.352   2.717  0.2631 -1.3390  0.8777
20159TIP3   OH281967   4.768   5.072  16.336  0.1274 -0.1120 -0.4663
20159TIP3    H181968   4.768   5.111  16.424 -0.1890 -2.3006  0.6043
20159TIP3    H281969   4.838   5.007  16.339  0.3446  0.0316 -1.9692
20160TIP3   OH281970   5.032   2.368  13.890  0.0658  0.6094  0.1426
20160TIP3    H181971   5.076   2.334  13.968 -0.4272 -0.4347 -0.0093
20160TIP3    H281972   4.939   2.365  13.912 -0.0669  0.4576 -0.4245
20161TIP3   OH281973   4.403   5.177   1.815 -0.1741 -0.1085 -0.4094
20161TIP3    H181974   4.349   5.153   1.739  0.4231  0.5823 -1.0635
20161TIP3    H281975   4.353   5.146   1.890 -1.8872  1.2549 -0.9441
20162TIP3   OH281976   6.376   3.451  16.084 -0.1514 -0.6038  0.4607
20162TIP3    H181977   6.425   3.446  16.166  1.3720 -1.4232 -0.4466
20162TIP3    H281978   6.383   3.542  16.057 -2.2945  0.1414  2.1339
20163TIP3   OH281979   4.875   1.527  10.499 -0.3648 -0.5451  0.0119
20163TIP3    H181980   4.796   1.521  10.552 -1.1341  0.4523 -0.9678
20163TIP3    H281981   4.931   1.589  10.544 -0.3970 -0.7898  0.3903
20164TIP3   OH281982   3.260   6.781   6.507 -0.3186 -0.2673 -0.5553
20164TIP3    H181983   3.228   6.872   6.507 -2.0673 -0.8451 -1.2598
20164TIP3    H281984   3.225   6.744   6.588 -2.4111 -1.1764 -1.7860
20165TIP3   OH281985   4.893   5.254  11.628  0.3863  0.6245 -0.3365
20165TIP3    H181986   4.910   5.338  11.673 -1.2618  0.8547 -0.0639
20165TIP3    H281987   4.882   5.278  11.536 -2.4611  1.1621  0.0357
20166TIP3   OH281988   4.625   0.193   2.384 -0.5644  0.1816 -0.0353
20166TIP3    H181989   4.677   0.127   2.337  0.6428  0.1665  1.2644
20166TIP3    H281990   4.536   0.182   2.350 -0.0405 -0.8803 -1.1534
20167TIP3   OH281991   1.823   1.509  16.680  0.3152 -0.4207 -0.6130
20167TIP3    H181992   1.738   1.533  16.716 -0.8969 -3.1706 -1.3965
20167TIP3    H281993   1.886   1.548  16.741 -1.5065  0.5934  0.7279
20168TIP3   OH281994   6.468   5.935   2.527  0.4632 -0.0857 -0.0552
20168TIP3    H181995   6.472   6.030   2.539  1.0762 -0.1036 -0.0796
20168TIP3    H281996   6.450   5.924   2.434 -0.7755  0.0116  0.1544
20169TIP3   OH281997   4.767   4.956  12.452 -0.1557 -0.6924  0.5641
20169TIP3    H181998   4.857   4.960  12.484  0.5783 -1.7250 -1.1963
20169TIP3    H281999   4.748   5.045  12.422  0.4241 -0.5516  0.6003
20170TIP3   OH282000   5.831   3.314   5.838 -0.3686 -0.2702 -0.6133
20170TIP3    H182001   5.739   3.341   5.836 -0.0307  0.8920 -1.9612
20170TIP3    H282002   5.856   3.307   5.746  1.6023  2.0931 -0.3651
20171TIP3   OH282003   4.414   3.091  13.043 -0.4427  0.7199  0.0005
20171TIP3    H182004   4.325   3.094  13.078 -0.9089  0.8800 -1.1303
20171TIP3    H282005   4.407   3.133  12.957  0.3224 -0.9542 -0.9345
20172TIP3   OH282006   0.690   0.322   5.355 -0.6651  0.2963 -0.1012
20172TIP3    H182007   0.644   0.330   5.438 -0.1909  0.0572  0.1906
20172TIP3    H282008   0.775   0.284   5.378  0.6674  2.9184 -0.3022
20173TIP3   OH282009   5.177   5.793  14.688 -0.0922  0.6841 -0.6501
20173TIP3    H182010   5.193   5.869  14.744  2.5200 -0.3058  0.0987
20173TIP3    H282011   5.202   5.718  14.741 -1.8391 -0.7024 -1.6492
20174TIP3   OH282012   5.132   0.738   6.557 -0.2058 -0.2319  1.1003
20174TIP3    H182013   5.038   0.731   6.577 -0.7136  0.1538 -0.8529
20174TIP3    H282014   5.162   0.647   6.556 -0.7893 -0.4327  0.8471
20175TIP3   OH282015   0.792   0.565   0.418 -0.4321 -0.0633  0.4023
20175TIP3    H182016   0.784   0.660   0.407  0.2959 -0.0624 -0.2672
20175TIP3    H282017   0.887   0.549   0.420 -0.5462 -0.7880  0.3345
20176TIP3   OH282018   2.505   0.545   6.105 -0.6815  0.4599 -0.5722
20176TIP3    H182019   2.531   0.521   6.016 -2.0933  1.1632 -1.2050
20176TIP3    H282020   2.585   0.581   6.144  0.4606 -1.5845 -0.8873
20177TIP3   OH282021   3.155   0.441   1.453 -0.1409  0.0973  0.1730
20177TIP3    H182022   3.065   0.467   1.471 -0.3823  0.5942 -1.6030
20177TIP3    H282023   3.161   0.437   1.358  1.4656 -0.8498  0.2706
20178TIP3   OH282024   2.622   0.440  11.106  0.1292 -0.1717 -0.6355
20178TIP3    H182025   2.710   0.413  11.081  1.2944 -0.4783  3.1746
20178TIP3    H282026   2.576   0.358  11.122  0.4639 -0.0242  1.2135
20179TIP3   OH282027   3.571   5.842   5.784 -0.6679 -0.3414  0.6143
20179TIP3    H182028   3.593   5.834   5.691 -0.7026  1.9646  0.3349
20179TIP3    H282029   3.564   5.752   5.815  0.7873 -1.1774 -1.2634
20180TIP3   OH282030   5.022   5.325  10.554 -0.3987 -1.0312 -0.0979
20180TIP3    H182031   4.935   5.317  10.516  0.2032 -0.5248 -1.6493
20180TIP3    H282032   5.007   5.324  10.649 -2.2313  0.3636 -0.3243
20181TIP3   OH282033   1.333   2.801  14.427 -0.0495  0.4878  0.1989
20181TIP3    H182034   1.277   2.879  14.423 -0.7403  0.1548  2.3705
20181TIP3    H282035   1.405   2.826  14.484 -0.8561 -0.7643  1.8288
20182TIP3   OH282036   0.733   4.893  15.598 -0.3647 -0.2850 -0.2104
20182TIP3    H182037   0.829   4.888  15.594 -0.3309 -0.5085  0.7372
20182TIP3    H282038   0.710   4.841  15.675 -1.3341 -1.2539 -1.1334
20183TIP3   OH282039   3.662   5.490  10.980 -0.3588  0.4209  0.4928
20183TIP3    H182040   3.702   5.409  11.012  0.5268  0.4005 -0.5807
20183TIP3    H282041   3.575   5.464  10.949  0.9979 -0.8375 -2.6954
20184TIP3   OH282042   1.501   4.029  11.499  0.0731 -0.6787  0.1364
20184TIP3    H182043   1.485   4.063  11.411 -0.7540 -1.4821 -0.0297
20184TIP3    H282044   1.414   4.005  11.531  0.2623  0.2909  1.4653
20185TIP3   OH282045   4.993   2.046   4.464  0.4276 -0.0877 -0.1560
20185TIP3    H182046   4.993   2.090   4.379 -1.6611  0.9541  0.3183
20185TIP3    H282047   5.086   2.032   4.483  1.0119  0.9621 -1.9328
20186TIP3   OH282048   6.470   4.421   4.099  0.1800 -0.4528  0.4410
20186TIP3    H182049   6.551   4.374   4.119 -1.2821 -3.0698  0.6772
20186TIP3    H282050   6.425   4.365   4.035 -1.6630  0.6365  0.6997
20187TIP3   OH282051   3.936   5.170   2.631  0.3360  0.5544  0.2572
20187TIP3    H182052   3.841   5.169   2.644  0.2232 -2.2221 -0.1066
20187TIP3    H282053   3.972   5.166   2.720 -0.0302 -1.4030  0.3740
20188TIP3   OH282054   5.954   6.443  11.844  0.0045 -0.2375 -0.3997
20188TIP3    H182055   6.011   6.506  11.800  1.1474 -0.2018  1.0434
20188TIP3    H282056   6.003   6.361  11.841 -0.7686 -0.6934 -0.8738
20189TIP3   OH282057   0.286   1.733   1.024 -0.4989  0.5088  0.1557
20189TIP3    H182058   0.232   1.808   1.049 -3.2551 -0.7974 -1.4651
20189TIP3    H282059   0.249   1.659   1.071  0.3536 -0.3276 -0.4376
20190TIP3   OH282060   4.448   2.533  13.576 -0.2723  0.0078  0.0341
20190TIP3    H182061   4.447   2.535  13.480 -0.0062  0.7658  0.0410
20190TIP3    H282062   4.368   2.578  13.602 -0.0711  0.2963  0.1656
20191TIP3   OH282063   1.207   1.348  12.980 -0.5284  0.1549 -0.4643
20191TIP3    H182064   1.156   1.306  12.911 -1.0957  0.0877 -0.0143
20191TIP3    H282065   1.295   1.353  12.945 -0.0904 -2.6386 -0.0614
20192TIP3   OH282066   6.713   1.418   1.422  0.0631  0.2789 -0.2996
20192TIP3    H182067   6.747   1.484   1.483 -0.8437  0.3074  0.2044
20192TIP3    H282068   6.699   1.466   1.340  1.0180  0.3068 -0.4587
20193TIP3   OH282069   1.443   3.751  11.854 -0.0297 -0.3445 -0.4924
20193TIP3    H182070   1.436   3.846  11.862  0.1378 -0.4375  0.9129
20193TIP3    H282071   1.536   3.732  11.867  0.1023 -0.6438 -1.7049
20194TIP3   OH282072   2.183   0.571   1.192  0.1687  0.2219 -0.3812
20194TIP3    H182073   2.164   0.664   1.181 -0.5453 -0.0060 -1.2571
20194TIP3    H282074   2.249   0.567   1.261  1.8853  1.5167 -1.8696
20195TIP3   OH282075   4.040   2.850   0.467  0.0095  0.0326  0.0524
20195TIP3    H182076   4.031   2.818   0.378 -0.4749  2.5285 -0.8683
20195TIP3    H282077   3.951   2.871   0.495  0.2099 -0.2500  0.9627
20196TIP3   OH282078   2.033   2.770   3.599  0.1368 -0.4758  0.0137
20196TIP3    H182079   2.080   2.744   3.679 -1.6339 -0.1980  1.1934
20196TIP3    H282080   2.086   2.840   3.562 -0.1700  1.0052  2.2286
20197TIP3   OH282081   5.250   1.581   5.171  0.5643 -0.7668 -0.0960
20197TIP3    H182082   5.166   1.585   5.217 -0.1774  1.2407 -1.5180
20197TIP3    H282083   5.258   1.489   5.144 -1.7355 -0.8033 -0.8594
20198TIP3   OH282084   5.911   4.038   5.993  0.7128 -0.3769  0.0927
20198TIP3    H182085   5.871   3.970   6.047  1.1975 -0.8353 -0.1173
20198TIP3    H282086   5.904   4.117   6.046  0.7949 -0.7379  0.6484
20199TIP3   OH282087   6.114   1.145  15.047 -0.3791  0.1862  0.1394
20199TIP3    H182088   6.060   1.184  15.116  0.0351 -0.6943  0.9927
20199TIP3    H282089   6.108   1.050  15.062  1.3596  0.0603  0.2502
20200TIP3   OH282090   6.456   0.172  14.401 -0.3449 -0.0235  0.6695
20200TIP3    H182091   6.388   0.186  14.336 -0.1938  3.3441  1.1026
20200TIP3    H282092   6.413   0.184  14.485  0.1937 -0.9479  1.1022
20201TIP3   OH282093   3.815   6.563  14.081 -0.0798 -0.4210 -0.4837
20201TIP3    H182094   3.754   6.606  14.021 -0.8330 -1.1006 -0.2194
20201TIP3    H282095   3.894   6.617  14.078 -0.2141 -0.2619 -1.8464
20202TIP3   OH282096   3.484   0.063   5.727 -0.0248  0.2172 -0.1262
20202TIP3    H182097   3.542   0.121   5.776 -0.6167  1.5087 -0.9182
20202TIP3    H282098   3.514   0.068   5.637 -0.4373 -0.2782 -0.2993
20203TIP3   OH282099   6.164   0.007   1.985 -0.3529 -0.3726  0.2569
20203TIP3    H182100   6.189   0.061   1.910 -1.7171  1.8248  1.2998
20203TIP3    H282101   6.094  -0.049   1.951 -0.7163  0.3555 -0.2174
20204TIP3   OH282102   0.785   4.479   4.948 -0.3634  0.0115 -0.2301
20204TIP3    H182103   0.865   4.466   4.999 -0.5699  1.7396  0.6005
20204TIP3    H282104   0.737   4.546   4.995 -1.6376  0.0531 -1.5120
20205TIP3   OH282105   2.565   2.285  16.771  0.6549 -0.3151 -0.1321
20205TIP3    H182106   2.651   2.243  16.773  1.0310  0.4321 -0.0723
20205TIP3    H282107   2.577   2.367  16.819 -0.0436 -0.1123 -0.2852
20206TIP3   OH282108   1.957   2.961   1.786  0.2967 -0.0865  0.4678
20206TIP3    H182109   1.933   3.045   1.825 -0.2548 -0.2607  0.5109
20206TIP3    H282110   2.034   2.932   1.837  0.7941  0.6131  0.1324
20207TIP3   OH282111   1.008   0.285  13.995  0.4954 -0.2007 -0.0736
20207TIP3    H182112   1.082   0.342  14.016  1.4509 -0.8015 -1.6788
20207TIP3    H282113   0.937   0.344  13.971  1.1676  0.3488 -0.7365
20208TIP3   OH282114   4.976   3.471   6.332  0.4844 -0.0200  0.0398
20208TIP3    H182115   4.999   3.518   6.413  1.1370 -2.4581  1.3864
20208TIP3    H282116   5.051   3.485   6.274 -0.4444  2.6368 -0.6563
20209TIP3   OH282117   0.969   4.991   3.430 -0.3063  0.4903 -0.2760
20209TIP3    H182118   0.920   5.044   3.368 -2.1091 -0.9692 -0.1941
20209TIP3    H282119   0.904   4.930   3.466  1.0709  0.0724  1.6784
20210TIP3   OH282120   3.394   5.926   5.574 -0.1758 -0.7617  0.1665
20210TIP3    H182121   3.426   5.836   5.570  0.1175 -0.7323  1.3465
20210TIP3    H282122   3.377   5.941   5.668 -0.5840  0.2820 -0.0584
20211TIP3   OH282123   1.796   3.599  14.048  0.3718  0.1689 -0.3442
20211TIP3    H182124   1.759   3.687  14.040 -2.1267 -0.9588 -3.7014
20211TIP3    H282125   1.757   3.563  14.128 -3.1644  0.3505 -1.8186
20212TIP3   OH282126   3.239   5.947  17.020  0.0319 -1.2199  0.7518
20212TIP3    H182127   3.264   5.954  16.928 -0.5793 -0.7404  0.6101
20212TIP3    H282128   3.307   5.994  17.067 -0.1075 -0.7135  0.4577
20213TIP3   OH282129   4.735   4.661  13.532  0.5053 -0.0373  0.2643
20213TIP3    H182130   4.664   4.673  13.595  1.3870  0.0800  1.2687
20213TIP3    H282131   4.691   4.640  13.450 -0.6453 -1.3230  1.1612
20214TIP3   OH282132   0.817   5.280  16.821  0.1460  0.5553 -0.1301
20214TIP3    H182133   0.738   5.240  16.859  0.6872  0.0548  0.4981
20214TIP3    H282134   0.843   5.345  16.886  1.7002 -1.0505  0.9449
20215TIP3   OH282135   0.559   1.686   0.956  0.3633  0.0029  0.1280
20215TIP3    H182136   0.574   1.600   0.916 -0.5638  0.3376 -1.0036
20215TIP3    H282137   0.475   1.678   0.999  1.3657 -0.3554  2.1123
20216TIP3   OH282138   1.175   3.868   1.474  0.0345  0.1518 -0.3422
20216TIP3    H182139   1.184   3.956   1.510 -1.3383  0.3788 -0.4758
20216TIP3    H282140   1.199   3.809   1.546  1.2660  0.6328 -0.3544
20217TIP3   OH282141   1.171   2.769   0.174 -0.4312 -0.0038 -0.2159
20217TIP3    H182142   1.245   2.769   0.234  0.8264 -1.4446 -1.6818
20217TIP3    H282143   1.128   2.854   0.188  1.3451  0.7622  0.8234
20218TIP3   OH282144   6.651   4.165  11.310 -0.4395  0.2631 -0.2271
20218TIP3    H182145   6.658   4.261  11.306  1.9269  0.1021 -2.6054
20218TIP3    H282146   6.742   4.135  11.316 -1.1865 -1.8637  1.5264
20219TIP3   OH282147   0.174   2.220   4.119 -0.2958  0.0713 -0.1940
20219TIP3    H182148   0.207   2.134   4.145 -0.9482  0.0741  0.7086
20219TIP3    H282149   0.219   2.240   4.037  0.3780 -0.8225 -0.0534
20220TIP3   OH282150   4.659   1.891  15.006  0.1951  0.1528 -0.1931
20220TIP3    H182151   4.717   1.816  15.017 -2.0058 -1.4020  1.5521
20220TIP3    H282152   4.652   1.902  14.911  0.3691 -2.0361 -0.4990
20221TIP3   OH282153   1.753   5.624   4.608 -0.1317  0.3238  0.4676
20221TIP3    H182154   1.813   5.664   4.671 -0.6992  1.2072  0.4607
20221TIP3    H282155   1.706   5.697   4.569 -0.0757 -0.2502 -0.7059
20222TIP3   OH282156   0.897   5.149  10.990 -0.3189  0.1678  0.4485
20222TIP3    H182157   0.967   5.084  10.989 -0.2492  0.2150  1.2942
20222TIP3    H282158   0.827   5.108  11.041  0.1988  1.2133  2.0825
20223TIP3   OH282159   4.367   4.575   5.625 -0.3287 -0.0526 -0.1099
20223TIP3    H182160   4.317   4.536   5.554  1.7493 -1.9560 -0.6484
20223TIP3    H282161   4.417   4.645   5.583 -3.9412  3.4663  0.8288
20224TIP3   OH282162   6.746   5.443   2.203 -0.5034 -0.0991 -0.1216
20224TIP3    H182163   6.827   5.480   2.168  0.1609 -0.3958  1.0486
20224TIP3    H282164   6.763   5.349   2.209 -1.1674 -0.2436 -0.4773
20225TIP3   OH282165   2.855   5.476   4.352 -0.1463  0.3354 -0.5114
20225TIP3    H182166   2.935   5.432   4.380  0.6021  2.0237  0.1014
20225TIP3    H282167   2.870   5.496   4.259 -0.5883 -0.8523 -0.8598
20226TIP3   OH282168   2.414   4.103   6.128 -0.1732  0.6291  0.0913
20226TIP3    H182169   2.434   4.111   6.221  0.8253  0.2391 -0.0806
20226TIP3    H282170   2.428   4.191   6.093 -1.2276  0.9445  0.4189
20227TIP3   OH282171   4.171   4.385   4.534 -0.2578 -0.4360  0.2845
20227TIP3    H182172   4.184   4.290   4.545  3.0515 -0.1619 -0.1038
20227TIP3    H282173   4.138   4.394   4.445  0.0936 -1.2058  0.0636
20228TIP3   OH282174   5.982   0.458   2.500 -0.3629  0.2108 -0.2871
20228TIP3    H182175   5.921   0.531   2.488 -0.1716  0.0897 -2.4329
20228TIP3    H282176   6.048   0.492   2.559 -2.9123  0.0378  2.9637
20229TIP3   OH282177   6.724   1.339  15.188 -0.1797 -0.3629  0.3029
20229TIP3    H182178   6.810   1.337  15.144  1.8766  1.5289  3.8030
20229TIP3    H282179   6.725   1.263  15.245 -1.4556 -1.0164 -0.5009
20230TIP3   OH282180   5.631   3.723   5.887  0.1798  0.2103  0.3999
20230TIP3    H182181   5.636   3.782   5.812 -0.1909 -0.5669 -0.2620
20230TIP3    H282182   5.572   3.653   5.858  1.2256 -0.8986  0.8528
20231TIP3   OH282183   2.701   1.852  12.830  0.1063 -0.0326  0.3259
20231TIP3    H182184   2.773   1.817  12.778 -0.3546  2.1128 -1.9566
20231TIP3    H282185   2.741   1.922  12.881 -0.1129  0.3613 -0.0338
20232TIP3   OH282186   5.011   1.378   2.168 -0.0672  0.2901 -0.4542
20232TIP3    H182187   5.058   1.309   2.215 -0.5408 -0.3434 -0.8816
20232TIP3    H282188   5.075   1.448   2.157 -0.1052  0.7176  1.6420
20233TIP3   OH282189   2.894   1.451  12.106  0.0821  0.0482  0.4067
20233TIP3    H182190   2.980   1.421  12.076  0.3836  0.4997  0.8106
20233TIP3    H282191   2.837   1.374  12.095  0.5453 -0.2731  0.1969
20234TIP3   OH282192   1.777   1.082   0.349 -0.1042  0.3371 -0.2254
20234TIP3    H182193   1.737   1.038   0.274  1.4657  0.5700 -1.2279
20234TIP3    H282194   1.768   1.175   0.330 -0.3781  0.4099  0.2496
20235TIP3   OH282195   4.406   6.141  15.888  0.3467  0.3588 -0.0618
20235TIP3    H182196   4.467   6.112  15.820 -1.0637 -0.2166 -1.1266
20235TIP3    H282197   4.413   6.236  15.887 -1.3247  0.5583 -2.7230
20236TIP3   OH282198   5.153   1.847   1.389  0.3743 -0.1535 -0.9135
20236TIP3    H182199   5.231   1.902   1.384 -0.1831  0.6875 -0.5241
20236TIP3    H282200   5.080   1.908   1.381 -0.3009 -0.6304  1.1199
20237TIP3   OH282201   5.045   5.846  11.388 -0.1584 -0.0269 -0.2088
20237TIP3    H182202   5.014   5.933  11.413 -0.3826 -0.4290  0.9897
20237TIP3    H282203   4.989   5.786  11.436  0.4807 -0.8204 -0.4304
20238TIP3   OH282204   6.769   0.146  17.202  0.2109 -0.2627  0.3409
20238TIP3    H182205   6.864   0.153  17.209  0.1715  0.0829  0.5468
20238TIP3    H282206   6.736   0.184  17.284 -0.1154 -0.0964  0.1307
20239TIP3   OH282207   6.373   1.326   4.394  0.1683  0.0682  0.8009
20239TIP3    H182208   6.388   1.389   4.323  0.2866 -0.3567  0.4419
20239TIP3    H282209   6.446   1.342   4.454  0.7471 -0.3733  0.2330
20240TIP3   OH282210   6.253   4.232   5.418 -0.2838 -0.4725 -0.1917
20240TIP3    H182211   6.201   4.197   5.346  1.5116 -1.0016 -1.3037
20240TIP3    H282212   6.344   4.217   5.391  0.4820  1.2811  1.2162
20241TIP3   OH282213   4.795   6.570   1.727 -0.2585  0.3225  0.2150
20241TIP3    H182214   4.891   6.576   1.729 -0.1827 -0.7162  0.6797
20241TIP3    H282215   4.778   6.493   1.673 -0.7386 -0.6655  1.7050
20242TIP3   OH282216   2.378   1.345  17.065 -0.0456  0.5392  0.0210
20242TIP3    H182217   2.312   1.277  17.051  1.4715 -0.8310 -0.7254
20242TIP3    H282218   2.453   1.299  17.102  1.1796  1.7491 -0.8574
20243TIP3   OH282219   3.839   2.515   3.482 -0.4378 -0.0119  0.1910
20243TIP3    H182220   3.919   2.557   3.515  0.0063 -1.0796  0.5139
20243TIP3    H282221   3.823   2.558   3.398 -0.4826  1.3802  0.8756
20244TIP3   OH282222   6.236   1.092   4.257 -0.6187 -0.1610  0.2357
20244TIP3    H182223   6.319   1.120   4.219 -0.2698  1.0662  1.8088
20244TIP3    H282224   6.187   1.174   4.270 -1.3697 -0.7064  0.9201
20245TIP3   OH282225   3.100   5.091  10.853 -0.0614  0.1802 -0.1954
20245TIP3    H182226   3.042   5.162  10.826 -1.4178 -0.8815 -0.1507
20245TIP3    H282227   3.113   5.039  10.773  0.4916  0.1662 -0.1027
20246TIP3   OH282228   5.532   2.111   3.076  0.3192 -0.2331  0.1992
20246TIP3    H182229   5.589   2.093   3.002  2.7730 -1.8499  2.2992
20246TIP3    H282230   5.582   2.172   3.131 -0.4825 -0.7359  1.5442
20247TIP3   OH282231   0.721   5.840   0.644  0.0970  0.0434  0.0056
20247TIP3    H182232   0.633   5.867   0.671  0.0686  0.7144 -0.7187
20247TIP3    H282233   0.768   5.922   0.632  0.3683 -0.2597 -1.0909
20248TIP3   OH282234   6.134   4.052   1.220  0.2686  0.0067 -0.6389
20248TIP3    H182235   6.127   3.958   1.236  0.8384  0.0535 -0.0479
20248TIP3    H282236   6.046   4.079   1.196  0.3168 -0.8598 -1.8539
20249TIP3   OH282237   1.552   3.839   2.999  0.0018 -0.0340  0.2078
20249TIP3    H182238   1.597   3.757   3.019  0.6993  0.0423 -0.9888
20249TIP3    H282239   1.487   3.816   2.933 -1.4076 -0.0341  1.5236
20250LIG     O182240   3.346   1.929  11.368  0.1938 -0.6589 -0.3104
20250LIG     O282241   3.199   1.917  11.572  0.3114 -0.4077 -0.0216
20250LIG     O382242   3.237   1.680  11.223  0.3416  0.1706 -0.0710
20250LIG     O482243   3.015   2.075  11.562 -0.3147 -0.3638 -0.1535
20250LIG     O582244   2.925   1.887  11.343 -0.4080  0.3212 -0.0878
20250LIG     O682245   2.986   1.663  11.619  0.2736  0.0456 -0.0715
20250LIG     O782246   2.781   1.850  11.752 -0.7811 -0.4452  0.7781
20250LIG     O882247   3.025   2.153  11.851  0.3170 -0.4968  0.1848
20250LIG     O982248   2.800   2.158  11.826  0.4071  0.0085  0.3221
20250LIG      N82249   3.809   1.883  11.553  0.4645 -0.3416 -0.3837
20250LIG     C182250   3.534   1.927  11.496 -0.8739 -0.5962  0.6326
20250LIG     C282251   3.586   1.927  11.645  0.5592 -0.6914 -0.2993
20250LIG     C382252   3.404   2.007  11.472 -0.1892 -0.1183  0.4432
20250LIG     C482253   3.705   1.837  11.650  0.7743  0.4379  1.0275
20250LIG     C582254   3.640   1.972  11.397  0.0345 -0.0474  0.3736
20250LIG     C682255   3.500   1.787  11.463  0.2894  0.1163  0.5179
20250LIG     C782256   3.659   1.686  11.624 -0.0820  0.3645 -0.1504
20250LIG     C882257   3.770   1.884  11.416  0.7975  0.0009  0.3235
20250LIG     C982258   3.301   2.007  11.585 -0.7258 -0.0967 -0.0372
20250LIG    C1082259   3.552   1.673  11.512 -0.3430  0.9511  0.2210
20250LIG    C1182260   3.474   1.912  11.752  0.7471  0.1293  0.6553
20250LIG    C1282261   3.387   1.799  11.383  0.6295  0.2463  0.4758
20250LIG    C1382262   3.352   1.951  11.718  0.2652 -0.2791  0.4141
20250LIG    C1482263   3.874   2.006  11.596 -0.0431 -0.0710  0.3855
20250LIG    C1582264   3.503   1.551  11.461 -0.0170  0.0712  0.0168
20250LIG    C1682265   3.332   1.678  11.330 -0.7129  1.0637 -0.6827
20250LIG    C1782266   3.392   1.558  11.367 -0.5836  0.1429 -0.2669
20250LIG    C1882267   3.095   1.966  11.499 -0.4166 -0.2614  0.1581
20250LIG    C1982268   3.008   1.851  11.451 -0.4677 -0.0158 -0.1465
20250LIG    C2082269   2.924   1.779  11.566 -0.4151  0.1577 -0.5590
20250LIG    C2182270   2.907   1.884  11.682  0.5056 -1.0243  0.2968
20250LIG    C2282271   2.910   2.031  11.643  0.5828 -0.0665  0.1103
20250LIG    C2382272   2.902   2.121  11.774 -0.2005  0.7048  0.6868
20250LIG     H182273   3.622   2.028  11.672 -0.5803 -0.4849  0.5501
20250LIG     H282274   3.414   2.108  11.426  2.7205 -0.4881  0.0844
20250LIG     H382275   3.741   1.837  11.755 -0.5415  0.9671  1.4967
20250LIG     H482276   3.653   2.080  11.420 -2.0332  0.1149  0.9481
20250LIG     H582277   3.602   1.958  11.293  1.0739  0.5417 -0.1118
20250LIG     H682278   3.609   1.648  11.716  0.7535 -2.0057 -0.6172
20250LIG     H782279   3.741   1.615  11.601 -1.7250 -1.1498 -1.7154
20250LIG     H882280   3.760   1.777  11.389  1.0116  0.3521 -1.2475
20250LIG     H982281   3.851   1.923  11.351  1.9038 -0.8031  1.1863
20250LIG    H1082282   3.274   2.113  11.606  2.3431  0.9046 -0.6435
20250LIG    H1182283   3.493   1.872  11.853  1.7123  5.4318  2.9026
20250LIG    H1282284   3.276   1.964  11.795 -0.2998 -0.6274 -0.0749
20250LIG    H1382285   3.911   1.994  11.700 -2.8385 -0.5877  1.3940
20250LIG    H1482286   3.810   2.097  11.598  0.2956  0.2172 -0.7469
20250LIG    H1582287   3.970   2.033  11.545 -0.6667  2.5018  0.4345
20250LIG    H1682288   3.543   1.454  11.488  0.1566 -0.5254 -2.2250
20250LIG    H1782289   3.367   1.468  11.314  0.4622 -0.8439  0.8621
20250LIG    H1882290   3.141   2.004  11.405  3.5642 -1.1703  1.5373
20250LIG    H1982291   3.078   1.774  11.413 -1.1406 -1.1497  0.8538
20250LIG    H2082292   2.825   1.759  11.520  0.7923 -0.5500 -2.9988
20250LIG    H2182293   3.190   1.596  11.233 -0.8965  0.8546 -0.0194
20250LIG    H2282294   2.989   1.874  11.756  0.4592 -0.8472  0.3728
20250LIG    H2382295   2.815   2.043  11.585 -1.8677 -1.3087  3.5327
20250LIG    H2482296   2.903   1.804  11.301 -0.1225 -0.1467  0.6595
20250LIG    H2582297   2.917   1.619  11.669 -2.6942  2.1628 -1.9539
20250LIG    H2682298   2.807   1.822  11.840  3.2759 -0.8512 -0.3506
20250LIG    H2782299   3.008   2.195  11.935 -1.7331  0.5924 -0.7224
   6.82163   6.82163  17.25819
